default_name
199152
  50.6846349  57.5538447  67.4158673  51.1801526  58.3197015  67.8494876
  50.3119488  56.9567624  68.1402278  50.0729578  57.9251100  66.7030470
  51.6543852  56.7336643  66.7019804  51.6431076  55.7183284  67.0982949
  51.3144219  56.6804719  65.2124739  50.3107875  56.2700070  65.1014073
  51.3394739  57.6922112  64.8076826  52.2803808  55.8187625  64.4230955
  52.9833770  56.3048014  63.5377496  52.3146943  54.5290843  64.7380983
  52.9399109  53.9082527  64.2443655  51.7154165  54.1750212  65.4699495
  53.0671709  57.2731802  66.9023606  53.5224150  58.1435680  66.1615963
  53.7548244  56.7477155  67.9122084  53.3359391  56.0540373  68.5150724
  55.1120354  57.1849407  68.2025556  55.1377276  58.2671928  68.3297150
  55.6049522  56.5298177  69.4923807  54.7650784  56.6448536  70.1775653
  55.7676072  55.4707379  69.2923971  56.8617723  57.1275936  70.1229266
  57.6338491  57.2166724  69.3586864  56.5648240  58.4978548  70.7036305
  55.7931126  58.4095121  71.4683239  57.4711237  58.9086728  71.1485464
  56.2166465  59.1609766  69.9117073  57.4123916  56.2002266  71.1901341
  57.6638838  55.2388413  70.7422620  58.3073909  56.6412902  71.6289284
  56.6620236  56.0533860  71.9669769  56.0419005  56.8380967  67.0459433
  55.9918744  55.7343671  66.4979147  56.8961777  57.7887707  66.6751665
  56.9231725  58.6788949  67.1516636  57.7885150  57.5839518  65.5479232
  57.2269680  57.1920169  64.6998954  58.4406136  58.8988716  65.1346748
  58.9280513  58.7588624  64.1698426  57.6652213  59.6593744  65.0424670
  59.3979828  59.3150912  66.0906243  59.7932020  60.1430934  65.8081105
  58.8647033  56.5617153  65.9011587  59.1622113  56.3378492  67.0766952
  59.4640042  55.9216168  64.8936875  59.1956615  55.9169802  63.4913695
  59.7033052  56.7690992  63.0393835  58.1201068  56.0158488  63.3447200
  59.7264967  54.5922566  62.9907424  59.9828203  54.6521258  61.9330028
  58.9940079  53.7994079  63.1422433  60.9711691  54.3603626  63.8563674
  61.8648450  54.8830522  63.5154306  61.1906183  53.2980050  63.9628484
  60.5151490  54.9318633  65.1891676  60.0500445  54.1182666  65.7457971
  61.6734963  55.4969277  65.9929361  62.1600161  54.8425455  66.9268336
  62.1224598  56.7105426  65.6648664  61.7341756  57.2243947  64.8868620
  63.2387721  57.2994622  66.3937083  64.0779245  56.6041208  66.4142684
  63.6905668  58.5894962  65.7128126  63.9044673  58.2919863  64.6862486
  62.8644680  59.3005597  65.7198422  64.9308623  59.2436594  66.3224680
  64.7467966  59.4340986  67.3798012  66.1395480  58.3372784  66.1748693
  66.3245309  58.1467497  65.1177132  67.0122472  58.8200701  66.6146522
  65.9510140  57.3932486  66.6861060  65.1926819  60.5925385  65.6824708
  64.3345118  61.2447934  65.8443565  66.0792974  61.0416648  66.1300195
  65.3527773  60.4625116  64.6121617  62.8655877  57.5646905  67.8457160
  63.6658670  57.3132676  68.7532382  61.6590962  58.0814202  68.0871072
  61.0524090  58.3852903  67.3389809  61.2157467  58.2826475  69.4617409
  61.9340547  58.9034386  69.9972325  59.8570515  58.9813626  69.4804365
  59.2036866  58.4367608  68.7988043  59.4674990  58.9043621  70.4955325
  59.9122285  60.4409222  69.0696176  60.2865066  61.0141386  69.9178154
  60.6097298  60.5282540  68.2365724  58.5598465  60.9801942  68.6537685
  57.9765063  60.4437694  67.6885454  58.0787872  61.9402165  69.2912983
  61.1504295  56.9626027  70.2214937  61.5457701  56.8944375  71.3883134
  60.6404485  55.9059785  69.5844170  60.2615401  55.9844296  68.6514791
  60.5687284  54.6096067  70.2544001  60.0094851  54.7003518  71.1855883
  59.8607788  53.5971097  69.3566584  58.8440967  53.9437058  69.1713803
  60.3992442  53.5302536  68.4113091  59.8198754  52.3202677  69.9675237
  59.3713586  51.7017067  69.3863053  61.9566061  54.1081072  70.6273273
  62.1761329  53.6144386  71.7454307  62.9191195  54.2600555  69.7157074
  62.7319646  54.6339108  68.7963029  64.2742518  53.8195454  70.0195185
  64.2638804  52.7857294  70.3647954  65.1409544  53.9064783  68.7659830
  64.7000573  53.1801311  68.0832467  65.0291630  54.9083842  68.3515107
  66.6233438  53.5954617  68.9510756  67.0778715  54.3831226  69.5519879
  66.8047176  52.2614766  69.6468030  66.3508191  51.4732026  69.0462206
  67.8682561  52.0569604  69.7699279  66.3257205  52.2933926  70.6253956
  67.3208342  53.5937945  67.6068415  67.2145656  54.5732836  67.1405718
  68.3787182  53.3711150  67.7461135  66.8719503  52.8357837  66.9649523
  64.8694906  54.6469738  71.1493268  65.5139160  54.1015962  72.0543661
  64.6697250  55.9661144  71.1177699  64.1860761  56.4161571  70.3538036
  65.2067034  56.8018376  72.1830731  66.2817545  56.6430623  72.2676584
  64.9540892  58.2750349  71.8735980  63.8813582  58.4515546  71.7949268
  65.3653686  58.8906071  72.6736108  65.4348916  58.5364471  70.9309465
  64.5865765  56.4206837  73.5187087  65.2639656  56.4211916  74.5517613
  63.2892283  56.1161470  73.5162299  62.7438920  56.1901806  72.6693375
  62.6081152  55.7291376  74.7448122  62.7272442  56.5064458  75.4995966
  61.1168185  55.5353602  74.4746688  60.6724460  56.4522184  74.0873661
  60.9686548  54.7288649  73.7565372  60.3431393  55.1685366  75.6928083
  60.0661049  53.9125268  76.1362126  60.4457020  53.0843105  75.5378285
  59.3340214  53.9711857  77.2957815  58.9986182  53.1762324  77.8208085
  59.1276043  55.2842848  77.6229156  58.4461960  55.8439157  78.6962757
  57.9851946  55.1778354  79.4255996  58.3975636  57.2067829  78.7688905
  57.8733849  57.6814786  79.5983485  59.0062344  58.0126714  77.8012647
  58.9589853  59.0995792  77.8683354  59.6831649  57.4586624  76.7352764
  60.1393290  58.1294973  76.0072685  59.7504065  56.0670233  76.6341858
  63.2211432  54.4641024  75.3268977  63.4914251  54.3854501  76.5326446
  63.4434001  53.4550047  74.4808712  63.1552408  53.4840789  73.5132875
  64.0710206  52.2357493  74.9793908  63.4950229  51.8422177  75.8169221
  64.1301327  51.1717181  73.8847519  64.6179766  51.6263979  73.0225606
  64.7476606  50.3571823  74.2632896  62.7778108  50.6294747  73.4714076
  62.3341684  50.0957022  74.3118653  62.1368381  51.4663156  73.1940029
  62.8742856  49.6837014  72.2947621  63.9543510  49.1911966  71.9667823
  61.7430979  49.4181261  71.6552576  61.7497717  48.7928498  70.8621080
  60.8802186  49.8423845  71.9643619  65.4673224  52.5235683  75.5118778
  65.8599108  51.9979409  76.5611533  66.2280433  53.3632673  74.8067109
  65.9109312  53.7429756  73.9261651  67.5804523  53.6871913  75.2536652
  68.1760840  52.7832051  75.3806728  68.2814911  54.5980894  74.2320844
  67.6560616  55.4713834  74.0468958  69.6274203  55.0447643  74.7590588
  70.2536159  54.1719791  74.9440615  70.1104676  55.6886611  74.0241011
  69.4892858  55.5959354  75.6892367  68.4643707  53.8698429  72.9166646
  67.4903508  53.5785151  72.5235802  68.9618432  54.5267752  72.2031798
  69.0727123  52.9794095  73.0752513  67.5416223  54.3228705  76.6371070
  68.2814941  53.9268491  77.5450937  66.6665730  55.3132666  76.8204712
  66.0844245  55.6414254  76.0631640  66.5732962  55.9918841  78.1087929
  67.5475741  56.3922033  78.3891967  65.5752364  57.1476320  78.0270341
  65.9682110  57.8639712  77.3055577  64.6355391  56.7379588  77.6565792
  65.3330492  57.8502030  79.3612790  64.8764478  57.1305200  80.0407438
  66.3002556  58.1598403  79.7571813  64.4248987  59.0693492  79.2267758
  64.3661426  59.5532601  80.2016998  64.8825975  59.7513556  78.5102017
  63.0235874  58.7048515  78.7562346  62.4611247  59.6280096  78.6165364
  63.1099694  58.1847309  77.8022368  62.3136098  57.8347218  79.7327483
  62.2330806  58.3166615  80.6166878  61.3915216  57.6179451  79.3822327
  62.8344163  56.9790644  79.8620154  66.1751665  55.0186491  79.2103873
  66.7986090  54.9810684  80.2793289  65.1242330  54.2284915  78.9738440
  64.6213068  54.2589716  78.0984952  64.6384499  53.3347883  80.0200076
  64.3976437  53.9086248  80.9148949  63.3813172  52.6065460  79.5549682
  63.5576497  52.1132297  78.5991204  63.0736092  51.8666071  80.2938229
  61.9649191  53.6809478  79.3067709  61.1266510  52.7205208  78.9275808
  65.7121814  52.3373702  80.4233632  65.9748777  52.1444490  81.6154693
  66.3532450  51.6927534  79.4470120  66.1205389  51.8177311  78.4721644
  67.3826344  50.7205688  79.7925225  66.9780137  49.9866774  80.4895049
  67.8699456  49.9903790  78.5437260  67.0499779  49.3303937  78.2605800
  68.0311332  50.7270011  77.7566387  69.1436406  49.1658940  78.7386091
  69.9649198  49.8413050  78.9782366  68.9726712  48.1601379  79.8610976
  68.1518123  47.4840447  79.6219586  69.8922008  47.5868833  79.9791876
  68.7509650  48.6857152  80.7899223  69.5020184  48.4541853  77.4592573
  69.6683382  49.1868895  76.6695854  70.4101654  47.8704640  77.6097225
  68.6870941  47.7897725  77.1719372  68.5432179  51.3970582  80.5079253
  69.0729133  50.8650868  81.4904070  68.9539952  52.5742557  80.0342650
  68.5002928  52.9930995  79.2350008  70.0914905  53.2646822  80.6217825
  70.9504237  52.5966387  80.6854287  70.4640920  54.4551026  79.7453297
  69.5096680  54.8520550  79.3994932  70.9736221  55.2079340  80.3467646
  71.3309482  54.0938063  78.5413886  70.9440448  53.1861816  78.0781134
  71.3080781  55.2230900  77.5341441  71.6952985  56.1310039  77.9965848
  71.9283707  54.9592502  76.6775658  70.2840685  55.3935263  77.2017945
  72.7548431  53.7731613  78.9681063  72.7467285  52.9287078  79.6572594
  73.3493222  53.5194847  78.0904138  73.1905761  54.6411264  79.4629522
  69.8096320  53.7352477  82.0398166  70.7526202  53.9351693  82.8125822
  68.5364676  53.9140644  82.3969426  67.7797194  53.7476149  81.7490799
  68.2101164  54.4165606  83.7276508  68.6264274  55.4149339  83.8619458
  66.6941463  54.4922254  83.9020061  66.3034146  55.1170969  83.0989099
  66.3021279  53.4804962  83.7979600  66.2669820  55.0648964  85.2419463
  66.5503208  54.3592488  86.0228954  66.7930091  56.0070536  85.3960156
  64.7703048  55.3066808  85.2980771  64.5544361  55.9447362  86.1550398
  64.4668501  55.8141011  84.3823591  64.0033446  54.0034469  85.4320116
  64.0111822  53.5029251  84.4637570  64.5151768  53.3812838  86.1662051
  62.5983112  54.2245015  85.8637535  62.1237356  54.8006348  85.1833506
  62.1257143  53.3351644  85.9401190  62.5908260  54.6879027  86.7611399
  68.8210417  53.5517630  84.8236551  69.2375039  54.0671617  85.8663292
  68.8875799  52.2399244  84.6117655  68.6066754  51.8583138  83.7198208
  69.3013205  51.3152230  85.6594511  69.1178150  51.7570224  86.6388581
  68.5090838  50.0089702  85.5556925  68.6361388  49.6221527  84.5445899
  68.9454895  49.3098995  86.2690999  67.0410664  50.1740101  85.8489159
  66.5691373  50.1586606  87.1522779  67.2810207  50.0230539  87.9664845
  65.2279743  50.3107955  87.4280818  64.8688355  50.2872969  88.4569496
  64.3389832  50.4857216  86.3931569  62.9994740  50.6442951  86.6623420
  62.7996075  50.6163693  87.6008905  64.7827287  50.5105601  85.0910770
  64.0782455  50.6539982  84.2717911  66.1263633  50.3528259  84.8252499
  66.4836398  50.3677542  83.7955749  70.7905221  51.0026070  85.6340775
  71.2565259  50.2260731  86.4727274  71.5477375  51.5769990  84.7056037
  71.1337651  52.1673997  83.9983887  72.9843791  51.3455480  84.6572152
  73.1990995  50.3012117  84.8838338  73.5269491  51.6642889  83.2680770
  73.3886173  52.7277708  83.0732187  74.5903870  51.4263403  83.2439896
  72.8537827  50.9127768  82.2781615  73.2111243  51.1293406  81.4138659
  73.6653984  52.2126496  85.7083549  73.5288485  53.4404670  85.6886655
  74.3936359  51.5810883  86.6281557  74.4563023  50.5732989  86.6512367
  75.0791951  52.3395750  87.6657237  74.4188816  53.1007679  88.0812603
  75.5229279  51.4080971  88.7949908  76.2882296  51.9094081  89.3875284
  74.3431842  51.0515727  89.6878066  73.5776155  50.5497777  89.0960245
  74.6778896  50.3883611  90.4854417  73.9278713  51.9608625  90.1223269
  76.0790653  50.2091006  88.2413874  76.3564233  49.6269591  88.9525723
  76.2852751  53.1001604  87.1356890  76.8385889  53.9313300  87.8637246
  76.7073872  52.8372085  85.8984600  76.2632898  52.0983345  85.3722071
  77.8246295  53.5425558  85.2891686  78.4543494  53.9924074  86.0567529
  78.6741960  52.5677363  84.4685502  79.3478820  53.1357905  83.8270193
  79.4856002  51.6725859  85.3868976  78.8125350  51.1038317  86.0284595
  80.0842805  50.9852347  84.7892110  80.1436053  52.2848348  86.0035670
  77.8190006  51.7605485  83.6518503  78.3514111  51.1494304  83.1373855
  77.3888395  54.6984993  84.3992801  78.2437202  55.4651542  83.9436177
  76.0916505  54.8427703  84.1438831  75.4314033  54.1694809  84.5056211
  75.5860745  55.9317649  83.3222131  76.2548532  56.1050677  82.4791233
  74.2006767  55.5799744  82.7821932  74.2177117  54.5531508  82.4168957
  73.4486308  55.6739406  83.5655816  73.7395747  56.4329990  81.6411626
  72.6968579  57.3108252  81.6441171  72.1426975  57.4125942  82.5772029
  72.5702020  57.9005074  80.4108555  71.8796057  58.5924544  80.1571125
  73.5379275  57.4005657  79.5801138  73.8123845  57.6892206  78.2503327
  73.1898845  58.4226173  77.7377690  74.8550422  57.0291260  77.6641605
  75.0981381  57.2284074  76.6204693  75.6218137  56.0997836  78.3731092
  76.4523518  55.5801547  77.8953104  75.3524483  55.8121572  79.6948892
  75.9794393  55.0795411  80.2030788  74.2919078  56.4719006  80.3218791
  75.5300176  57.2028812  84.1579534  74.9642760  57.2051707  85.2559034
  76.1156927  58.2824693  83.6433153  76.5486389  58.2158994  82.7332465
  76.2019539  59.5545548  84.3611505  75.5830343  59.5105409  85.2573093
  77.6425892  59.8520182  84.7766097  78.2550643  59.7987642  83.8765333
  77.6614709  60.8688939  85.1686648  78.1939098  58.8967191  85.8210508
  77.5757956  58.9685294  86.7159692  78.1415166  57.8828358  85.4243169
  79.6342820  59.2287768  86.1727985  80.2394184  59.1447262  85.2701112
  79.6732467  60.2537548  86.5415822  80.1764337  58.2881526  87.2346632
  79.5612451  58.3921492  88.1284351  80.0995745  57.2682056  86.8579671
  81.5933215  58.5862172  87.5713461  81.6646935  59.5311349  87.9208261
  81.9142947  57.9405297  88.2785687  82.1636049  58.4894919  86.7433847
  75.6576344  60.6637865  83.4724327  76.4206388  61.3859907  82.8197325
  74.3398237  60.8272889  83.4239799  73.2824445  60.1094385  84.0596355
  73.5578750  59.9711709  85.1051595  73.2032471  59.1369964  83.5736486
  72.0296188  60.9406312  83.8940181  71.9260101  61.6530629  84.7124345
  71.1454773  60.3044840  83.8526416  72.2535992  61.6544147  82.5551391
  71.7384551  62.6130511  82.4939676  71.9858964  61.0430344  81.6933683
  73.7569226  61.8767919  82.5862712  74.1229706  61.7498683  81.5674496
  74.1312231  63.2612271  83.0895280  74.4341698  63.4673170  84.2661733
  74.1063806  64.2208627  82.1705822  73.9197268  64.0120018  81.2002025
  74.4027810  65.5975472  82.5350316  75.3642482  65.6470966  83.0461332
  74.4682351  66.4751186  81.2850511  75.0053809  67.3606866  81.6246729
  75.0685358  65.9491275  80.5427086  73.1363238  66.8955973  80.6587381
  72.3714817  66.1726188  80.9423213  72.7275845  68.2746802  81.1330655
  73.4917706  68.9983269  80.8494216  71.7782664  68.5507784  80.6740823
  72.6181390  68.2688402  82.2175414  73.2186548  66.8645636  79.1431054
  73.4582279  65.8539676  78.8123490  72.2605893  67.1671124  78.7204046
  73.9963423  67.5502978  78.8068468  73.3487078  66.1191277  83.5054545
  72.1711786  65.7594123  83.4324013  73.7840085  66.9732639  84.4230566
  74.7436282  67.2876973  84.4040547  72.9211271  67.4525183  85.4949595
  72.6057454  66.6214242  86.1257655  73.6843101  68.4559647  86.3556964
  74.5394737  67.9487322  86.8023614  74.0359257  69.2682042  85.7195098
  72.8349457  69.0431828  87.4662013  71.6566847  68.7197704  87.6044454
  73.4335892  69.9184613  88.2659978  72.9164451  70.3419896  89.0231541
  74.4031988  70.1564823  88.1133417  71.6647969  68.0973209  84.9150819
  71.7769567  69.0306029  84.1086788  70.4635700  67.6601731  85.3068036
  70.1075515  66.5723299  86.1536264  70.1106062  66.9214899  87.1861855
  70.8502366  65.7833434  86.0352280  68.7334413  66.1450009  85.6891945
  68.1867961  65.6554476  86.4951819  68.8056278  65.4692146  84.8370188
  68.0694584  67.4676196  85.2845569  67.6408335  68.0408694  86.1066058
  67.3091593  67.3046531  84.5206938  69.2493909  68.2199854  84.6898325
  69.2863508  67.9729325  83.6288438  69.1026095  69.7214743  84.8540377
  68.2899699  70.3236798  84.1423415  69.8462981  70.3474856  85.7639647
  70.4356122  69.8090763  86.3827729  69.7938509  71.7925680  85.9437060
  68.8269171  72.1726404  85.6140347  69.9829669  72.1512077  87.4200981
  70.4792045  71.3215055  87.9235279  70.6078184  73.0418543  87.4865005
  68.6706632  72.4276079  88.1219364  67.8447008  73.1959271  87.6319602
  68.4698001  71.8009476  89.2742541  67.6104786  71.9500785  89.7835931
  69.1771648  71.1777348  89.6366652  70.8232667  72.5390684  85.1068384
  70.9152561  73.7655873  85.2200441  71.5936910  71.8450311  84.2730720
  71.5302278  70.8386582  84.2157547  72.5848986  72.5211796  83.4515904
  73.2607584  73.0961789  84.0845899  73.4041796  71.5028716  82.6614768
  73.8429371  70.7892566  83.3588611  72.7413237  70.9775566  81.9738969
  74.4336022  72.1401884  81.9293134  74.9341225  71.4819270  81.4416955
  71.8976345  73.4997430  82.5061045  70.7512004  73.3010250  82.0958348
  72.6131673  74.5730769  82.1616629  73.5764278  74.6745723  82.4478923
  71.9943808  75.6642890  81.4150891  71.1754842  76.0939575  81.9920576
  73.0229419  76.7584403  81.1382931  72.5312923  77.5929938  80.6383928
  73.4734414  77.1067079  82.0677338  74.1472683  76.3317175  80.2520161
  75.2055028  75.5439447  80.5913430  75.2358294  75.1776069  81.6174895
  76.0390316  75.3785124  79.5131024  76.8893122  74.8335105  79.5033388
  75.5268234  76.0717092  78.4494878  76.0077872  76.2055496  77.1533576
  76.9366802  75.7005246  76.8883928  75.2786709  76.9688848  76.2856804
  75.6254196  77.0966514  75.2602337  74.0918758  77.5937460  76.6831120
  73.5182683  78.2009567  75.9828484  73.6114604  77.4613091  77.9707729
  72.6801962  77.9649913  78.2299097  74.3356151  76.6865341  78.8795659
  71.3716646  75.1851487  80.1110903  70.3878658  75.7714897  79.6463858
  71.9254519  74.1340674  79.5022638  72.7423739  73.6761591  79.8804938
  71.3889313  73.6542990  78.2327892  71.5082959  74.4199267  77.4661957
  72.1320813  72.3953470  77.7857390  71.9943854  71.7003986  78.6141023
  71.6261938  72.0096265  76.9006416  73.6230412  72.5489783  77.4930839
  74.1027234  73.0435057  78.3377427  74.2591080  71.1912578  77.2755266
  73.7802275  70.6962812  76.4306772  75.3218210  71.3163729  77.0679496
  74.1335488  70.5829067  78.1712074  73.8349794  73.4343474  76.2824561
  73.4075061  74.4188739  76.4723867  74.9026706  73.5339565  76.0869704
  73.3474881  72.9882289  75.4156057  69.8977971  73.3759447  78.3418247
  69.1317772  73.6653635  77.4163691  69.4676841  72.8156677  79.4715218
  70.1166629  72.5710498  80.2057479  68.0638406  72.4767763  79.6504473
  67.6865996  71.9671082  78.7638658  67.8992914  71.5501871  80.8530631
  68.6675565  71.8237492  81.5762725  66.9144975  71.7274607  81.2853304
  68.0381557  70.0879701  80.5002684  69.2853421  69.5253240  80.2757476
  70.1695110  70.1568929  80.3621509  69.4193176  68.1931929  79.9485609
  70.4058915  67.7623137  79.7779238  68.2970393  67.4062763  79.8387590
  68.4268670  66.0764776  79.5131071  69.3400151  65.8087815  79.3862251
  67.0463563  67.9415422  80.0517861  66.1571191  67.3174770  79.9629025
  66.9227855  69.2745276  80.3790798  65.9356969  69.7051790  80.5472928
  67.1884570  73.7115140  79.8127626  65.9653760  73.6094881  79.6726038
  67.7803131  74.8669531  80.1104486  68.7848929  74.8927991  80.2116945
  67.0303385  76.0954112  80.3430144  65.9929158  75.8589950  80.5795745
  67.6355233  76.8687836  81.5166977  68.7111571  76.9770655  81.3774633
  67.1784832  77.8553545  81.5934586  67.4405390  76.2028268  82.8410567
  66.2125536  76.1262524  83.4608198  66.3414207  75.4863544  84.6089199
  65.4770178  75.3225321  85.2524018  67.6079046  75.1443120  84.7561150
  68.0017575  74.6436768  85.5399161  68.3164505  75.5804792  83.6637932
  69.3880444  75.3919893  83.5985299  66.9891084  76.9978892  79.1187074
  65.9412471  77.5749411  78.8175135  68.1015406  77.1288904  78.4036596
  68.9544472  76.6894710  78.7191912  68.1499772  77.9451759  77.1949641
  67.6655962  78.8971881  77.4120977  69.6037135  78.2141148  76.8069541
  70.0995864  77.2708909  76.5777406  69.6325753  78.8615411  75.9305373
  70.1171569  78.7019725  77.6354889  67.4154513  77.3088532  76.0277032
  67.4678492  77.8490695  74.9182755  66.7422521  76.1809851  76.2423454
  66.8343770  75.7362984  77.1444907  65.9415131  75.5145496  75.2214268
  65.4748475  74.6257239  75.6460575  64.8412713  76.4415514  74.6964129
  65.3227466  77.1847873  74.0608964  64.1667989  75.8321011  74.0949502
  64.0518880  77.1435724  75.7867292  64.7224011  77.8206729  76.3159248
  63.2524127  77.7174584  75.3181184  63.4544319  76.1535636  76.7693211
  62.8719866  75.4203757  76.2113856  64.2679544  75.6495926  77.2911389
  62.5597854  76.8472657  77.7787087  62.3933086  76.1667596  78.6137521
  63.0733556  77.7401726  78.1351664  61.2513262  77.2320889  77.1846088
  60.7750885  76.4047961  76.8546332  60.6852580  77.6897224  77.8847790
  61.4053406  77.8629977  76.4110892  66.7853152  75.0012338  74.0617639
  66.2779210  74.8353993  72.9490380  68.0716356  74.7406642  74.2931712
  68.5073329  74.9968858  75.1675954  68.8993741  74.1318221  73.2619867
  68.6194090  74.5190915  72.2823229  70.3725744  74.4548534  73.5122314
  70.5986209  73.9624812  74.4580495  70.9733506  74.0100173  72.7189542
  70.6981031  75.9451468  73.6231091  70.2147413  76.3471299  74.5135426
  72.1964369  76.1590082  73.7214617  72.6804776  75.7576680  72.8311081
  72.4073941  77.2255436  73.7995641  72.5797639  75.6477240  74.6044958
  70.1248001  76.7120527  72.4446017  69.0418492  76.5901411  72.4232819
  70.3689479  77.7695834  72.5452090  70.5514798  76.3277286  71.5181362
  68.7103696  72.6234288  73.1787950  69.0780030  72.0234069  72.1639057
  68.1438198  72.0021355  74.2123254  67.9929844  72.5208121  75.0657435
  67.7603680  70.5951147  74.1812763  67.8049139  70.2317477  73.1545927
  68.6933045  69.7415775  75.0429560  68.5543427  70.1348620  76.0499894
  68.3269565  68.7158742  75.0002733  70.1790378  69.7665800  74.6873223
  70.5459950  70.7908584  74.7528734  70.9586327  68.8885689  75.6461223
  70.5925287  67.8639717  75.5807974  72.0163604  68.9133144  75.3840145
  70.8283672  69.2561952  76.6639544  70.4003385  69.3089063  73.2606542
  69.8658045  69.9706942  72.5791781  71.4655717  69.3353835  73.0311366
  70.0291334  68.2907888  73.1434255  66.3284148  70.4838184  74.6785260
  66.0514378  70.7789748  75.8446518  65.4279960  70.0599282  73.8067003
  65.6940410  69.8005745  72.8675225  64.0190796  69.9940979  74.1681003
  63.6922737  70.9558749  74.5634255  63.1738218  69.6576661  72.9442984
  63.2818666  70.4699680  72.2255555  63.5667765  68.7369602  72.5130360
  61.7081824  69.4723775  73.2798683  61.2743431  69.9544569  74.3472013
  60.9880158  68.8477102  72.4738205  63.8223913  68.9464595  75.2567153
  64.1622947  67.7763923  75.0410364  63.2863299  69.3051541  76.4268628
  63.1986995  70.5965709  76.9744071  62.5688717  71.1939640  76.3152117
  64.2041353  71.0170289  76.9947264  62.6098000  70.4435739  78.3584913
  61.5208963  70.4763729  78.3222673  62.9744582  71.2267062  79.0231940
  63.1138202  69.0667651  78.8067225  62.4826587  68.5546769  79.5330144
  64.1310613  69.1326829  79.1926955  63.1069784  68.3071406  77.4895199
  63.9913810  67.6700709  77.4810067  61.8633287  67.4477898  77.3396643
  61.7645703  66.4164035  78.0186275  60.9159008  67.8286245  76.4834929
  61.0269270  68.6570110  75.9164407  59.6625607  67.0886038  76.3886776
  59.3183799  66.8062381  77.3836191  58.5909354  67.9601211  75.7295125
  58.5517116  68.9174481  76.2492104  58.8667536  68.1238478  74.6877745
  57.3198311  67.3387304  75.7888704  56.6672325  67.9044162  75.3696874
  59.8448670  65.7881218  75.6136311  59.6221316  64.6973410  76.1494475
  60.2467361  65.8847569  74.3524980  60.4266093  66.7819552  73.9249699
  60.4004210  64.6896470  73.5380365  59.5055493  64.0717285  73.6120668
  60.6189456  65.0585341  72.0719897  61.6468624  65.3965123  71.9406200
  60.3629999  63.8571428  71.1777699  59.3350707  63.5188605  71.3082543
  60.5232516  64.1376974  70.1367571  61.0467994  63.0517606  71.4458710
  59.7256910  66.1171681  71.7049893  59.8642977  66.3477713  70.7834631
  61.5772605  63.8590510  74.0505715  62.6333680  64.4117551  74.3713708
  61.4330757  62.5324123  74.1393724  60.3453835  61.7011923  73.8144170
  59.9771747  62.0065263  72.8349816  59.5688065  61.8656417  74.5614000
  60.8623849  60.2798104  73.8233650  61.2561456  60.0044021  72.8449981
  60.0736846  59.5827077  74.1063862  61.9695879  60.3131160  74.8833128
  62.7606216  59.5757434  74.7467607  61.5539421  60.2177805  75.8864326
  62.5280383  61.7128813  74.6842144  62.7645784  62.1088023  75.6718346
  63.7844266  61.7049071  73.8279417  64.8256292  61.2351597  74.3031684
  63.7257120  62.2004033  72.5904393  62.8969394  62.6803487  72.2696781
  64.8177578  61.9998009  71.6453189  65.0889162  60.9496887  71.5365215
  64.4160495  62.5506571  70.2626527  63.4683584  62.1021253  69.9646593
  64.2672194  64.0609413  70.3128252  65.2147046  64.5102407  70.6103197
  63.9833793  64.4315060  69.3278292  63.4965845  64.3267748  71.0363969
  65.4375605  62.1451412  69.2141867  65.4920566  61.0578180  69.1607026
  65.1397405  62.5416705  68.2435336  66.4149679  62.5445203  69.4848748
  66.1212969  62.6334808  72.1097376  67.1878776  62.2905602  71.5903061
  66.0715028  63.5494241  73.0786619  65.2114823  63.7622978  73.5635834
  67.2671395  64.3125128  73.4229330  67.6847684  64.7699281  72.5260179
  66.9259982  65.4173027  74.4205756  67.7356471  66.1459204  74.4616121
  66.0027698  65.9169659  74.1271714  66.7212742  64.9264584  75.8173623
  65.4917597  64.5326391  76.2961383  65.6133751  64.1520650  77.5556950
  64.7459829  63.8058574  78.1177182  66.8790466  64.2811248  77.9086570
  67.2678237  64.0627794  78.8149006  67.5942727  64.7640460  76.8402190
  68.6657977  64.9393437  76.9361675  68.3751458  63.4414623  73.9985745
  69.5400656  63.8522260  73.9743030  68.0500979  62.2561846  74.5181277
  67.0874088  61.9640963  74.6076447  69.0913413  61.3818577  75.0512372
  69.6963965  61.9033727  75.7928770  68.4719049  60.1246937  75.6871680
  67.8117497  59.6462785  74.9636941  69.5647186  59.1517277  76.0958112
  70.2250504  59.6293075  76.8196760  69.1144088  58.2662698  76.5444603
  70.1399019  58.8605153  75.2169149  67.6074708  60.4995152  76.8933892
  66.8805680  61.2347435  76.5482045  67.0872700  59.5941529  77.2061345
  68.3832312  61.0681913  78.0676968  68.9033613  61.9738943  77.7558208
  67.6941124  61.3063053  78.8779537  69.1100653  60.3333039  78.4137494
  70.0861294  61.0193295  73.9590454  71.3000654  60.9788934  74.1913071
  69.5908466  60.7388237  72.7522992  68.5966713  60.6557871  72.5947564
  70.4917792  60.4782974  71.6358636  71.1857053  59.6786686  71.8950153
  69.6914463  60.0509104  70.4052127  68.7349749  60.5618970  70.5154597
  70.2004156  60.4216373  69.5154870  69.4525215  58.5476797  70.2659203
  70.4139264  58.0500004  70.1389691  68.7567655  57.9952608  71.4912945
  67.7950140  58.4921656  71.6186465  68.5980986  56.9239803  71.3676682
  69.3754096  58.1712368  72.3713016  68.6424515  58.2570145  69.0214001
  69.1823873  58.6136825  68.1442703  68.4802668  57.1825732  68.9355317
  67.6803235  58.7651051  69.0866126  71.3435965  61.7037084  71.3295810
  72.5616105  61.5970466  71.1424818  70.7204560  62.8844911  71.2821554
  69.7215508  62.9654830  71.4075675  71.4788452  64.0918970  70.9709710
  71.9743678  63.9807167  70.0065045  70.5473141  65.2993345  70.9044476
  69.9202131  65.2799552  71.7957770  71.1687071  66.1947688  70.9174186
  69.6683125  65.3122130  69.6684511  70.2865936  65.0627644  68.8061260
  68.8941473  64.5547643  69.7910959  69.0218945  66.6631381  69.4513561
  68.2631517  66.5783413  68.6733987  68.5546208  66.9919955  70.3795843
  70.0005469  67.6618409  69.0420432  70.8521441  67.3201355  68.6200017
  69.8485664  68.9700517  69.1894700  68.7549354  69.4832418  69.7275714
  68.0128596  68.8716059  70.0363191  68.6668384  70.4844382  69.8272930
  70.8169778  69.7841046  68.7829013  71.6541333  69.4004081  68.3681149
  70.7114252  70.7827893  68.8905403  72.5831331  64.3117914  71.9929303
  73.6995960  64.7033594  71.6375207  72.2914934  64.0634644  73.2697169
  71.3427042  63.8881931  73.5683446  73.3399421  64.0926604  74.2813734
  73.7930345  65.0833996  74.3166216  72.7593424  63.7714241  75.6594881
  72.2349462  62.8199373  75.5712802  73.6012932  63.6596937  76.3426684
  71.8087169  64.8244134  76.1969996  72.3673750  65.7533507  76.3113564
  71.0136034  64.9669618  75.4651706  71.2029326  64.4314406  77.5313695
  71.3775652  63.2655552  77.9423301  70.5519030  65.2869563  78.1667862
  74.4379494  63.1044305  73.9140907  75.6131028  63.4666214  73.7964760
  74.0582223  61.8394093  73.7235636  73.0842275  61.5841857  73.8029014
  75.0300841  60.7845316  73.4632875  75.7627289  60.7229468  74.2679850
  74.3041467  59.4357126  73.3271329  73.4461819  59.5583715  72.6661098
  75.2365729  58.3923001  72.7538993  76.0946143  58.2687439  73.4146561
  74.7086785  57.4429662  72.6633814  75.5794843  58.7120197  71.7698818
  73.7767842  58.9787791  74.6865639  74.5851011  58.4467364  75.1882163
  73.5230237  59.8731235  75.2556448  72.5648474  58.0807940  74.5931678
  72.8179810  57.1859584  74.0245795  72.2452977  57.7954811  75.5954571
  71.7559040  58.6123453  74.0920056  75.8358953  61.1087832  72.2175045
  77.0016617  60.7159423  72.0967284  75.2267579  61.8176237  71.2675693
  74.2495773  62.0618341  71.3422603  75.9591538  62.2591800  70.0933810
  76.3633526  61.3791205  69.5931632  75.2611599  62.7665019  69.4274018
  77.0979930  63.2038069  70.4272168  78.1850236  63.1081274  69.8518423
  76.8674773  64.1273575  71.3574780  75.9753643  64.1320696  71.8309877
  77.8362184  65.1584541  71.7002937  78.4975670  65.3529570  70.8559681
  77.0983202  66.4520624  72.0515297  76.3492331  66.1402973  72.7793830
  77.8066514  67.1300839  72.5276112  76.4125630  67.1665005  70.8905778
  76.0600440  66.4259024  70.1727020  75.2361497  67.9776857  71.3984296
  75.5879681  68.7188564  72.1160567  74.7543483  68.4831619  70.5614936
  74.5193909  67.3149013  71.8832740  77.4011043  68.0445773  70.1648450
  78.2151219  67.4323482  69.7767080  76.9009954  68.5495311  69.3383985
  77.8026069  68.7873193  70.8542135  78.7411868  64.7796483  72.8654102
  79.5560370  65.6052930  73.2896083  78.6260999  63.5647768  73.3914140
  77.9686805  62.9108282  72.9911013  79.3527704  63.1672738  74.5950179
  78.9945371  62.1901863  74.9191598  80.8582524  63.0800607  74.3551368
  81.1828302  64.0514783  73.9821805  81.3283566  62.8860213  75.3192170
  81.2595310  62.0061464  73.3753606  80.5555640  61.1775257  73.4522960
  81.2259329  62.4183116  72.3668503  82.6615363  61.5073073  73.6710069
  83.3719767  62.3140397  73.4905735  82.7177126  61.2012723  74.7156533
  83.0216619  60.3715402  72.8316930  82.4128491  60.1665565  72.0523163
  84.0879388  59.6053257  73.0205554  84.9245262  59.8187399  74.0228048
  84.7555349  60.5804383  74.6641764  85.7283908  59.2189996  74.1420231
  84.3158902  58.5955353  72.1870625  83.6790706  58.4221995  71.4225263
  85.1248909  58.0061265  72.3220216  79.0520891  64.1024136  75.7604545
  79.9294670  64.4296191  76.5605712  77.8015373  64.5433532  75.8539554
  77.1436994  64.4101207  75.0992384  77.3626826  65.2778835  77.0290353
  78.1887910  65.8691151  77.4241167  76.2103888  66.2230043  76.6733238
  75.4776301  65.5748424  76.1926471  75.7982123  66.6071367  77.6064116
  76.5447634  67.3941980  75.7423271  76.8711946  67.0004032  74.7797944
  75.3281124  68.2750607  75.5409984  75.0013537  68.6696243  76.5031040
  75.5830254  69.1015101  74.8775970  74.5236455  67.6885017  75.0972845
  77.6963744  68.2287161  76.2741097  78.5846614  67.6042336  76.3693312
  77.9009139  69.0478087  75.5846518  77.4314415  68.6340409  77.2506451
  76.9410880  64.3100368  78.1170149  77.0693763  64.6142669  79.3071124
  76.4462263  63.1442009  77.7134895  76.2734762  63.0298127  76.7249694
  76.1187705  62.0402069  78.6034090  76.3389070  62.3301851  79.6308095
  74.6409082  61.6584071  78.5093710  74.3538397  61.6278290  77.4582973
  74.5060016  60.6711399  78.9511896  73.8296843  62.5954806  79.1925592
  72.9086646  62.3347782  79.1193697  77.0073988  60.8808085  78.1871182
  77.0940497  60.5628811  76.9999338  77.6605419  60.2471689  79.1547260
  77.5280006  60.4847709  80.1273911  78.6318708  59.2194219  78.8231081
  78.3587093  58.7457677  77.8801693  80.0311730  59.8246071  78.6793957
  80.7118398  59.1178038  78.2048212  79.9785124  60.7346619  78.0817945
  80.6523973  60.2057529  79.9855972  81.7038485  59.5108760  80.5420193
  82.0420431  60.0734803  81.6878089  82.8656061  59.6739924  82.2796301
  81.2395950  61.0993449  81.9020609  81.2598859  61.7131977  82.7038544
  80.3609372  61.2041916  80.8517058  79.6128479  61.9969112  80.8440079
  78.6473786  58.1264502  79.8732040  78.1309780  58.2859486  80.9835155
  79.2603716  57.0055376  79.4946758  79.5709203  56.9289980  78.5366564
  79.4601328  55.8666527  80.3775363  78.7785774  55.8918395  81.2277997
  79.2261603  54.5655925  79.6003477  79.6163340  54.6712641  78.5880740
  78.1576275  54.3547099  79.5571480  79.9378930  53.0499930  80.2670317
  80.8729772  55.9448624  80.9468508  81.8459584  56.0151286  80.1928712
  80.9744736  55.9289687  82.2793488  80.1536568  55.8588326  82.8636775
  82.2755490  56.0768284  82.9274703  82.7967126  56.9432734  82.5203330
  82.0984455  56.2759040  84.4293888  83.0695441  56.5055684  84.8679329
  81.4194592  57.1127731  84.5928749  81.5693155  55.1138676  85.0384034
  81.4676654  55.2646361  85.9810253  83.1877116  54.8873159  82.6687652
  84.4118162  55.0505611  82.6130971  82.6193970  53.6951246  82.5061943
  81.6201639  53.5723243  82.5871428  83.4438643  52.5159903  82.2716308
  84.1947103  52.4185561  83.0557457  82.5639281  51.2653924  82.2795698
  82.0944550  51.1441455  83.2557837  81.7926417  51.3480743  81.5138146
  83.3080394  49.9980570  82.0022806  83.7076332  49.1338592  82.9986224
  84.3410840  48.1079093  82.4613441  84.7373802  47.3099537  83.0892894
  84.3674667  48.2737653  81.1507608  84.7868329  47.6460980  80.4797424
  83.7271669  49.4486093  80.8379369  83.6430390  49.7632075  79.7977197
  84.2099624  52.6379144  80.9608211  85.3948966  52.2942393  80.8920578
  83.5469361  53.1215108  79.9091459  82.5636878  53.3431245  79.9740313
  84.2113336  53.2923620  78.6205199  84.8866935  52.4516392  78.4618565
  83.1714321  53.3013376  77.5009752  83.6764334  53.3334356  76.5355512
  82.5320479  54.1779246  77.6052968  82.1165965  51.8300202  77.4466076
  85.0444437  54.5723071  78.5671820  86.1308024  54.5801038  77.9786839
  84.5630069  55.6541170  79.1756318  83.6718224  55.5969092  79.6474545
  85.2498455  56.9464620  79.1440397  86.2425427  56.8543170  78.7034028
  84.4522929  57.9859155  78.3435428  83.5963172  58.3116048  78.9345854
  85.3279224  59.1834770  78.0188379  86.1839263  58.8586255  77.4273738
  84.7505319  59.9131211  77.4510878  85.6786804  59.6394462  78.9446686
  83.9051798  57.3776450  77.0739321  83.2471531  56.5452685  77.3234363
  83.3435266  58.1313308  76.5220236  84.7294616  57.0167338  76.4587870
  85.4757409  57.4236423  80.5742104  84.6614930  58.1875189  81.1117287
  86.5611525  57.0010921  81.2242427  87.5012950  56.0453361  80.8364135
  87.9006452  56.3465416  79.8679638  86.9829244  55.0919210  80.7344793
  88.5584549  56.0138135  81.9156745  89.3428935  56.7423542  81.7107752
  88.9986091  55.0199649  81.9971027  87.7787426  56.3729374  83.1864155
  88.3499258  56.8402166  83.9885993  87.2724708  55.4870961  83.5699174
  86.7578551  57.3571419  82.6377640  85.8115867  57.1517882  83.1382680
  87.1729578  58.7992912  82.9088156  86.9459211  59.2678695  84.0304014
  87.7573729  59.5291753  81.9533549  87.8333152  59.1730427  81.0112818
  88.3391431  60.8428070  82.2492082  88.0729708  61.1517870  83.2600410
  89.8624381  60.7709071  82.1456143  90.1014607  60.6258185  81.0920884
  90.2479302  61.7355872  82.4755966  90.5016424  59.6615119  82.9678351
  90.0142747  58.7239198  82.7004500  91.5567674  59.6115293  82.6989208
  90.3712723  59.8906426  84.4611123  90.8319590  60.8455027  84.7143100
  89.3138397  59.9168757  84.7242614  91.0590992  58.7744809  85.2354160
  90.5421854  57.8416329  85.0102597  92.0902984  58.7108521  84.8880276
  91.0446170  59.0068781  86.7046239  90.0891706  59.0654395  87.0267921
  91.5109228  58.2419637  87.1710624  91.5239245  59.8710134  86.9135102
  87.8100523  61.9238194  81.3011881  88.5783232  62.6224210  80.6425564
  86.4892473  62.0666982  81.2225575  85.8709504  61.4143189  81.6832195
  85.8971856  63.1331045  80.4210615  86.5236654  63.3436760  79.5542963
  84.5152185  62.7050641  79.9319160  84.6738970  61.7085717  79.5196984
  83.8773164  62.6358503  80.8130461  83.8411303  63.5874684  78.8840932
  83.7585274  64.6001301  79.2788006  84.6442076  63.6104979  77.5987273
  84.7268518  62.5981808  77.2031480  84.1434167  64.2457598  76.8681442
  85.6406663  64.0041366  77.7992743  82.4430327  63.0692545  78.6180586
  81.8644208  63.0927996  79.5415051  81.9584995  63.6969784  77.8702007
  82.4985853  62.0445145  78.2507428  85.8110036  64.4310179  81.2245778
  85.3253828  64.4348810  82.3600934  86.2789811  65.5324180  80.6349697
  86.7452939  65.4755525  79.7408679  86.1660449  66.8417672  81.2758254
  86.6066458  66.8020559  82.2720147  86.8969648  67.9083780  80.4606270
  86.6715509  67.7110285  79.4126093  86.4710488  68.8695072  80.7485961
  88.4061011  67.9432949  80.6568374  88.7684616  68.9162170  80.3248461
  88.5943818  67.8310394  81.7245679  89.1302131  66.8497716  79.8991043
  88.4721508  66.1075930  79.1417200  90.3644860  66.7420675  80.0552973
  84.7016571  67.2465998  81.4418275  83.9480352  67.2259023  80.4595288
  84.2565581  67.6171081  82.6443829  84.9098489  67.7142878  83.9032448
  85.8454980  68.2516760  83.7487292  85.1251588  66.7010456  84.2424806
  83.9673458  68.4449300  84.8320584  84.1164154  69.5226783  84.7662114
  84.1112534  68.1210617  85.8628355  82.5799561  68.0390655  84.3193157
  81.8106097  68.7862373  84.5140962  82.2544286  67.0736121  84.7066543
  82.8357833  67.9384955  82.8244137  82.2470068  67.0999205  82.4526175
  82.4384246  69.2049503  82.0815466  83.2512464  70.1020132  81.8522241
  81.1674347  69.2674301  81.7072008  80.5651025  68.4659436  81.8293267
  80.6131633  70.4615265  81.0620254  81.3689258  70.9475350  80.4450020
  79.4101948  70.0984639  80.1994587  78.9848226  71.0073019  79.7738154
  79.8388298  69.1709591  79.0821839  80.2639094  68.2616342  79.5070794
  78.9742516  68.9154411  78.4695538  80.5873565  69.6671105  78.4644130
  78.3116447  69.4390389  81.0357693  77.9999312  68.5350656  80.5125412
  78.7492681  69.1692865  81.9969243  77.1114473  70.3294474  81.2612065
  76.6729796  70.5992570  80.3004523  76.3722106  69.7987005  81.8611532
  77.4223173  71.2334796  81.7848337  80.2327758  71.4772516  82.1384793
  79.5633473  71.1048932  83.1137914  80.6328466  72.7462931  82.0195133
  81.2488626  73.4459738  80.9425489  80.8035572  73.0818234  80.0166991
  82.3107528  73.2003741  80.9555499  80.9951789  74.9189801  81.1686705
  80.0514398  75.2238482  80.7164415  81.8059129  75.5194702  80.7560891
  80.9482988  75.0386636  82.6975106  80.3246131  75.8636840  83.0416857
  81.9366707  75.1176147  83.1502659  80.3079753  73.7132207  83.0777801
  80.7779763  73.3822737  84.0038855  78.8048940  73.8301599  83.2861398
  78.0221095  73.7884950  82.3350807  78.4045825  73.9796831  84.5520334
  79.0683633  74.0025391  85.3129356  76.9823405  74.0626821  84.8714655
  76.4563790  73.2070116  84.4480369  76.7782652  74.0606863  86.3864923
  77.3351331  74.9099744  86.7823547  75.7132174  74.2111251  86.5629612
  77.2316173  72.7900392  87.0824642  76.6089659  72.6538111  87.9666858
  77.0713906  71.9599066  86.3944915  78.6902838  72.8309901  87.4934243
  79.3638140  73.8465861  87.2176930  79.1654141  71.8453510  88.0952837
  76.3430402  75.3050891  84.2677529  75.2257618  75.2443983  83.7427991
  77.0339194  76.4432233  84.3361443  77.9796341  76.4173549  84.6897737
  76.4786276  77.7288743  83.9471793  75.6254153  77.5764286  83.2862040
  76.0092031  78.5110827  85.1815490  75.4866599  77.8313892  85.8546497
  76.8671106  78.9433670  85.6965490  75.0702226  79.6363468  84.8972504
  75.3832845  80.9576833  84.8122502  76.4295830  81.2250680  84.9601170
  74.2590853  81.6944739  84.5467507  74.2258495  82.6978053  84.4357514
  73.1864813  80.8482157  84.4541834  71.8495887  81.1227552  84.1971385
  71.5516067  82.1587155  84.0356091  70.9869659  80.0668804  84.1631350
  69.9297162  80.2435290  83.9653517  71.4269521  78.7572239  84.3766510
  70.7282536  77.9211630  84.3462867  72.7537546  78.4829504  84.6314334
  73.0460041  77.4449791  84.7905138  73.6606933  79.5425738  84.6719981
  77.5472206  78.5149527  83.1996970  78.7280247  78.4499742  83.5693230
  77.1809267  79.2595260  82.1539277  75.8993256  79.5178825  81.5652883
  75.2063434  79.7607635  82.3708222  75.5716883  78.6051023  81.0677090
  76.0908256  80.6650090  80.5981443  75.9622664  81.6227512  81.1024273
  75.3867443  80.5941089  79.7690821  77.5325340  80.4784851  80.1094413
  77.9965048  81.4206832  79.8177343  77.6310679  79.7586629  79.2968856
  78.2015775  79.9395332  81.3638023  78.9453094  79.2095534  81.0442861
  78.8771517  81.0240442  82.1805822  78.2559717  81.6242081  83.0736352
  80.1473621  81.3149259  81.9121956  81.1869692  80.5709029  81.2179321
  81.1298079  80.8060181  80.1551275  81.0068463  79.5058739  81.3641102
  82.4851293  81.0273631  81.8446230  83.3166524  80.8968736  81.1520619
  82.6871588  80.4749519  82.7622979  82.2321012  82.5102856  82.1428017
  82.3632476  83.1297663  81.2555908  82.8327934  82.9128344  82.9584138
  80.7650348  82.4841488  82.5427893  80.7277504  82.3698356  83.6261362
  80.0196746  83.7451305  82.1415594  79.6016725  83.8973999  80.9928761
  79.8534552  84.6568994  83.1005988  80.2825354  84.5595642  84.0097277
  78.9756374  85.7973222  82.8692941  77.9905426  85.4484799  82.5594609
  78.8220988  86.6222687  84.1483242  78.3070196  87.5176079  83.8002432
  78.1670002  86.0635669  84.8167538  80.0918230  87.0244760  84.8985506
  80.7514447  86.1584183  84.9528090  80.8105996  88.1648909  84.1983456
  80.1517240  89.0315171  84.1441161  81.7089844  88.4265612  84.7573932
  81.0875888  87.8560746  83.1903724  79.7436893  87.4055387  86.3262712
  79.2822583  86.5548124  86.8277148  80.6511172  87.6916701  86.8580649
  79.0473841  88.2441167  86.3195628  79.4717544  86.6826712  81.7353955
  78.7013922  87.5033938  81.2241709  80.7333947  86.5363090  81.3238645
  81.3762108  85.9161965  81.7954016  81.2313905  87.3277684  80.2054647
  81.0578036  88.3828940  80.4168336  82.7326990  87.1048757  80.0341008
  82.9216693  86.0544195  79.8128949  83.1005545  87.7203957  79.2131759
  83.2487722  87.3805221  80.9537675  80.4964777  86.9937515  78.9145871
  80.3431250  87.8604801  78.0468997  80.0346297  85.7520458  78.7664102
  80.1409079  85.0864178  79.5185696  79.4225221  85.2996052  77.5260869
  79.7071953  85.9599384  76.7069285  79.8926365  83.8784009  77.1956375
  80.9748399  83.8957355  77.0666622  79.6373855  83.2286868  78.0327866
  79.2838483  83.3864742  76.0132179  79.5998195  82.4973107  75.8367237
  77.9020173  85.3296256  77.5712059  77.2668542  85.1305815  76.5311317
  77.3075751  85.5552896  78.7420950  77.8624801  85.6051560  79.5845279
  75.8577842  85.6794959  78.8599433  75.4243324  85.8753564  77.8792000
  75.2484250  84.3880848  79.4155212  74.1632305  84.4734195  79.4718252
  75.5134010  83.5403078  78.7837287  75.8035753  83.9654726  81.0779195
  75.0870102  82.8500857  81.1844325  75.4131623  86.8406053  79.7321074
  74.2787603  87.3035243  79.5705178  76.2472407  87.3284151  80.6474215
  77.1318663  86.8693266  80.8110514  75.9308809  88.5063570  81.4268953
  76.8597766  88.8568240  81.8768117  75.5549042  89.2611392  80.7362111
  74.9107619  88.2858266  82.5157610  74.4682847  89.2568813  83.1358921
  74.5268971  87.0412118  82.7704130  74.9277641  86.2967428  82.2179903
  73.5329689  86.6958418  83.7764107  73.1912550  87.5804900  84.3137453
  72.3118613  85.9924617  83.1611413  72.6462183  85.1045045  82.6246371
  71.3320451  85.5882741  84.2457987  70.9968647  86.4758165  84.7824769
  70.4734029  85.0917176  83.7938411  71.8206316  84.9063679  84.9417791
  71.6416904  86.8951364  82.1406638  72.3496470  87.1363627  81.3477519
  70.7789764  86.3838330  81.7135887  71.3146534  87.8141639  82.6270134
  74.2051183  85.7960687  84.8056442  74.7434139  84.7456271  84.4458812
  74.2103453  86.1478471  86.0873936  73.9838697  87.4233222  86.7028854
  73.0027155  87.7752813  86.3841983  74.7504910  88.1075347  86.3392317
  74.0660342  87.2070797  88.1970518  73.0926642  86.9310773  88.6026039
  74.4267164  88.1050484  88.6987110  75.0750360  86.0609704  88.3341312
  74.8997600  85.4622096  89.2279224  76.1156379  86.3846725  88.3125853
  74.7610863  85.2407841  87.0927972  75.7045432  84.8362064  86.7263218
  73.7963435  84.1022847  87.3683848  72.6165623  84.1783471  86.9977099
  74.2558482  83.0277817  88.0122447  75.5479923  82.7583827  88.5516814
  75.6221616  83.2336217  89.5298159  76.2984615  83.1823409  87.8844824
  75.6326368  81.2504589  88.6306934  76.3384366  80.9417503  89.4018255
  75.9352374  80.8289213  87.6721319  74.2004921  80.8341220  88.9837517
  73.9489668  80.9019885  90.0421600  73.9850069  79.8282347  88.6233954
  73.3927679  81.8520991  88.1942687  73.2165126  81.4267479  87.2062865
  72.0595561  82.1571640  88.8592399  72.0049761  82.5077213  90.0411564
  70.9767606  82.0178467  88.0947829  71.0981763  81.9001567  87.0990386
  69.6148981  82.1050025  88.6218999  68.9028316  82.1337888  87.7971382
  69.2969276  80.8952141  89.4995079  70.0180057  80.8289548  90.3142197
  68.2911611  80.9794875  89.9111288  69.3533397  79.5866735  88.7691682
  68.3825429  79.2530064  87.8430310  67.5709712  79.9533890  87.6457612
  68.4329687  78.0508395  87.1726729  67.6632964  77.7996144  86.4428843
  69.4583352  77.1649976  87.4256103  69.4995847  76.2128828  86.8965774
  70.4303591  77.4831839  88.3466640  71.2427318  76.7850615  88.5485946
  70.3748987  78.6873408  89.0140741  71.1422649  78.9409211  89.7454742
  69.3875366  83.4005918  89.3966419  68.7088175  83.4215830  90.4247254
  69.9572650  84.4952168  88.9014098  70.5465502  84.4391515  88.0830584
  69.7807074  85.7923299  89.5368261  68.8285483  85.8052300  90.0672277
  70.9018270  86.0897696  90.5365948  71.8448788  85.8957094  90.0256222
  70.8350954  87.1489589  90.7851205  70.8383313  85.2689485  91.8066145
  69.9830450  85.5982289  92.3966659  70.7151203  84.2182161  91.5441596
  72.0885486  85.4142466  92.6450119  72.9674807  86.2175828  92.3334779
  72.1780081  84.6353618  93.7160490  72.9921797  84.6917037  94.3110715
  71.4314968  83.9899296  93.9310825  69.7454834  86.8713902  88.4682709
  70.4972491  86.8121277  87.4931262  68.8751266  87.8537237  88.6615838
  68.2343403  87.8462095  89.4422475  68.7974741  88.9552235  87.7172675
  68.6549119  88.5664819  86.7089743  67.6240975  89.8733773  88.0570762
  67.7079302  90.1345655  89.1119942  67.7269671  90.7735769  87.4511400
  66.2676049  89.2419689  87.7985937  66.1881503  89.0234685  86.7336781
  66.2081594  88.3126298  88.3650715  65.1323446  90.1595407  88.2123268
  65.2210475  90.3652466  89.2790582  65.2167137  91.0923033  87.6547112
  63.7841461  89.5224770  87.9307744  63.7044117  89.3550873  86.8566591
  63.7445672  88.5654692  88.4510327  62.6557187  90.3799895  88.3838800
  62.6919604  91.2666634  87.9015984  61.7800991  89.9204770  88.1783595
  62.7291768  90.5348654  89.3792274  70.1071819  89.7379915  87.7372138
  70.7200819  89.8951903  88.7996112  70.5672123  90.2384924  86.5961250
  70.0319580  90.2131087  85.2767511  68.9803002  90.4924776  85.3405414
  70.1141196  89.1916219  84.9053845  70.8442563  91.1915537  84.4577628
  70.4218748  92.1944156  84.5206986  70.8873320  90.8808659  83.4138668
  72.2321639  91.1270221  85.1055955  72.8005716  92.0509285  84.9987837
  72.8288756  90.2899674  84.7431399  71.8677039  90.9104101  86.5654623
  72.6119309  90.2345482  86.9866929  71.8548107  92.2055076  87.3582631
  70.8403283  92.9007550  87.4472046  73.0102423  92.5219730  87.9442473
  73.7893597  91.8792888  87.9499501  73.1602715  93.7966262  88.6370014
  72.2808087  93.9940716  89.2499124  74.3891080  93.7582472  89.5442940
  75.1171557  93.1930076  88.9624435  74.7351378  94.7854750  89.6590384
  74.2311543  93.1181783  90.9209172  73.5991453  93.7613407  91.5332959
  73.6022122  91.7427614  90.8175721  74.2339291  91.0988514  90.2056796
  73.5026982  91.3123742  91.8140482  72.6171346  91.8266798  90.3585730
  75.5892238  93.0357918  91.5940855  76.0026533  94.0384221  91.7032093
  75.4805994  92.5790833  92.5778128  76.2609739  92.4306285  90.9852932
  73.2784506  94.9465215  87.6466760  72.6624465  96.0019822  87.8311501
  74.0639704  94.7578484  86.5906390  74.5291992  93.8721817  86.4518733
  74.3094144  95.8227849  85.6322609  74.6183430  96.7306886  86.1503083
  75.4141793  95.4155308  84.6609233  75.0459281  94.6150944  84.0192125
  75.8279659  96.5940870  83.8089046  76.1967896  97.3948076  84.4499313
  76.6163908  96.2872263  83.1216478  74.9694384  96.9510567  83.2400428
  76.5495393  94.9440739  85.3958218  77.2433359  94.6883863  84.7835551
  73.0345213  96.1542015  84.8640575  72.2121977  95.2833346  84.5743960
  72.8756209  97.4332161  84.5341419  73.5692897  98.1244738  84.7812972
  71.6795054  97.8757661  83.8444780  70.7955739  97.4645531  84.3319902
  71.5878685  99.3980826  83.8726011  71.9110000  99.7478085  84.8530995
  72.2512739  99.8005478  83.1070850  70.2639562  99.8372408  83.6278535
  70.2355562 100.7965342  83.6512929  71.6860999  97.3745098  82.4009335
  72.7450830  97.0995715  81.8345373  70.5070174  97.2425239  81.7821167
  69.1728561  97.4145410  82.2557808  68.9131868  98.4706826  82.1834131
  69.1326885  97.1017127  83.2991523  68.3208427  96.5445453  81.3600428
  67.2960462  96.9139437  81.3221509  68.3216245  95.5119391  81.7090775
  69.0089225  96.6613007  79.9947957  68.7484386  97.5533650  79.4251745
  68.8290279  95.7760014  79.3848918  70.4718418  96.7194802  80.4060524
  70.8375112  95.6932362  80.4408015  71.3063659  97.5205203  79.4215513
  71.9313827  96.9319133  78.5304257  71.3233338  98.8498287  79.5419721
  70.8188931  99.3187200  80.2807413  72.0280559  99.6665786  78.5587522
  71.6628344  99.4431192  77.5563658  71.7915504 101.1486960  78.8454699
  72.1387809 101.3689276  79.8549392  72.3626426 101.7386188  78.1285705
  70.4180857 101.4754381  78.7373391  70.2959532 102.4096478  78.9215554
  73.5196312  99.3588216  78.5441376  74.1293016  99.2464162  77.4742366
  74.1284217  99.2296418  79.7224634  73.6406834  99.4028537  80.5897629
  75.5487043  98.9042680  79.7810744  76.1195239  99.6013442  79.1676016
  76.0420878  99.0054097  81.2213969  75.5127600  98.2540259  81.8073438
  77.1089107  98.7818374  81.2235179  75.8117703 100.3753393  81.8302119
  76.1218075 101.1256963  81.1029277  74.7455719 100.4823689  82.0298808
  76.5875246 100.5684176  83.1159658  76.3395734  99.7687825  83.8139650
  77.6562535 100.5456005  82.9028992  76.2620329 101.8471317  83.7358539
  76.8141369 102.6451139  83.4556666  75.3056495 102.0243870  84.6380720
  74.5513064 101.0211767  85.0564421  74.6992993 100.0933603  84.6858281
  73.8309469 101.1877971  85.7444970  75.0947194 103.2422486  85.1270686
  75.6609085 104.0158233  84.8090871  74.3692267 103.3884675  85.8143670
  75.8247139  97.5227948  79.2044771  76.8310355  97.3207563  78.5133277
  74.9454895  96.5564973  79.4716318  74.1992941  96.6865697  80.1397432
  75.0825613  95.2514287  78.8328123  76.0414428  94.8065361  79.0987372
  73.9654967  94.3165141  79.2949749  73.0664807  94.9237018  79.1891793
  73.9237597  93.4815420  78.5955612  74.0524186  93.7801175  80.7236460
  74.1168949  94.6182628  81.4175163  72.8217773  92.9502372  81.0456689
  72.7568728  92.1115802  80.3524584  72.8940224  92.5730186  82.0657608
  71.9300069  93.5697003  80.9502157  75.3174296  92.9595780  80.9183844
  76.1895896  93.5841126  80.7250117  75.3565671  92.5888393  81.9426511
  75.3143605  92.1166675  80.2273045  75.0674243  95.3890959  77.3173326
  75.9300834  94.8395549  76.6227011  74.0923458  96.1257513  76.7858858
  73.3761827  96.5487157  77.3588700  74.0047477  96.2861965  75.3403316
  73.9124062  95.3111653  74.8619109  72.7808912  97.1250452  74.9787877
  71.8982385  96.6645911  75.4226406  72.9113388  98.1272899  75.3869406
  72.6153528  97.2054141  73.5739532  71.8413900  97.7365724  73.3728254
  75.2734780  96.9208170  74.7892305  75.7723733  96.5171681  73.7322589
  75.8130897  97.9173345  75.4921799  75.3694415  98.2885864  76.3200976
  77.0535484  98.5343012  75.0368027  76.9563513  98.8221126  73.9899902
  77.3740387  99.7805190  75.8575000  76.4596449 100.3675770  75.9432103
  77.6903736  99.4549141  76.8484660  78.4671205 100.6335698  75.2314467
  79.3547302 100.0119407  75.1138581  78.1204824 100.9602500  74.2510263
  78.8073690 101.8445548  76.0756867  79.6278619 102.3885235  75.6077247
  77.9333406 102.4925071  76.1415022  79.2084601 101.4636516  77.4231880
  79.0518393 100.5037540  77.6955220  79.7568637 102.2898661  78.3038157
  79.9807169 103.5611410  78.0127555  79.7314468 103.9189157  77.1017333
  80.3998169 104.1678294  78.7029613  80.0917596 101.8286221  79.5052534
  79.9263607 100.8590342  79.7346932  80.5099762 102.4500071  80.1828036
  78.2230961  97.5641110  75.1110612  79.1743219  97.6848899  74.3309824
  78.1843584  96.6075438  76.0385592  77.4289559  96.5461780  76.7061675
  79.2777000  95.6499072  76.1425507  80.2325211  96.1632297  76.0289026
  79.2523034  94.9618113  77.5079931  79.3283821  95.7321476  78.2753869
  78.2965236  94.4467552  77.6044406  80.3828618  93.9651068  77.6787649
  81.3436026  94.0069392  76.8840951  80.3113528  93.1388825  78.6121607
  79.2177865  94.6065789  75.0361952  80.2650004  94.1387595  74.5747485
  78.0141816  94.2339875  74.6014401  77.1788454  94.6435121  74.9946352
  77.8644777  93.1938319  73.5935815  78.5517789  92.3725745  73.7966890
  76.4359205  92.6521494  73.6171043  75.7213140  93.4751888  73.6236596
  76.2580385  92.0241591  72.7441288  76.1327506  91.8129420  74.8166030
  74.8469988  91.5014534  75.2000583  74.8841632  90.7543771  76.2892736
  73.9623541  90.4038722  76.7535078  76.1472894  90.5679362  76.6235593
  76.4805493  90.0343328  77.4136891  76.9489867  91.2203238  75.7189196
  78.0330732  91.1850211  75.8266755  78.2043774  93.6868204  72.1939793
  78.4204430  92.8635199  71.2984041  78.2566249  95.0033903  71.9853863
  78.0436936  95.6466405  72.7343782  78.5647168  95.5511662  70.6713213
  77.9224886  95.0582596  69.9414684  78.2689615  97.0491720  70.6486638
  78.9108911  97.5577049  71.3679834  78.4599139  97.4426854  69.6502728
  77.2246769  97.2178869  70.9115406  80.0089432  95.3128698  70.2576800
  80.3454692  95.5459855  69.0927408  80.8666249  94.8634253  71.1736536
  80.5694164  94.7207681  72.1283344  82.2621556  94.6123814  70.8399950
  82.6088772  95.3220499  70.0888266  83.1363637  94.7538073  72.0859007
  84.1774774  94.5903622  71.8075696  82.9856763  96.1399546  72.6911071
  81.9448375  96.3039636  72.9701331  83.6158009  96.2207203  73.5768379
  83.2881760  96.8906114  71.9609641  82.7578852  93.7697706  73.0543819
  83.3085438  93.8611478  73.8354233  82.4828831  93.2354549  70.2289273
  83.4754552  93.0402954  69.5207887  81.5930293  92.2832775  70.4823838
  80.8170255  92.4528816  71.1062043  81.7379449  90.9565293  69.9081358
  82.7692106  90.6191003  70.0117301  80.8246260  89.9628700  70.6251370
  79.8195503  90.2693588  70.3353325  81.0252955  88.9640837  70.2375060
  80.9330259  89.9485355  72.1524526  81.0089873  90.9747439  72.5119343
  79.7130570  89.2869269  72.7662352  79.6366827  88.2604686  72.4075582
  79.8074533  89.2857306  73.8521397  78.8174951  89.8386781  72.4805082
  82.1985847  89.2458096  72.5964010  83.0655445  89.7653474  72.1882825
  82.2533990  89.2482990  73.6850196  82.1891714  88.2171770  72.2359495
  81.4193701  90.9908596  68.4157439  80.8167818  91.9372759  67.9043335
  81.8321184  89.9395769  67.7101396  82.3637369  89.1976894  68.1426718
  81.5916702  89.8707298  66.2762000  81.8949558  90.8058790  65.8054419
  82.3920399  88.7303175  65.6550801  82.2332197  88.7337499  64.5767186
  83.4481559  88.8973342  65.8667980  81.9990823  87.3743442  66.1970902
  80.8610519  87.1567743  66.6063839  82.9470091  86.4475847  66.1947654
  82.7448309  85.5219013  66.5445283  83.8670121  86.6714722  65.8432406
  80.0970431  89.7159431  65.9905765  79.2595980  89.6630547  66.8935325
  79.7653597  89.6411417  64.7002847  80.4718884  89.5903679  63.9803273
  78.3682952  89.6308785  64.2971005  77.9023597  90.5292045  64.7020865
  78.3398593  89.6668645  63.2080662  77.5934271  88.4164953  64.7711277
  76.4031066  88.5199873  65.0756791  78.2425545  87.2552868  64.8362317
  79.2264117  87.2044913  64.6136462  77.5444425  86.0191538  65.1695839
  76.5146787  86.0954593  64.8204947  78.2148114  84.8400720  64.4611400
  79.2440813  84.7451845  64.8071167  77.6703580  83.9230285  64.6863111
  78.2081948  85.0109202  63.3846335  77.5018801  85.7743727  66.6743219
  76.4286094  85.5212624  67.2383673  78.6629478  85.8170455  67.3280618
  79.5420536  85.9117361  66.8398958  78.6903350  85.6627833  68.7754640
  78.2712691  84.6962068  69.0551295  80.1286309  85.7370208  69.2847248
  80.6195667  84.8874039  68.8101384  80.5700411  86.6631698  68.9166146
  80.3144182  85.6513088  70.8006198  79.8520554  86.5249469  71.2600520
  79.6778143  84.3934052  71.3547904  80.1400114  83.5192712  70.8961375
  79.8241335  84.3567709  72.4343039  78.6105737  84.3977539  71.1332527
  81.7880336  85.6978918  71.1522014  82.2183962  86.6327378  70.7931046
  81.9061228  85.6360485  72.2340200  82.3008304  84.8584369  70.6826761
  77.8288152  86.7157587  69.4521666  77.2776723  86.4671936  70.5257880
  77.6943027  87.8925364  68.8379187  78.2205914  88.1064044  68.0028259
  76.8244976  88.9260531  69.3914884  77.1160520  89.1540869  70.4167181
  76.9423943  90.2006006  68.5549867  77.9853603  90.5132621  68.6056231
  76.6952454  89.9262804  67.5294303  76.0507760  91.3423465  69.0011012
  75.0095974  91.0235407  68.9519990  76.3030488  91.6005105  70.0296010
  76.2211156  92.5764075  68.1359014  76.9092765  92.5423097  67.1167660
  75.5886032  93.6713584  68.5356660  75.6676332  94.5217873  67.9965683
  75.0307797  93.6497728  69.3773716  75.3795646  88.4488227  69.4461200
  74.7121936  88.5672593  70.4805772  74.8792443  87.8950729  68.3406524
  75.4137251  87.8486706  67.4849208  73.5115954  87.3896196  68.3297277
  72.8248252  88.1687000  68.6606047  73.1188586  86.9603192  66.9186473
  73.2190895  87.8007164  66.2317809  73.7527212  86.1396413  66.5827812
  71.7028408  86.4818307  66.8070432  70.6606332  87.2433036  67.2970476
  70.8771004  88.2015090  67.7693657  69.3583426  86.8043254  67.1942789
  68.5445529  87.4160375  67.5837083  69.0857319  85.5950248  66.6006447
  68.0564543  85.2457994  66.5186133  70.1134917  84.8258098  66.1100747
  69.9002630  83.8666863  65.6381468  71.4142576  85.2678528  66.2151417
  72.2302712  84.6572510  65.8286354  73.3475551  86.2274502  69.2981647
  72.3374109  86.1355644  70.0067185  74.3291195  85.3256453  69.3397007
  75.1261603  85.3784012  68.7216051  74.2353749  84.1897231  70.2536343
  73.3135502  83.6442998  70.0515158  75.4169896  83.2466944  70.0403538
  76.3469924  83.7759955  70.2478028  75.3274490  82.3933842  70.7126220
  75.4213168  82.8964910  69.0081532  74.1762955  84.6585984  71.7042358
  73.3528634  84.1787355  72.4944866  75.0455546  85.6001279  72.0713431
  75.7406231  85.9442688  71.4243917  75.0553415  86.1146575  73.4327812
  75.1218878  85.2975515  74.1511185  76.2547511  87.0362883  73.6303547
  76.2306138  87.8153227  72.8683685  76.2192027  87.6730068  75.0041451
  76.2437823  86.8945568  75.7667138  77.0832176  88.3264790  75.1247747
  75.3049868  88.2568613  75.1110269  77.4645272  86.2822692  73.4874111
  78.2195125  86.8620522  73.6117057  73.7615179  86.8468789  73.7544058
  73.2403721  86.7337116  74.8675195  73.2290187  87.6098669  72.7983341
  73.6940795  87.7680522  71.9158404  71.9670459  88.2957196  73.0471544
  72.0455853  88.9069631  73.9462162  71.6228435  89.2034192  71.8685590
  72.5300677  89.7476964  71.6062504  71.3344157  88.5578127  71.0390401
  70.5036310  90.1921456  72.1536705  69.5905474  89.6297792  72.3489221
  70.7717370  90.7676708  73.0396682  70.2755812  91.1391091  70.9836725
  70.1459025  90.5436491  70.0799526  69.3669740  91.7097987  71.1756255
  71.4445123  92.0948955  70.7974161  71.6554358  92.5656879  71.7576069
  72.3109559  91.5149322  70.4795840  71.1520048  93.1447479  69.7842240
  70.3494316  93.6825462  70.0787556  71.9511071  93.7555024  69.6919500
  70.9569503  92.7087296  68.8943134  70.8576327  87.2864330  73.3029042
  70.0495452  87.4567131  74.2236068  70.8081031  86.2226047  72.5001059
  71.4353669  86.1395338  71.7128711  69.8139708  85.1745145  72.7061203
  68.8086268  85.5884109  72.6281949  69.9800998  84.0921441  71.6412314
  69.9186687  84.5895460  70.6732867  70.9776391  83.6723367  71.7707581
  68.9526026  82.9802960  71.7034587  69.1226123  82.3411737  72.5698999
  67.9758826  83.4563792  71.7898587  68.9628064  82.1199154  70.4583925
  69.2778087  82.5930108  69.3677196  68.6681623  80.8382288  70.6228262
  68.6603217  80.2186553  69.8252244  68.4528271  80.4869904  71.5449778
  69.9444519  84.5787025  74.1023813  68.9604811  84.4702166  74.8469545
  71.1641400  84.1741086  74.4677219  71.9590475  84.2791303  73.8535623
  71.3663483  83.5179645  75.7540180  70.7244905  82.6400815  75.8277683
  72.8200592  83.0731544  75.8987889  73.3835557  83.9520721  75.5856202
  72.9944557  82.8891230  76.9588919  73.2772584  81.8609497  75.0900526
  73.2897343  82.1146349  74.0300577  74.6699238  81.4567977  75.5286573
  74.6581489  81.2025041  76.5885135  74.9964175  80.5916526  74.9515727
  75.3586136  82.2850479  75.3618989  72.3190992  80.6957478  75.2376650
  71.3307510  80.9904762  74.8849576  72.6782262  79.8523939  74.6478489
  72.2583205  80.4052769  76.2864889  70.9835207  84.4409531  76.9016125
  70.3573982  84.0061726  77.8744627  71.3640140  85.7166817  76.8199159
  71.9041472  86.0579032  76.0376605  71.0540516  86.6419834  77.9009423
  71.3333211  86.2027657  78.8586456  71.8291415  87.9437832  77.7168794
  72.8269165  87.7074115  77.3471867  71.3077600  88.5607037  76.9849844
  71.9342060  88.6497391  78.9393350  72.4245946  89.4628705  78.7981397
  69.5599308  86.9227968  77.9763398  69.0220081  87.1121859  79.0716731
  68.8765588  86.9587671  76.8319340  69.3424522  86.8878598  75.9386172
  67.4338116  87.1567055  76.8443832  67.1785138  87.9933028  77.4947886
  66.9320696  87.4638175  75.4340945  67.5078989  88.3119579  75.0637191
  67.1397633  86.5880489  74.8192835  65.4503162  87.7899028  75.3659529
  64.8875136  86.8625796  75.4728441  65.2059839  88.4596896  76.1904463
  65.0860282  88.4537107  74.0502393  64.0074779  88.6074370  74.0156470
  65.5920655  89.4169408  73.9853274  65.4788153  87.6419739  72.9057850
  66.3120683  87.9209754  72.4078424  64.8175364  86.5727380  72.4836382
  63.7187824  86.1528448  73.0908931  63.3680285  86.6521864  73.8957096
  63.2362825  85.3350707  72.7465983  65.2689866  85.9066950  71.4248633
  66.1064051  86.2194511  70.9547421  64.7723699  85.0911412  71.0957088
  66.7044974  85.9426755  77.3999378  65.5955071  86.0787747  77.9281635
  67.2996286  84.7550757  77.2908066  68.2009444  84.6618178  76.8446764
  66.6265373  83.5420415  77.7544101  65.5447504  83.6722204  77.7245817
  67.0018741  82.3605693  76.8569098  68.0727145  82.1759310  76.9424068
  66.2401099  81.1168573  77.2721398  65.1691287  81.3005889  77.1864573
  66.5187226  80.2861199  76.6237961  66.4841426  80.8686126  78.3050596
  66.6890944  82.6742862  75.4957296  66.9250351  81.9323851  74.9340223
  66.9412351  83.2090353  79.2139430  66.0301977  83.1138040  80.0410027
  68.2210593  83.0259397  79.5426620  68.9623386  83.2027004  78.8798196
  68.5796755  82.5104460  80.8613316  68.1366477  81.5253907  81.0079319
  70.0958288  82.3868624  80.9863920  70.4607693  83.3677937  80.6819394
  70.3324331  82.2219283  82.0375414  70.7666589  81.3096542  80.1393568
  70.5093574  81.4637088  79.0914236  72.2724340  81.3845051  80.3061907
  72.5305549  81.2300730  81.3538658  72.7446519  80.6125438  79.6985832
  72.6256855  82.3647641  79.9861812  70.2521008  79.9340702  80.5128505
  69.1755551  79.8910689  80.3476246  70.7441222  79.1817904  79.8963351
  70.4659907  79.7385245  81.5636178  68.0477019  83.3827993  81.9909944
  67.6981452  82.8654352  83.0568623  67.9743723  84.6985739  81.7849995
  68.1712585  85.1001511  80.8794219  67.6655901  85.6007189  82.8894220
  68.3868175  85.4647449  83.6953012  67.7317916  87.0522783  82.4143499
  67.4310280  87.7033803  83.2351463  68.7583960  87.2804105  82.1277507
  66.8752094  87.2629357  81.3071551  66.9336510  88.1793414  81.0271817
  66.3034160  85.3264141  83.5102357  66.0526971  85.7678966  84.6370148
  65.4183914  84.6135728  82.8129131  65.6304290  84.3548419  81.8599191
  64.1140389  84.2514442  83.3533736  63.9265701  84.8046407  84.2736607
  63.0126750  84.5885745  82.3476308  62.0741305  84.6150544  82.9012845
  63.2320066  85.5824964  81.9576142  62.8921294  83.6072352  81.1936612
  63.8868665  83.4261883  80.7864502  62.4802634  82.6725659  81.5742684
  61.9885324  84.1500757  80.0996202  61.7359827  83.3418824  79.4132229
  61.0767789  84.5399792  80.5521468  62.6305598  85.2206969  79.3449779
  63.6072788  85.0928673  79.1218661  62.0284588  86.3327862  78.9401610
  60.7470152  86.5578309  79.1818513  60.2034929  85.8723494  79.6866271
  60.3184117  87.4140338  78.8604244  62.7316593  87.2432007  78.2730955
  63.7100921  87.0808234  78.0823001  62.2840928  88.0928749  77.9603069
  64.0393503  82.7801900  83.7455235  62.9438123  82.2155085  83.8126608
  65.1788738  82.1493716  84.0112743  66.0644433  82.6300808  83.9421037
  65.1857281  80.7406860  84.3671211  64.4436546  80.2151012  83.7661329
  66.5578641  80.1251748  84.0967104  67.3103196  80.6350423  84.6983298
  66.5400086  79.0671890  84.3583349  66.8034819  80.2335891  83.0402931
  64.8158915  80.5487730  85.8348650  64.8849631  81.4725596  86.6498463
  64.4161205  79.3214705  86.1616092  64.3196686  78.6299655  85.4318029
  64.0748566  78.9384900  87.5258650  64.5269623  79.6330434  88.2338870
  62.5589864  78.9481141  87.7317897  62.3329269  78.5431327  88.7181910
  62.0157829  80.3644011  87.6291481  62.2410690  80.7699083  86.6427863
  60.9361059  80.3516935  87.7782625  62.4801786  80.9884376  88.3927027
  61.9312454  78.1271653  86.7388595  60.9804412  78.1355949  86.8711495
  64.6389803  77.5511478  87.8117674  64.3093757  76.5971611  87.0956975
  65.4800685  77.3855710  88.8320331  65.8988724  78.2639404  89.8799832
  65.0218449  78.8154133  90.2188055  66.6241424  78.9595843  89.4578909
  66.4955015  77.3977323  90.9662085  65.7262570  77.0661972  91.6636656
  67.2700965  77.9380923  91.5103731  67.0935798  76.2179889  90.1898041
  67.1221949  75.3014484  90.7790695  68.0853414  76.4204537  89.7854324
  66.0910201  76.0724175  89.0561600  66.6509157  75.7892266  88.1648587
  65.0307210  75.0218053  89.3426021  64.0915388  75.2551354  90.1057455
  65.1866928  73.8578121  88.7209450  65.9411830  73.7315285  88.0614783
  64.2429111  72.7602969  88.9114037  63.2675717  73.1485564  89.2047752
  64.0953996  71.9168263  87.6340119  63.9598595  72.5874021  86.7854500
  65.3250240  71.0546013  87.4061771  65.4609615  70.3833902  88.2541732
  65.1948140  70.4682608  86.4965888  66.2029119  71.6925523  87.3040475
  62.8479279  71.0359074  87.7196689  62.9393873  70.2690224  86.9504984
  62.8502775  70.5656163  88.7029900  61.5509487  71.7927010  87.5256394
  61.5476666  72.2629138  86.5422834  60.7116079  71.1012681  87.5999815
  61.4585580  72.5595097  88.2947742  64.7145360  71.9171347  90.0906444
  65.8528028  71.4512586  90.1055836  63.8772031  71.6892698  91.1086622
  62.5500907  72.1389185  91.3625333  61.9666185  71.9728815  90.4569439
  62.5980784  73.2074467  91.5723993  62.0339144  71.3425682  92.5402252
  61.5671329  70.4158108  92.2065565  61.3140117  71.9247921  93.1154267
  63.2989718  71.0678250  93.3638216  63.2378480  70.1514867  93.9509220
  63.5709283  71.8985080  94.0150551  64.3372696  70.9090295  92.2646384
  65.2639286  71.3509537  92.6308410  64.5801437  69.4550604  91.9002282
  63.6392762  68.7220742  91.5790981  65.8380077  69.0321522  91.9424307
  66.5713806  69.6776086  92.1986525  66.2125095  67.6721880  91.5700065
  65.9882569  67.4977007  90.5176928  67.7129677  67.4631124  91.7916991
  67.9463830  66.4500785  91.4640122  68.2329294  68.1791578  91.1552881
  68.1637658  67.6460019  93.2344265  67.3475432  67.3294147  93.8837755
  69.0288577  67.0038239  93.3997223  68.5326746  69.0808997  93.5506394
  67.7169318  69.9800194  93.2563307  69.6345314  69.3110053  94.0918047
  65.4179657  66.6201420  92.3435892  65.0078991  66.8972260  93.4368211
  65.1817836  65.4997271  91.8905477  65.1620385  65.3758351  90.8883700
  64.8474192  64.3489436  92.7416856  64.0042379  64.6112925  93.3806829
  64.4701957  63.1178126  91.9154454  65.2602456  62.9815577  91.1769639
  64.4349100  62.2495214  92.5734161  63.1406243  63.2693081  91.2090537
  61.9339574  63.1773690  91.9065243  61.9717979  63.0066805  92.9824114
  60.7146337  63.2967552  91.2686633  59.7793830  63.2323362  91.8247731
  60.6933709  63.5108824  89.8973444  59.4864098  63.6224340  89.2507207
  58.7348521  63.5368574  89.8418529  61.8664244  63.6044669  89.1749453
  61.8426699  63.7758473  88.0987646  63.0878619  63.4778186  89.8334653
  64.0194066  63.5416835  89.2711078  66.0109103  64.0303333  93.6891084
  67.1851977  64.3843059  93.4409039  65.6921296  63.3502003  94.8001332
  64.7474575  63.0313170  94.9614012  66.6879878  63.0991836  95.8264187
  67.0573609  64.0453834  96.2218535  66.0778682  62.2886245  96.9816213
  65.6400138  61.4530513  96.4355443  66.9147829  61.9312558  97.5815892
  65.0160278  62.9109421  97.9030575  64.1975633  63.2994531  97.2970246
  64.4810734  61.8602190  98.8627521  65.2989385  61.4715471  99.4694890
  63.7294142  62.3093634  99.5118889  64.0307707  61.0453264  98.2959382
  65.5464594  64.1290048  98.6738855  65.8676896  64.8947557  97.9678145
  64.7565997  64.5297199  99.3092203  66.3920445  63.8281647  99.2924159
  67.9110995  62.3605597  95.2823714  69.0199799  62.5266329  95.7639084
  67.7136557  61.5240312  94.2536834  66.7589620  61.3232451  93.9922560
  68.8088535  60.7883727  93.5542519  68.3975199  60.2913114  92.6757111
  69.9496276  61.7344299  93.0994857  70.2305065  62.3718119  93.9379071
  70.8062025  61.1305886  92.7998941  69.5060611  62.6023907  91.9284149
  69.2510749  62.0020034  91.0551349  68.6591297  63.2353026  92.1934277
  70.7142985  63.4778194  91.6082381  70.6483014  64.4104932  92.1684728
  71.6289625  62.9529411  91.8839046  70.7336618  63.7728528  90.1638118
  70.7050390  62.8604156  89.5682115  69.9051805  64.4200921  89.8760631
  72.0407996  64.4909358  89.9219677  72.8086336  63.8911977  90.1881349
  72.1201768  64.7249416  88.9426616  72.0673442  65.3366694  90.4734467
  69.3857145  59.6252501  94.3723878  70.6083909  59.4739140  94.5185925
  68.5122684  58.7905169  94.9152206  67.5173203  58.9406951  94.8279039
  68.9816634  57.6269857  95.7100347  70.0411777  57.7498046  95.9346325
  68.2116630  57.4961340  97.0323366  67.1532732  57.4041630  96.7885095
  68.5518716  56.5835273  97.5217313  68.4178461  58.6930662  97.9786794
  68.1091545  59.6119757  97.4802662  67.7999573  58.5345257  98.8625234
  69.8758211  58.8426458  98.4214096  70.4728278  57.8899303  98.9370823
  70.4635916  60.0217722  98.2074852  71.4246548  60.1612433  98.4849859
  69.9446001  60.7691385  97.7690872  68.8002154  56.3767830  94.8398262
  67.7288948  56.1424958  94.2318174  69.8497790  55.5517953  94.7679064
  70.6756643  55.7617325  95.3100679  69.8924505  54.4245089  93.8611465
  68.9424953  54.3273572  93.3355556  71.0431779  54.5880145  92.8261941
  71.9887763  54.6731041  93.3616413  71.0982837  53.3939395  91.8883913
  70.1531341  53.3084690  91.3522125  71.9099068  53.5298113  91.1736133
  71.2713992  52.4856563  92.4655844  70.8571023  55.8744333  92.0141253
  69.9675417  55.7346044  91.3999343  70.6812215  56.6774161  92.7299353
  72.0452623  56.2414440  91.1163897  72.2214700  55.4390840  90.3999617
  71.8247733  57.1645515  90.5803334  72.9351508  56.3818935  91.7299630
  70.0007853  53.0771745  94.6162885  71.0518105  52.7394421  95.1852251
  68.9139390  52.2866675  94.6318089  67.5222203  52.4966718  94.2399668
  67.4207289  52.2498544  93.1831409  67.2759440  53.5474853  94.3924072
  66.7137447  51.5797178  95.1309081  65.7653406  51.3198311  94.6607086
  66.5236288  52.0474401  96.0969274  67.6171367  50.3503582  95.2863169
  67.5423351  49.6989702  94.4155715  67.4520576  49.7662223  96.1916532
  68.9917869  50.9981541  95.3304917  69.2382847  51.1617516  96.3795737
  70.0881990  50.1392699  94.6743611  70.1722567  50.0390711  93.4496462
  70.9415789  49.5094236  95.4769210  70.9398158  49.6721539  96.4737234
  71.9805305  48.6487765  94.9177293  72.4941063  49.1727857  94.1116565
  73.0128359  48.2652608  95.9904223  72.4877657  47.9295829  96.8846934
  73.6227492  47.4503895  95.6004346  73.9263299  49.4170674  96.3679637
  74.0301216  50.4009394  95.6256045  74.5754200  49.3096152  97.5101117
  75.1957797  50.0495120  97.8064332  74.4494212  48.4878805  98.0836769
  71.3917355  47.4042368  94.2392144  72.1317544  46.5328133  93.7036268
  70.0651854  47.2848132  94.2433209  69.5084411  47.9187728  94.7985059
  69.3773769  46.1716674  93.5458070  69.8601521  45.2305223  93.8090049
  67.8940572  46.0883603  93.9359768  67.4672100  45.2044240  93.4621019
  67.8330015  45.9844743  95.0192958  67.1695563  47.2386956  93.5299247
  66.2505217  47.1469613  93.7917644  69.5495397  46.2706148  92.0421812
  69.0967273  45.4030747  91.2709406  70.2166502  47.3462471  91.5842319
  70.5833366  48.0009669  92.2602367  70.4316026  47.6254392  90.1536260
  69.8443110  46.9506711  89.5308293  69.9802882  49.0607688  89.8794391
  70.5769736  49.7608897  90.4641581  70.0849771  49.2919978  88.8194045
  68.2526481  49.4011352  90.2991958  68.2690074  50.6787787  89.9300647
  71.9114885  47.4772668  89.7117701  72.3852300  48.1644820  88.8028789
  72.6526181  46.5693473  90.3599113  72.2145903  45.9893416  91.0612132
  74.0993111  46.4388905  90.1539248  74.5627251  47.4174210  90.0281280
  74.7940785  45.7100840  91.3291372  74.3202281  44.7377784  91.4639959
  76.2743855  45.5176955  91.0592166  76.7490394  46.4896572  90.9246991
  76.7341962  45.0030335  91.9028976  76.4050959  44.9219601  90.1558254
  74.5995644  46.4876338  92.6346166  73.5348846  46.5732688  92.8519313
  75.0949293  45.9599750  93.4496561  75.0302759  47.4837045  92.5324814
  74.4019171  45.7185816  88.8151041  73.9245144  44.5814060  88.5598548
  75.1846087  46.3480969  87.9505475  75.5018934  47.2926008  88.1159023
  75.5072872  45.7235633  86.6709314  75.4893856  44.6394543  86.7826734
  74.4969812  46.1217935  85.5845085  74.4946259  47.2088404  85.5043679
  74.8255127  45.6890420  84.6395782  73.1862059  45.6669273  85.8823675
  72.5874243  45.9352937  85.1816251  76.9204062  46.0084936  86.2263837
  77.8539864  45.8931820  87.0195093  77.1331221  46.3543963  85.0695180
  76.2140935  46.5807989  84.7170587  78.2673639  46.5018103  84.1773601
  79.1580156  46.6790667  84.7802025  78.3869561  45.5743309  83.6173788
  78.0963536  47.6473720  83.2024192  77.6637627  48.7356807  83.5791993
  78.4384876  47.4027022  81.9421411  78.8929513  46.5281721  81.7213247
  78.2249220  48.3604261  80.8666069  77.8055993  49.2878177  81.2567523
  79.5487054  48.6772883  80.1718403  80.1033035  47.7535346  80.0069158
  80.1374743  49.3469555  80.7987351  79.3758883  49.4940869  78.5859439
  77.2186265  47.7916788  79.8766646  77.3762946  46.6620090  79.4048542
  76.1915799  48.5780525  79.5625042  76.1149203  49.4773256  80.0158591
  75.1318766  48.1726044  78.6491775  75.1120432  47.0863514  78.5610860
  73.7738294  48.6456767  79.1728344  73.7886382  49.7192333  79.3608668
  72.9852833  48.4135599  78.4570015  73.2817347  47.8715868  80.7284133
  72.1199546  48.5093857  80.8396692  75.3417907  48.6749239  77.2261729
  74.4339740  48.5450935  76.3989353  76.5039040  49.2548857  76.9182801
  77.2747395  49.2826468  77.5703091  76.6608236  49.9279092  75.6314729
  75.9010548  50.7038287  75.5376633  78.0417777  50.5828540  75.5475963
  78.2024861  50.9652774  74.5396156  78.8091684  49.8452494  75.7824388
  78.2876398  52.0084187  76.6700606  76.4550222  48.9513016  74.4777250
  75.8242024  49.2945324  73.4709971  77.0125578  47.7430950  74.5908615
  77.4760128  47.4571305  75.4414690  76.9647525  46.8020702  73.4809894
  77.5852555  47.1934766  72.6748405  77.3717481  45.8504195  73.8227711
  75.5593566  46.5782119  72.9576856  75.2993837  46.6900725  71.7553935
  74.6308120  46.2535922  73.8606037  74.8668613  46.1568414  74.8378546
  73.2597698  45.9684976  73.4482771  73.2582263  45.2162692  72.6594494
  72.4518215  45.4384478  74.6290026  72.9667275  44.5877498  75.0754150
  72.2970129  46.2070045  75.3862706  71.1015957  44.9568104  74.2289067
  70.7812294  43.7309897  73.7287417  71.5965919  43.0172797  73.6108356
  69.4336000  43.6645678  73.4715315  68.9426466  42.8621179  73.1039197
  68.8623415  44.8655263  73.7975443  67.5378039  45.2803474  73.7144979
  66.7940968  44.5794087  73.3354419  67.2515780  46.5539061  74.1179938
  66.2244278  46.9152392  74.0679869  68.2478084  47.4089082  74.5955242
  68.0069436  48.4227925  74.9150901  69.5612435  46.9995171  74.6774525
  70.2992580  47.7043696  75.0603601  69.8856364  45.7035281  74.2743647
  72.5943137  47.2041704  72.8622993  71.8008329  47.1007868  71.9207469
  72.8844645  48.3789683  73.4182916  73.4689495  48.4424022  74.2395424
  72.3222420  49.6094114  72.8729646  71.2333374  49.5605667  72.8727473
  72.7574406  50.7925360  73.7346771  73.8457813  50.7333402  73.7451427
  72.4487306  51.7083101  73.2305383  72.2344589  50.8006945  75.1699254
  72.4857581  49.8535796  75.6473381  72.8617719  51.9415884  75.9491176
  72.6105109  52.8891322  75.4725387  72.4813103  51.9370808  76.9705526
  73.9447767  51.8192973  75.9648018  70.7238587  50.9163099  75.1853559
  70.2886546  50.0688610  74.6557076  70.3697777  50.9205165  76.2162342
  70.4248327  51.8428469  74.6952420  72.7708433  49.8009991  71.4309307
  71.9637284  50.1142143  70.5452486  74.0685128  49.6202963  71.1826437
  74.7130790  49.3985752  71.9279447  74.6003604  49.7880025  69.8363842
  74.3359308  50.7674122  69.4377203  76.1219713  49.6656247  69.8603369
  76.3905282  48.6702189  70.2140949  76.6985007  49.8817907  68.4738755
  76.4307334  50.8772304  68.1196156  77.7839594  49.7903681  68.5128691
  76.2956374  49.1333119  67.7915405  76.6668515  50.6390814  70.7585232
  77.6235814  50.5612022  70.7727675  74.0034928  48.7650450  68.8840040
  73.6987819  49.0824796  67.7272842  73.7994358  47.5358612  69.3626739
  74.1118175  47.2658003  70.2844028  73.1681723  46.5244526  68.5226216
  73.6930568  46.4526864  67.5700225  73.2154169  45.1605682  69.2101391
  72.9771051  45.3186918  70.2619488  72.4450402  44.5395969  68.7529581
  74.5619695  44.4637809  69.0951011  74.7210776  44.1990283  68.0497823
  75.3358577  45.1618000  69.4144261  74.6273358  43.2093125  69.9506952
  75.6618554  42.8670353  69.9774245  74.3039472  43.4660611  70.9594566
  73.7430158  42.1040364  69.4021018  72.7310606  42.4949907  69.2962625
  74.1241134  41.8138656  68.4229875  73.7243814  40.9170864  70.2981574
  73.3708739  41.1856587  71.2053515  73.1276926  40.2052101  69.9015536
  74.6619241  40.5544087  70.3960222  71.7318283  46.9042574  68.1893230
  71.2986412  46.7480351  67.0455666  70.9799371  47.4046626  69.1687230
  71.3212068  47.4721664  70.1169200  69.6087800  47.8246956  68.8950763
  69.0321325  47.0079587  68.4608902  68.9298156  48.2670671  70.1903874
  69.4452302  49.1472890  70.5746495  67.4644072  48.6034075  69.9462410
  66.9481986  47.7234759  69.5623808  67.0018967  48.9157236  70.8825325
  67.3929939  49.4120489  69.2188485  69.0246321  47.2208987  71.1641119
  68.5975396  47.5007436  71.9770566  69.5804353  48.9524790  67.8714069
  68.7975154  48.9209778  66.9084448  70.4835582  49.9226194  68.0161504
  71.1382072  49.9255647  68.7852572  70.4911617  51.0560451  67.0966966
  69.5053139  51.5120829  67.0059616  71.4872564  52.1285765  67.5703554
  72.4483871  51.6567178  67.7745037  71.6633517  53.1939613  66.5014126
  70.7026600  53.6666191  66.2970428  72.3708228  53.9461359  66.8504380
  72.0430771  52.7344912  65.5888352  71.0178850  52.7517145  68.8733004
  70.9391637  51.9793673  69.6384048  71.7343107  53.5081350  69.1937092
  70.0428080  53.2155307  68.7243025  70.8121584  50.5792386  65.6890185
  70.1279136  50.9383951  64.7222048  71.8618954  49.7694496  65.5442977
  72.4345454  49.4749577  66.3224017  72.2506834  49.3517850  64.2032347
  72.3166761  50.2208123  63.5486082  73.6113444  48.6623620  64.2369775
  73.5644154  47.8685035  64.9824208  73.7887895  48.2267226  63.2537016
  74.7429656  49.6117369  64.5805785  74.8947149  50.2798339  63.7328053
  74.4446442  50.1939219  65.4524541  76.0313453  48.8784495  64.8811422
  76.7461548  49.5844612  65.3038640  75.8258343  48.0917396  65.6070569
  76.6116186  48.2650719  63.6226551  77.4444558  47.6199732  63.9025309
  75.8382192  47.6693073  63.1378695  77.0910114  49.3133731  62.6832839
  77.8079720  49.8652625  63.1321551  77.4713082  48.8758576  61.8562079
  76.3193489  49.9109859  62.4234860  71.1899513  48.4450712  63.5882727
  70.8984288  48.5495345  62.3914490  70.5945951  47.5520320  64.3868171
  70.9059877  47.4197994  65.3384728  69.5187697  46.7079077  63.8894041
  69.8305881  46.2143569  62.9689281  69.1620368  45.6371955  64.9213242
  68.9876335  46.1487454  65.8678967  68.2376547  45.1653175  64.5882342
  70.2332681  44.5754342  65.1094712  70.3680831  44.0598356  64.1586380
  71.1597303  45.0803992  65.3829255  69.8710125  43.5678709  66.1836137
  68.6636518  43.3812642  66.4425326  70.7938914  42.9605578  66.7677082
  68.2810956  47.5134637  63.5391594  67.3855483  46.9860870  62.8703531
  68.2106765  48.7709438  63.9736857  68.8883206  49.1376697  64.6266863
  67.1174418  49.6368840  63.5538925  66.2401328  49.0418283  63.3002455
  66.7418539  50.6085254  64.6744779  67.6434266  51.1102621  65.0259424
  65.7483614  51.6457554  64.1694478  64.8462801  51.1447680  63.8182206
  65.4921093  52.3287327  64.9793713  66.1944021  52.2074153  63.3486637
  66.1592879  49.8836294  65.7654882  65.9245747  50.4954002  66.4670911
  67.4720889  50.4196633  62.2945359  66.6288590  50.6436740  61.4272731
  68.7291803  50.8542566  62.1638805  69.4051321  50.7357644  62.9049259
  69.1408856  51.5697155  60.9590522  68.3580604  52.2602884  60.6453756
  70.4173949  52.3699515  61.2360798  71.1924401  51.6782285  61.5661168
  70.8988525  53.1183781  59.9852652  70.1244647  53.8106735  59.6548865
  71.8062468  53.6745074  60.2207540  71.1081940  52.4021358  59.1907379
  70.1646625  53.3274952  62.2703067  70.9644194  53.8292310  62.4442331
  69.3588583  50.6185452  59.7866654  69.0448137  50.9627519  58.6415703
  69.8833485  49.4235388  60.0451971  70.1771456  49.1921982  60.9834211
  70.0973755  48.4378306  58.9902180  70.1027516  48.9332193  58.0193111
  71.4385355  47.7237307  59.1827304  71.4076525  47.2533601  60.1655310
  71.4995459  46.9536760  58.4137092  72.6599882  48.6295621  59.0918417
  72.5474177  49.4252070  59.8283049  73.5414515  48.0350145  59.3319198
  72.8219054  49.2400145  57.7064350  71.9142339  49.7871992  57.4518368
  73.6682674  49.9267672  57.7183342  73.0577636  48.2252883  56.6854905
  72.2604371  47.9302615  56.1402116  74.2372175  47.6729483  56.4323148
  75.3223073  48.0130535  57.1089311  75.2615244  48.7093343  57.8380391
  76.2063185  47.5748030  56.8931525  74.3311022  46.7548225  55.4737952
  73.5087211  46.4887546  54.9513038  75.2243138  46.3282035  55.2731266
  68.9658563  47.4187944  58.9593091  67.8507454  47.4488232  58.5180108
  69.7902481  46.3118758  59.7165959  70.7798275  46.3926451  59.9018204
  69.1072341  45.0852773  60.1225231  68.8392369  45.2504292  61.1660755
  67.8127602  44.9124484  59.3027917  67.2709364  45.8582389  59.3000521
  68.1276047  44.5007126  57.8616926  68.6690560  43.5547070  57.8636008
  67.1977198  44.3854066  57.3048107  68.7404444  45.2685619  57.3895321
  67.0755481  43.7965379  59.8149391  66.2685996  43.6857837  59.3068369
  70.0250350  43.8800148  59.9459956  69.6447019  42.8397398  59.4031479
  71.2599444  44.0230778  60.4121636  71.5420708  44.9209401  60.7786979
  72.2581533  42.9742264  60.3175332  71.8152592  42.0507512  60.6905447
  72.7721600  42.7305648  58.8875472  73.4302206  41.8629651  58.9357779
  71.9002552  42.4912152  58.2787829  73.5244346  43.9068407  58.2605123
  72.8632845  44.7732814  58.2766952  74.3929771  44.1014153  58.8896973
  73.9817538  43.6441314  56.8313734  75.2098423  43.6599112  56.5655623
  73.1100114  43.4096168  55.9675180  73.3598471  43.3542865  61.2943127
  73.1898441  44.2387934  62.1379551  74.5173956  42.6958761  61.2050370
  73.7410000  41.6045886  61.6579193  73.6565051  40.8945932  60.8351998
  72.7516179  41.9849719  61.9119482  74.4599050  41.0239699  62.8542915
  75.1844790  40.2713038  62.5435097  73.7516966  40.5790109  63.5532577
  75.1511905  42.2434122  63.4771934  76.0588868  42.0103495  64.0338514
  74.4716996  42.8114597  64.1125781  75.4986885  43.0511962  62.2367487
  75.3497642  44.1021624  62.4845184  76.9463002  42.8325098  61.7952867
  77.2967496  42.9398951  60.6166729  77.8048238  42.5196390  62.7633462
  77.4649220  42.4661628  63.7129284  79.2205058  42.2658343  62.5202708
  79.4272727  41.2043639  62.3837885  79.6960337  43.0503378  61.2683201
  78.9788079  42.8941512  60.4625327  79.8039244  44.5395289  61.5700131
  80.5213669  44.6965567  62.3754441  80.1388445  45.0682336  60.6776004
  78.8288753  44.9209280  61.8731849  81.0269843  42.5167411  60.7412623
  81.2123722  42.9989885  59.7814865  81.7990777  42.8130401  61.4513173
  81.0548326  41.0173727  60.5645107  80.2832640  40.7203453  59.8541893
  82.0313948  40.7135156  60.1875543  80.8699671  40.5343968  61.5240205
  80.0281271  42.7018440  63.7490442  79.7464422  43.7322889  64.3622734
  81.0394944  41.9318278  64.1301941  81.1868991  41.0128848  63.7378740
  81.9359432  42.3836479  65.1931824  82.6806181  41.6122272  65.3893166
  82.6619607  43.6780775  64.8023429  83.1377661  44.0989133  65.6881226
  83.4239690  43.4364507  64.0613572  81.7253578  44.7188387  64.2137359
  81.0305767  44.4593123  63.2295595  81.6981661  45.9057249  64.8215506
  81.0930646  46.6349356  64.4719741  82.2828003  46.0698640  65.6286207
  81.1532626  42.5790307  66.4897312  80.7966609  43.6877410  66.8844952
  80.8678572  41.3948102  67.2021247  81.2774480  40.4728665  67.2506480
  79.6600378  41.6561948  67.9758975  79.0414475  42.3985438  67.4715532
  78.8287353  40.3738094  68.1720527  77.9635693  40.6056179  68.7932233
  78.3583922  39.8274567  66.8307723  79.2230736  39.5949655  66.2091828
  77.7732671  38.9220121  66.9917002  77.7416808  40.5737523  66.3299624
  79.6143287  39.3834827  68.8460208  79.0915756  38.5871954  68.9654196
  79.9913912  42.2511136  69.3420822  79.1168398  42.3869896  70.1966946
  81.2587757  42.5994256  69.5443406  81.9504105  42.3442804  68.8539484
  81.7023942  43.3060734  70.7372389  80.9222513  43.2730959  71.4977576
  82.9725983  42.6766768  71.3123028  83.7757889  42.7700830  70.5813716
  83.3782420  43.3735421  72.6031358  82.5756808  43.2801539  73.3347598
  84.2836861  42.9117774  72.9968914  83.5662818  44.4284827  72.4035311
  82.7422220  41.2877496  71.5788399  83.5402287  40.8944998  71.9395894
  81.9528814  44.7637283  70.3775994  82.6933209  45.0552376  69.4323351
  81.3366678  45.6724617  71.1278757  80.7718829  45.3655728  71.9069370
  81.4108570  47.0981201  70.8492809  82.1913529  47.2840536  70.1114774
  80.0809625  47.6238918  70.2984020  79.3244100  47.3792747  71.0439824
  80.1649731  48.7069300  70.2085665  79.6811639  47.0379343  68.9649276
  80.4104832  47.3099601  67.8172338  81.2873015  47.9534861  67.8890910
  80.0414698  46.7796944  66.5969967  80.6251507  46.9958936  65.7021915
  78.9278301  45.9742705  66.5145600  78.5555420  45.4442035  65.3027632
  79.1405782  45.6998935  64.5858567  78.1851893  45.6953756  67.6386455
  77.3036826  45.0576205  67.5729576  78.5616097  46.2275199  68.8525892
  77.9757445  46.0137652  69.7465529  81.7810452  47.8411285  72.1259818
  81.9376064  47.2481961  73.1967562  81.9228703  49.1575080  72.0027400
  81.8785343  49.5694978  71.0816547  82.2176083  50.0253788  73.1333667
  81.8225413  49.5849160  74.0487976  83.7327931  50.2090876  73.2918097
  83.9167182  50.8602285  74.1463776  84.1841119  49.2339542  73.4749113
  84.3041951  50.7826309  72.1302466  85.2502106  50.8859966  72.2566186
  81.4847049  51.3458393  72.9151863  80.6243769  51.4631930  72.0387065
  81.8276185  52.3497432  73.7236313  82.5444729  52.2341929  74.4256763
  81.1406784  53.6341703  73.6414287  80.0695249  53.4955410  73.7880961
  81.6629990  54.5738223  74.7228862  81.6931802  53.9947671  75.6458615
  82.6757573  54.8643346  74.4435599  80.8247540  55.8114558  74.9329544
  79.4403263  55.7453326  74.9433255  78.9584015  54.7792347  74.7933158
  78.6763276  56.8718518  75.1384911  77.5883433  56.8065666  75.1498867
  79.2938041  58.0879564  75.3109242  78.5327432  59.2163283  75.5046978
  77.5895001  59.0377831  75.5009720  80.6664352  58.1808035  75.2997306
  81.1568069  59.1437223  75.4426408  81.4204192  57.0472636  75.1064133
  82.5082820  57.1129119  75.0878401  81.3214285  54.2732014  72.2713051
  80.3681576  54.8164746  71.6958838  82.5476470  54.2399075  71.7472804
  83.3108788  53.8095566  72.2496494  82.8331081  54.8708443  70.4652482
  82.6987989  55.9506749  70.5287012  84.2789820  54.5811760  70.0585504
  84.3572924  53.5363617  69.7579996  84.7036826  55.4725963  68.9048567
  84.6260760  56.5176287  69.2048301  85.7351984  55.2488661  68.6327920
  84.0550499  55.2920557  68.0476629  85.1452074  54.8090369  71.1756297
  86.0523232  54.6270134  70.9194879  81.8657595  54.3856317  69.3949685
  81.2985212  55.1856009  68.6432632  81.6690126  53.0700148  69.3106315
  82.1748543  52.4337059  69.9100767  80.7708524  52.5103545  68.3124318
  80.9266101  53.0022915  67.3523085  81.0405931  51.0170524  68.1449127
  81.2573296  50.6024128  69.1293916  80.1372802  50.5544647  67.7472465
  82.2023216  50.7386541  67.2131394  82.2273579  51.3122363  66.1054614
  83.0918828  49.9453712  67.5871502  79.3069710  52.7370153  68.6554524
  78.4439216  52.4442111  67.8228820  79.0050240  53.2386756  69.8533535
  79.6943422  53.2886734  70.5898587  77.6466948  53.6796184  70.1468569
  76.9275057  53.0345238  69.6421599  77.3884704  53.6146790  71.6542046
  77.5887378  52.6073183  72.0191930  78.0323590  54.3237737  72.1744854
  75.9715511  53.9447458  72.0536500  74.9363483  53.8967616  71.1376206
  75.1508622  53.6138304  70.1070704  73.6469090  54.2011542  71.5140290
  72.8414768  54.1562345  70.7809792  73.3753781  54.5610211  72.8115469
  72.3554368  54.8038675  73.1096160  74.3906566  54.6145250  73.7331042
  74.1769286  54.8989270  74.7634129  75.6807045  54.3086589  73.3560188
  76.4872308  54.3518995  74.0879651  77.4124706  55.0910182  69.6265456
  76.4040052  55.3602324  68.9614012  78.3403052  56.0059070  69.9122700
  79.1359631  55.8039701  70.5006996  78.1674922  57.3707760  69.4273077
  77.1673932  57.7253718  69.6766327  79.1932526  58.3077508  70.0705230
  78.6983416  59.2712059  70.1926567  79.4214714  57.8902017  71.0511702
  80.4822338  58.4963936  69.2882601  80.9580644  57.5240852  69.1605784
  80.2492945  58.9175548  68.3102700  81.4509001  59.4197442  69.9940025
  81.3934905  59.5826250  71.2111118  82.3448998  60.0364050  69.2308721
  83.0155075  60.6641929  69.6507162  82.3504328  59.8750017  68.2338667
  78.2607054  57.4218594  67.9081580  77.5269269  58.1788362  67.2642907
  79.1509651  56.6228025  67.3161277  79.7750865  56.0403085  67.8558244
  79.2838099  56.6183239  65.8634250  79.4348071  57.6337140  65.4969799
  80.4864587  55.7687372  65.4568206  81.3637308  56.2136800  65.9264148
  80.3235795  54.7709863  65.8643295  80.7087615  55.6728782  63.9599376
  79.8552293  55.1650473  63.5108369  80.7870261  56.6806936  63.5521574
  81.9791775  54.9003672  63.6473595  82.8298929  55.4696222  64.0219674
  81.9326418  53.9387997  64.1585558  82.1407549  54.6725612  62.1556145
  81.2715108  54.1200290  61.7989304  82.1792525  55.6448380  61.6643967
  83.3778580  53.9082161  61.8396344  83.3421908  53.0070784  62.2943634
  83.4475046  53.7785943  60.8404110  84.1834653  54.4202355  62.1696828
  78.0210289  56.1062645  65.1842361  77.7017339  56.5351032  64.0702999
  77.2924813  55.1947641  65.8294077  77.6110583  54.7837367  66.6952394
  76.0345208  54.7235268  65.2621444  76.1613652  54.5904272  64.1877636
  75.6530188  53.3802815  65.8783216  75.5136127  53.4993306  66.9527951
  74.7257472  53.0242812  65.4293990  76.4468572  52.6565825  65.6934440
  74.9149077  55.7351156  65.4690757  74.0972185  55.9582198  64.5647070
  74.8600174  56.3566146  66.6488757  75.4814833  56.1182438  67.4085196
  73.8209255  57.3510771  66.8915986  72.8350590  56.9617905  66.6373890
  73.8143156  57.7792653  68.3686106  74.8122912  58.1176274  68.6472770
  72.8208159  58.9057025  68.5821958  71.8224656  58.5679230  68.3041622
  72.8249757  59.2004269  69.6315864  73.1001731  59.7592417  67.9645130
  73.4675412  56.5998589  69.2531659  74.2066113  55.8108824  69.1139055
  73.4660296  56.9155408  70.2964503  72.4800491  56.2231089  68.9866711
  74.0026500  58.5441238  65.9663804  73.0206045  59.1640931  65.5393597
  75.2504420  58.8901165  65.6435677  76.0462484  58.4303424  66.0623748
  75.4957555  59.9890929  64.7158533  75.0599489  60.9097747  65.1038182
  76.9990065  60.1975575  64.5379293  77.4957817  59.2330910  64.6433708
  77.1851346  60.5943580  63.5399285  77.5819588  61.1568607  65.5572609
  78.7417761  61.5545106  65.4609410  76.7787208  61.5288609  66.5454727
  77.1151135  62.1666693  67.2526786  75.8345331  61.1725383  66.5860261
  74.8288339  59.7255022  63.3726848  74.1109037  60.5827208  62.8453997
  75.0539351  58.5396249  62.8017053  75.6778476  57.8617165  63.2155563
  74.4424492  58.2222372  61.5161455  74.6536894  59.0166787  60.8003666
  75.0012095  56.9098377  60.9680073  74.9010112  56.1622894  61.7549197
  74.3825156  56.6257267  60.1167735  76.4509144  56.9937998  60.5329084
  76.5541602  57.8183695  59.8275532  77.0659970  57.1886848  61.4114272
  76.9056983  55.7034200  59.8729398  76.7231649  54.8778764  60.5608776
  76.3232173  55.5537105  58.9638730  78.3820173  55.7543575  59.5247723
  78.9472803  55.8732402  60.4491344  78.6543785  54.8108793  59.0517315
  78.6966198  56.8808302  58.6024413  78.4447167  57.7552019  59.0407546
  79.6851956  56.8804529  58.3955169  78.1732601  56.7706315  57.7456742
  72.9278976  58.1443978  61.6285535  72.2101562  58.5944089  60.7263416
  72.4161422  57.5718403  62.7204653  72.9946774  57.1538869  63.4351060
  70.9679892  57.4865004  62.8660392  70.5419683  56.9519303  62.0170161
  70.6036630  56.7381925  64.1465390  70.9531713  55.7192239  63.9802674
  71.1474657  57.1762538  64.9834864  69.1057912  56.7180890  64.4658318
  68.7658753  57.7420028  64.6212616  68.3179950  56.0902519  63.3267538
  68.6570539  55.0661004  63.1710245  67.2570017  56.0871614  63.5765227
  68.4744263  56.6668136  62.4150487  68.8437262  55.9761532  65.7608586
  69.3707600  56.4708768  66.5766915  67.7737364  55.9738253  65.9687469
  69.1979081  54.9493146  65.6699919  70.3455836  58.8765355  62.8616007
  69.3544280  59.1259736  62.1664351  70.9273794  59.8048526  63.6238730
  71.6960261  59.5747553  64.2373360  70.4265488  61.1753180  63.6265449
  69.3667535  61.1848648  63.8811859  71.1843081  62.0078881  64.6593395
  72.2327878  61.7953485  64.4504941  70.9783609  63.0577064  64.4506118
  70.8889585  61.7142582  66.1259151  70.9393722  60.6386321  66.2949946
  71.9067971  62.4123928  67.0071022  71.8566556  63.4881694  66.8389081
  71.6897788  62.1982804  68.0536010  72.9065638  62.0532225  66.7630454
  69.4806175  62.1548687  66.4815371  68.7635919  61.6172026  65.8611429
  69.2858815  61.9381487  67.5318759  69.3796162  63.2261054  66.3073257
  70.5532022  61.8038630  62.2453946  69.6165622  62.4411883  61.7505128
  71.7130367  61.6349055  61.6054451  72.4695415  61.1103544  62.0209521
  71.9352410  62.2565071  60.3060800  71.8423762  63.3403720  60.3747247
  73.3383417  61.9172249  59.8005444  73.4267478  60.8346329  59.7095552
  73.5968874  62.5616370  58.4487485  73.5091079  63.6443372  58.5390508
  74.6008453  62.3060334  58.1098764  72.8664125  62.1974036  57.7263628
  74.3154161  62.3798045  60.7412472  75.1946274  62.1653104  60.4209659
  70.8862889  61.8127092  59.2983038  70.4179577  62.6156886  58.4841940
  70.5033881  60.5389603  59.3366037  70.9061707  59.9106260  60.0170900
  69.5537437  59.9978324  58.3743890  69.6280819  60.6081162  57.4743186
  69.9338511  58.5566321  58.0213367  69.8554316  57.9313713  58.9107182
  69.2589817  58.1802601  57.2525742  70.9580148  58.5312252  57.6491238
  68.1054409  60.0324279  58.8481161  67.2179611  59.6474301  58.0805112
  67.8305848  60.4802295  60.0753316  68.5717364  60.8138382  60.6749138
  66.4747501  60.4354960  60.6113289  65.8160697  59.8996927  59.9278421
  66.4797199  59.7063717  61.9589513  67.0224059  60.3123370  62.6844836
  65.4500701  59.5767520  62.2922981  67.1008901  58.4400105  61.8437686
  67.0933031  58.0010482  62.6974982  65.8452820  61.8145143  60.7648327
  64.7767960  62.0645845  60.2011380  66.4659926  62.7158974  61.5187861
  67.3510805  62.5016990  61.9556360  65.8581251  64.0188990  61.7862499
  64.9249526  63.8806785  62.3323117  66.7894290  64.8973069  62.6241672
  67.7854172  64.5313831  62.3747548  66.6928627  65.9343316  62.3026787
  66.5787362  64.8110032  64.1380193  65.5110871  64.8709668  64.3492793
  67.1296933  63.5058475  64.6836968  68.1974652  63.4453679  64.4732109
  66.9694159  63.4654133  65.7610904  66.6183400  62.6683469  64.2091328
  67.2083821  66.0031769  64.8416739  66.7527311  66.9235497  64.4764403
  67.0454290  65.9192046  65.9161487  68.2789102  66.0224512  64.6374752
  65.4966101  64.7333146  60.4884297  64.6201373  65.2070713  60.4021335
  66.1406816  64.7255695  59.7238364  79.9467746  51.7322707  78.2969297
  25.0519215  56.7485434  73.9682344  25.9208604  56.3028680  73.7105145
  24.2955723  56.0961831  73.8183601  25.1678487  57.1888711  74.8697731
  24.8090459  57.8406085  73.0347966  23.8741339  57.6714934  72.5005320
  24.7238099  59.1967223  73.7582828  24.4405636  59.9640648  73.0378264
  23.6934654  59.1452910  74.8746250  23.9763009  58.3784393  75.5957645
  23.6487037  60.1134742  75.3733402  22.7154865  58.9070237  74.4564306
  26.0051117  59.5313040  74.3057119  25.9495761  60.3771645  74.7563071
  25.9109971  57.9014618  71.9829812  26.7277433  56.9879709  71.8737611
  25.9259373  58.9862889  71.2054300  25.2403477  59.7197232  71.3156134
  26.9031945  59.1091573  70.1296030  26.9504986  58.1824713  69.5576636
  26.4973455  60.2439635  69.1885603  26.2772757  61.1315303  69.7817666
  27.3292269  60.4539837  68.5162770  25.2764586  59.9021505  68.3566919
  25.3590628  59.1419928  67.3928009  24.1314659  60.4634923  68.7290665
  23.2861904  60.2710012  68.2108423  24.1114874  61.0801804  69.5286898
  28.3065670  59.3443337  70.6751960  29.2726624  58.7406542  70.1957830
  28.4410559  60.2198578  71.6732082  27.6481500  60.7292974  72.0363485
  29.7627557  60.5170123  72.2172879  30.4499103  60.7736324  71.4110226
  29.6768064  61.6996344  73.1803594  28.8913398  61.4769668  73.9025509
  30.6342647  61.7715987  73.6963001  29.3719472  63.0208576  72.4915225
  30.0403213  63.1295439  71.6373772  28.3390786  63.0013445  72.1438104
  29.5534487  64.2182490  73.4043451  29.6158236  64.0794514  74.6250345
  29.6390444  65.4048431  72.8129451  29.7604559  66.2369240  73.3724109
  29.5823128  65.4693762  71.8066060  30.3648777  59.2977669  72.9055542
  31.5708006  59.0445620  72.7931606  29.5426988  58.5335804  73.6289357
  28.5845723  58.8053857  73.7969082  30.0307291  57.3048677  74.2441305
  30.8765823  57.5236612  74.8958675  28.9236087  56.6633015  75.0796574
  28.0439969  56.7199046  74.4384254  29.1839724  55.6181628  75.2469769
  28.6206564  57.3337468  76.4203472  28.6836492  58.4149092  76.2969758
  27.2286955  56.9594526  76.9041176  27.1650726  55.8784064  77.0281745
  27.0322816  57.4464464  77.8592926  26.4894073  57.2847890  76.1721959
  29.6682216  56.9498500  77.4514590  30.6516177  57.2708572  77.1079683
  29.4393483  57.4345830  78.4005386  29.6663796  55.8682780  77.5867281
  30.5326630  56.3290695  73.1885405  31.5924004  55.7135506  73.3522418
  29.7827436  56.1765761  72.0946705  28.8845888  56.6305471  72.0090681
  30.2201179  55.2995641  71.0141939  30.4075240  54.2968809  71.3983871
  29.1361835  55.2163481  69.9405164  28.2056071  54.9545116  70.4440721
  29.0437390  56.2093702  69.5006742  29.4220160  54.2016595  68.8447683
  30.2769931  54.5458415  68.2628287  29.6602223  53.2441823  69.3080146
  28.2445862  54.0074079  67.9080423  27.1673393  54.5613684  68.1254814
  28.4461883  53.2178813  66.8594993  27.6961883  53.0536256  66.2032817
  29.3485940  52.7852780  66.7230457  31.5308231  55.7874810  70.4124557
  32.4245449  54.9840976  70.1165323  31.6573870  57.0995375  70.2095808
  30.8939767  57.7333788  70.3981260  32.8893255  57.6470756  69.6509947
  33.1079251  57.1752288  68.6930416  32.7379095  59.1536570  69.4307072
  31.9864942  59.2926040  68.6534247  32.3778624  59.5851158  70.3646823
  34.0212269  59.8412372  69.0196792  34.4553183  59.8181647  67.7024229
  33.8550988  59.2949419  66.9580615  35.6284054  60.4449184  67.3276638
  35.9593484  60.4197733  66.2894219  36.3821274  61.1043027  68.2758867
  37.5510098  61.7303704  67.9136116  37.7471744  61.6461029  66.9776532
  35.9704907  61.1411703  69.5892084  36.5648188  61.6636400  70.3388084
  34.7986637  60.5120119  69.9540867  34.4677648  60.5357683  70.9923746
  34.0735292  57.3536612  70.5607192  35.1386620  56.9300314  70.0974831
  33.9045907  57.5668081  71.8665451  33.0537295  57.9711986  72.2306917
  34.9841174  57.2704868  72.8007704  35.8872274  57.8065251  72.5089581
  34.5920625  57.7063309  74.2115818  33.6129515  57.2530152  74.3663258
  35.3049559  57.2798434  74.9172668  34.4954990  59.2150731  74.4346728
  33.9241632  59.6585446  73.6191918  33.8073183  59.5136504  75.7555044
  34.3783606  59.0708604  76.5715598  33.7468902  60.5925295  75.8985749
  32.8021757  59.0921184  75.7455307  35.8721960  59.8535320  74.3917119
  36.3280709  59.6702417  73.4187360  35.7803243  60.9276448  74.5527785
  36.4980406  59.4217620  75.1727319  35.3332451  55.7894519  72.7783348
  36.5125568  55.4200106  72.7797962  34.3169624  54.9254062  72.7529427
  33.3600292  55.2484076  72.7459940  34.5612362  53.4887336  72.7967162
  35.2071965  53.2439473  73.6398734  33.2387043  52.7418144  72.9619411
  32.9142560  53.0182942  73.9651318  32.5333809  53.1367826  72.2307646
  33.2928991  51.2159771  72.8457970  33.6251852  50.9525359  71.8416628
  34.2518825  50.6268743  73.8672767  33.9199707  50.8895212  74.8717417
  34.2721648  49.5419725  73.7639457  35.2522259  51.0260544  73.6997392
  31.9031952  50.6200172  73.0105514  31.2452947  51.0109408  72.2343780
  31.9601969  49.5348593  72.9252033  31.5068003  50.8865733  73.9903054
  35.2910454  53.0051789  71.5495897  36.1850230  52.1561993  71.6396649
  34.9240143  53.5227667  70.3783134  34.2789542  54.2992637  70.3459218
  35.3877547  52.9569882  69.1182775  35.7780458  51.9519215  69.2783185
  34.2210849  52.8774083  68.1262737  33.7983110  53.8784008  68.0403923
  34.6326808  52.5735941  67.1637844  33.1333214  51.9028680  68.5414977
  33.5883866  50.9248190  68.6978197  32.6956472  52.2529890  69.4763552
  32.0492780  51.7929574  67.4859415  31.6218445  52.7799852  67.3093754
  32.4880586  51.4169737  66.5617081  30.9823871  50.8888310  67.8981273
  30.1522159  51.3089899  68.2910416  31.0326400  49.5680227  67.7900805
  32.0919776  48.9540739  67.2883200  32.8857782  49.4958082  66.9776683
  32.1018690  47.9465529  67.2182969  29.9930710  48.8444871  68.1971219
  29.1808197  49.3051312  68.5820308  30.0208717  47.8378691  68.1193654
  36.5349029  53.7282381  68.4766215  37.1174424  53.2313308  67.5072599
  36.8744400  54.9161375  68.9761129  36.3635524  55.3105907  69.7529654
  37.9464152  55.7063675  68.3806712  38.4805647  55.1536829  67.6078043
  37.3948970  57.0049203  67.7646725  36.9256123  57.5985577  68.5491887
  38.5190360  57.8094204  67.1230215  38.9885312  57.2165681  66.3380366
  38.1118343  58.7242095  66.6923846  39.2618913  58.0636930  67.8790726
  36.3051566  56.6900698  66.7497640  35.4915191  56.1580507  67.2427668
  35.9256858  57.6187047  66.3234558  36.7167595  56.0676557  65.9552298
  39.0089235  56.0153910  69.4266193  40.1617578  55.5886095  69.3016250
  38.6272104  56.7554691  70.4681737  37.6770356  57.0867719  70.5548087
  39.5997949  57.1734886  71.4722818  40.5019725  57.5866796  71.0212299
  38.9885122  58.2319205  72.4077905  38.1955922  57.7709025  72.9967213
  40.0521644  58.7917363  73.3402224  40.8452516  59.2533589  72.7519893
  39.6047200  59.5389468  73.9956386  40.4697361  57.9845912  73.9420963
  38.3400462  59.3457914  71.5999983  37.5511947  58.9292056  70.9736824
  37.9130174  60.0853114  72.2773876  39.0905836  59.8221774  70.9692441
  40.1047887  55.9679177  72.2532255  41.3117785  55.8029196  72.4638063
  39.1851336  55.1108765  72.7011685  38.1994255  55.2734846  72.5527181
  39.5838186  53.9414846  73.4747283  40.1780436  54.2466838  74.3360351
  38.3426473  53.2011616  73.9749129  37.8425969  53.9610931  74.5753736
  37.7217094  52.9521235  73.1143804  38.5659343  51.9450289  74.8239285
  37.6716045  51.7689740  75.4216574  38.8444370  50.7222274  73.9529809
  39.7389509  50.8973621  73.3552591  38.9977976  49.8501117  74.5885874
  37.9956608  50.5450395  73.2924630  39.6904095  52.1577530  75.8279419
  39.4356471  52.9856652  76.4895739  39.8281228  51.2513339  76.4174677
  40.6136932  52.3887811  75.2966489  40.4649819  53.0183959  72.6452463
  41.4988015  52.5367124  73.1206145  40.0733727  52.7612184  71.3952387
  39.1996696  53.1151508  71.0326453  40.8820998  51.9046993  70.5359660
  41.0511551  50.9435933  71.0215530  40.1644025  51.6617284  69.2086296
  40.0316151  52.6340480  68.7342234  40.8237828  51.0463951  68.5965162
  38.8160967  50.9771579  69.3449696  38.2070569  51.5538142  70.0411297
  38.3361941  50.9659201  68.3663638  38.9574260  49.5535661  69.8555913
  39.6377999  49.0135481  69.1971304  39.3748359  49.5846143  70.8620228
  37.6144811  48.8449926  69.8865221  36.9427236  49.4175922  70.5260314
  37.2182057  48.8232462  68.8713413  37.7269034  47.4541174  70.4048256
  38.0936789  47.4740714  71.3456642  36.8143155  47.0213692  70.4083299
  38.3489914  46.9232454  69.8121365  42.2557468  52.5130788  70.2913496
  43.2669650  51.8013341  70.2870732  42.3147359  53.8299822  70.0880895
  41.4784916  54.3955245  70.0571584  43.5973881  54.4789111  69.8447715
  44.1244642  53.9879492  69.0266967  43.3825433  55.9466452  69.4762657
  42.9281083  56.4608984  70.3231025  44.7079458  56.6121506  69.1304263
  45.1627867  56.0986974  68.2833223  44.5339544  57.6564075  68.8709004
  45.3770963  56.5583543  69.9891720  42.4989962  56.0349470  68.3511820
  42.3651340  56.9572953  68.1210630  44.5059146  54.3617460  71.0610305
  45.6855622  54.0143306  70.9380542  43.9720348  54.6470907  72.2495096
  43.0017794  54.9122373  72.3411673  44.8027574  54.6443278  73.4452096
  45.7748885  55.0847190  73.2235884  44.1369089  55.4619975  74.5528901
  43.0734020  55.4372107  74.3153234  44.3044406  54.9829662  75.5175465
  44.6110435  56.9146834  74.6162707  45.6993143  56.9320445  74.6751450
  44.1591465  57.6711460  73.3790733  43.0708875  57.6546148  73.3197612
  44.5036590  58.7036002  73.4378111  44.5781422  57.1988448  72.4905495
  44.1119189  57.5975387  75.8777117  44.4911339  57.0686721  76.7521232
  44.4638337  58.6289929  75.8966729  43.0220638  57.5857247  75.8909479
  45.0982724  53.2408475  73.9516747  46.0217700  53.0704675  74.7536777
  44.3431992  52.2350693  73.5079927  43.5700748  52.3980371  72.8788509
  44.5862641  50.8749998  73.9644131  44.7967881  50.8718254  75.0338843
  43.3531514  50.0085214  73.7066123  42.4611000  50.4782113  74.1210213
  43.2181142  49.8546770  72.6360064  43.4480308  48.6538820  74.3237703
  43.8598013  47.5035317  73.7191693  44.1501341  47.5740591  72.6709172
  43.8148248  46.4601573  74.6099173  44.0727230  45.5042486  74.4103513
  43.3680531  46.9277623  75.8167647  43.1608594  46.2574960  77.0169409
  43.3726363  45.1891516  77.0604087  42.7000575  46.9893980  78.0761053
  42.5204813  46.4969610  79.0318030  42.4522480  48.3607477  77.9630684
  42.0875507  48.9345304  78.8150478  42.6606963  49.0283616  76.7742232
  42.4521954  50.0976005  76.7373960  43.1278746  48.3059311  75.6735903
  45.7986759  50.2475468  73.2928646  46.3266976  49.2522076  73.8009029
  46.2502738  50.8064198  72.1692854  45.8099063  51.6498894  71.8305601
  47.3233992  50.2244322  71.3799482  47.5801631  49.2373907  71.7645526
  46.8729269  50.0798161  69.9177259  45.8584892  49.6817477  69.9413256
  46.8588053  51.0841762  69.4944514  47.7504108  49.1805314  69.0597160
  48.7937889  49.3758211  69.3073546  47.5113557  48.1420619  69.2889230
  47.5244799  49.4375556  67.5750401  47.8677154  50.4467688  67.3474943
  48.1161657  48.7171230  67.0102531  46.0579405  49.3019200  67.1902685
  45.7084600  48.3217434  67.5146414  45.4950192  50.0778050  67.7091340
  45.8549759  49.4397976  65.7226405  46.3761647  48.7206712  65.2416840
  44.8726515  49.3441540  65.5081852  46.1783548  50.3481484  65.4219346
  48.6093323  51.0353445  71.4310018  49.6502817  50.5421952  70.9865594
  48.5686812  52.2523261  71.9671289  47.7102266  52.6166902  72.3549352
  49.7452809  53.1085185  71.9705491  50.0679682  53.3027354  70.9476846
  49.4218898  54.4429335  72.6424277  48.4743540  54.8335519  72.2713586
  49.3597112  54.3051313  73.7218926  50.4463948  55.5078059  72.4050309
  51.5353834  55.6905873  73.2296337  52.2607940  56.6989236  72.7800125
  53.1707888  57.0022155  73.2977214  51.6813722  57.1774928  71.6947812
  52.0126436  57.9511746  71.1364125  50.5435030  56.4512680  71.4388786
  49.9217737  56.6976460  70.5781511  50.8981486  52.4187748  72.6896560
  50.6985037  51.5795270  73.5702070  52.1216259  52.7821467  72.3027359
  52.2520786  53.4956383  71.5998766  53.3020739  52.1217415  72.8439424
  53.1908320  51.0399098  72.7706992  54.5437572  52.5393974  72.0568926
  54.6348908  53.6217507  72.1480254  55.4017592  52.0619301  72.5301341
  54.4988442  52.1572379  70.5870048  53.9929092  51.1964618  70.4919261
  53.9379029  52.9179619  70.0440998  55.8787102  52.0410506  69.9708763
  56.8913654  52.1638724  70.6594569  55.9236818  51.8042234  68.6657317
  56.8166253  51.7172165  68.2018533  55.0647547  51.7120954  68.1424173
  53.5161995  52.4180794  74.3203678  54.3629814  51.7725367  74.9458597
  52.7844703  53.3778205  74.8868308  52.1745011  53.9325741  74.3034909
  52.8646609  53.6998295  76.3036959  53.7100481  53.1823378  76.7571515
  53.0576018  55.2061494  76.4879875  52.2962884  55.7438360  75.9228377
  52.9802283  55.4697781  77.5427923  54.3907255  55.7201468  76.0121031
  55.4875293  54.8825317  75.9052561  55.3829192  53.8299098  76.1682081
  56.7022307  55.3668145  75.4718005  57.5573547  54.6958561  75.3900783
  56.8366130  56.6954887  75.1423052  57.7977887  57.0784697  74.7994253
  55.7579132  57.5401286  75.2457032  55.8620861  58.5935293  74.9857123
  54.5438203  57.0543723  75.6784818  53.6874977  57.7235871  75.7619263
  51.6267093  53.2375119  77.0657576  51.3926658  53.6855116  78.1918628
  50.8262003  52.3508103  76.4727359  51.0693728  51.9368977  75.5841174
  49.5438908  51.9997762  77.0708941  49.1332726  52.8921264  77.5433379
  48.5738990  51.5310223  75.9860500  48.9670039  50.6327680  75.5099117
  47.6055308  51.3096420  76.4347749  48.4566368  52.3159891  75.2389383
  49.6743629  50.9261766  78.1422721  48.9258676  50.9493254  79.1251047
  50.6045029  49.9880656  77.9788145  51.2961081  50.0522509  77.2455602
  50.5666775  48.7750366  78.7903148  49.6198329  48.2555124  78.6430769
  51.7104874  47.8358920  78.3809993  51.5995808  46.8915618  78.9139528
  51.6684528  47.6535748  77.3071774  53.0840825  48.3329051  78.6755847
  53.9220278  48.9728364  77.8129083  53.5506098  49.1449633  76.8027000
  55.1061391  49.2732926  78.4388322  55.8909628  49.7487186  78.0167881
  55.0499596  48.8242052  79.7305433  55.9970963  48.8951716  80.7463384
  56.9535107  49.3731268  80.5343735  55.6643808  48.3560262  81.9559803
  56.3813417  48.3932541  82.7761517  54.4198903  47.7540208  82.1698727
  54.1657470  47.3262136  83.1396622  53.4777589  47.6829980  81.1631298
  52.5224050  47.2056102  81.3810762  53.7893528  48.2254578  79.9154762
  50.5812436  49.0381165  80.2927005  49.8277378  48.3582343  81.0110028
  51.3764838  49.9673452  80.8342180  52.1398822  51.0486752  80.1919342
  51.4763304  51.8791753  79.9509592  52.6075279  50.6811057  79.2785344
  53.1383675  51.3998301  81.2393005  53.4859669  52.4230898  81.0971273
  53.9874699  50.7181157  81.1903908  52.4100551  51.2481181  82.5248333
  51.8759857  52.1682079  82.7621171  53.0819588  50.9966778  83.3454568
  51.4077188  50.1058163  82.2993238  51.7717851  49.1638439  82.7094971
  50.0550208  50.4309395  82.9046046  49.7830679  50.0281983  84.0418395
  49.1987754  51.1466096  82.1814932  49.4613630  51.4303212  81.2484043
  47.9113435  51.5855717  82.6995843  47.9393704  51.6196248  83.7886913
  47.5839974  52.9857343  82.1746862  47.4046427  52.9556484  81.0999648
  46.6970278  53.3679145  82.6799814  48.6749343  53.9935597  82.4002984
  49.7713864  54.0494926  81.5580721  49.8393267  53.3498179  80.7250418
  50.7717600  54.9771175  81.7631126  51.6321909  55.0072806  81.0946446
  50.6834668  55.8639412  82.8110296  51.4710340  56.5999438  82.9727019
  49.5988309  55.8206658  83.6555284  49.5286436  56.5204895  84.4882473
  48.5993734  54.8914496  83.4488666  47.7381232  54.8598488  84.1162116
  46.7734122  50.6371251  82.3453381  45.6096128  50.9706467  82.5895984
  47.0726549  49.4713655  81.7780071  48.0382802  49.2143400  81.6310208
  46.0364138  48.5681655  81.2955663  45.1836776  49.1402964  80.9300443
  46.5784866  47.7108037  80.1482609  47.5861706  47.4013266  80.4255625
  45.9374230  46.8325913  80.0715766  46.6194345  48.4264391  78.8077531
  45.6143225  48.7631721  78.5538601  47.2792135  49.2893772  78.8979281
  47.1302286  47.5413526  77.6897221  47.7542929  46.5105611  77.9358655
  46.8601207  47.9367898  76.4519393  47.1769269  47.3842467  75.6680826
  46.3390029  48.7884412  76.2995338  45.4699033  47.6633140  82.3835367
  44.7004403  46.7507465  82.0622871  45.8180791  47.8811704  83.6475941
  46.4525016  48.6325876  83.8777674  45.3372192  47.0301172  84.7249947
  44.3066100  46.7381804  84.5232110  46.1918120  45.7578494  84.8560822
  45.6564211  45.0870321  85.5279900  46.2448402  45.3107679  83.8634060
  47.6042486  45.9875713  85.3862450  47.5542811  46.6530285  86.2480866
  48.0185041  45.0271489  85.6929748  48.5223264  46.6022292  84.3537186
  48.1156261  46.8651732  83.2224537  49.7693246  46.8411582  84.7387906
  50.4254143  47.2509227  84.0893748  50.0567519  46.6121768  85.6795639
  45.3643026  47.8281431  86.0196449  46.0662940  48.8420546  86.1113863
  44.6172573  47.3999625  87.0348757  43.6683469  46.2737817  87.0556583
  44.2115226  45.3390151  87.1944814  43.1202992  46.2385570  86.1141160
  42.7851111  46.6033287  88.2179738  42.3830051  45.6867698  88.6496328
  41.9638849  47.2407995  87.8903766  43.6625216  47.3212352  89.1854395
  44.2073220  46.5777000  89.7672014  43.1338444  47.9940512  89.8606571
  44.6390178  48.1174661  88.3124140  44.3078170  49.1419587  88.1426519
  46.0357095  48.1300277  88.9111297  46.8304823  47.2099467  88.7108396
  46.3319199  49.1924495  89.6536318  45.6571223  49.9347794  89.7706528
  47.6422385  49.3461387  90.2722647  48.4442861  49.0635271  89.5903926
  47.8779874  50.7936786  90.7352073  47.1168117  51.0595007  91.4687258
  49.2571510  50.9354589  91.3618749  50.0189269  50.6702323  90.6287629
  49.4064304  51.9661604  91.6835430  49.3355453  50.2716982  92.2229078
  47.7144615  51.7488108  89.5714501  46.7048502  51.6632515  89.1696209
  47.8839110  52.7701493  89.9124105  48.4367545  51.5014793  88.7934907
  47.7346121  48.3755124  91.4412440  47.2197056  48.6470247  92.5306591
  48.3927449  47.2382331  91.2245692  48.7535977  47.0397665  90.3023460
  48.5676393  46.2297535  92.2694701  47.6512866  46.1412338  92.8530462
  48.8870842  44.8728394  91.6563045  48.1986876  44.7072983  90.8275672
  49.9084558  44.9106683  91.2775315  48.7598962  43.7383029  92.6523699
  48.4716046  44.0145292  93.8362335  48.9457756  42.5711525  92.2505618
  49.6761871  46.7005478  93.2011571  50.8433071  46.3364067  93.0560604
  49.2947341  47.5223486  94.1817662  48.3201390  47.7450995  94.3254523
  50.2853100  48.1710657  95.0337529  50.9460400  48.7715331  94.4084738
  49.5905714  49.0917966  96.0344346  48.9322534  48.5036280  96.6737900
  50.3390801  49.5932652  96.6479199  49.0037621  49.8366590  95.4969086
  51.1492015  47.1520563  95.7622345  52.3631668  47.3421198  95.8990345
  50.5428841  46.0648056  96.2425043  49.5463038  45.9339997  96.1434252
  51.3008906  45.0689700  96.9981952  51.7898275  45.5000485  97.8718148
  50.3728733  43.9333893  97.4643811  49.8200511  43.5528441  96.6055027
  51.1814544  42.8040015  98.0879849  51.7342283  43.1837021  98.9472692
  50.5082357  42.0101829  98.4116036  51.8815872  42.4084427  97.3521528
  49.3415656  44.4627515  98.4486667  48.7424408  45.2357283  97.9673577
  48.6926329  43.6477436  98.7692101  49.8493737  44.8847511  99.3159314
  52.4559199  44.5374421  96.1593547  53.6092874  44.5089538  96.6065738
  52.1671364  44.1129224  94.9287759  51.2154782  44.0554184  94.5954005
  53.2365524  43.6540650  94.0497939  53.8638752  42.9331173  94.5740073
  52.6515678  42.9812673  92.8097804  51.8599955  43.6293296  92.4335788
  53.4497322  42.9166684  92.0702801  52.0897923  41.5956726  93.0695759
  52.8440717  41.0084399  93.5933326  51.2046205  41.6927966  93.6981775
  51.7156929  40.8980806  91.7732268  50.9699794  41.5030797  91.2574879
  52.6088313  40.8171352  91.1536697  51.1521073  39.5124969  92.0313719
  51.9083190  38.9308389  92.5585515  50.2694674  39.6167850  92.6623790
  50.7801577  38.8148233  90.7696258  51.5979817  38.7177028  90.1849625
  50.4110758  37.9001313  90.9869207  50.0791329  39.3534233  90.2811860
  54.1519174  44.8030452  93.6508937  55.3723525  44.6272781  93.5558141
  53.5871827  45.9862283  93.4188496  52.5912158  46.1022283  93.5400653
  54.3600403  47.1201852  92.9319555  55.1311693  46.7798469  92.2408483
  53.4399940  48.0971786  92.1957085  52.7097688  48.3941314  92.9484963
  54.0218175  48.9672691  91.8915308  52.7119192  47.5196132  90.9787388
  52.2991570  46.5463620  91.2442766  51.5891390  48.4415921  90.5359733
  52.0012100  49.4149650  90.2698126  51.0854527  48.0117814  89.6701421
  50.8738145  48.5606548  91.3497517  53.6860175  47.2757966  89.8385212
  54.4520620  46.5697499  90.1591041  53.1494784  46.8653683  88.9830823
  54.1563386  48.2171051  89.5542058  55.1052486  47.8565707  94.0372622
  55.8574504  48.7883269  93.7340777  54.9231876  47.4705119  95.3002116
  54.2357986  46.7596596  95.5058441  55.6289667  48.0957013  96.4171271
  55.2439128  47.7067991  97.3597764  57.1292393  47.7985136  96.3415399
  57.2665377  46.7217939  96.2419254  57.5445668  48.2996541  95.4672052
  57.8778879  48.2702549  97.5709981  57.3339494  48.2872704  98.6742173
  59.1328979  48.6597472  97.3859776  59.6788397  48.9839064  98.1714508
  59.5363686  48.6302368  96.4605364  55.3681875  49.6030750  96.4513019
  56.2769594  50.4248078  96.3156006  54.0956836  49.9553359  96.6397932
  53.3988664  49.2280826  96.7149459  53.6532808  51.3482100  96.6979001
  54.5129890  52.0107580  96.5977438  52.6695866  51.6511485  95.5695451
  51.8110525  51.0162003  95.7883127  52.3709641  52.6978256  95.6277821
  53.1839478  51.3454434  94.1611808  53.6020228  50.3388754  94.1495661
  52.0579219  51.4375709  93.1451221  51.6396252  52.4440559  93.1558286
  52.4460377  51.2165270  92.1508351  51.2791933  50.7183119  93.3987923
  54.3215660  52.2807927  93.7903930  55.1404957  52.1564188  94.4989017
  54.6725155  52.0463469  92.7854199  53.9693232  53.3118726  93.8203630
  53.0184905  51.5917277  98.0610033  51.7982914  51.4352285  98.2251345
  53.8066597  51.9769568  99.0726479  55.2178338  52.4010522  99.0146999
  55.3430977  53.1321738  98.2160320  55.8479258  51.5342822  98.8152185
  55.4632385  52.9863293 100.3763181  55.2888599  54.0618847 100.3467925
  56.4938101  52.7939154 100.6746476  54.5102448  52.3070166 101.2922014
  54.2610852  52.9563900 102.1314467  54.8959866  51.3595803 101.6685885
  53.2623742  52.0605189 100.4354156  52.7972032  51.1010649 100.6616059
  52.2410676  53.1720502 100.6121418  51.1325275  52.9330711 101.1004416
  52.6014795  54.3910438 100.2164135  53.5000127  54.5255378  99.7752234
  51.7635906  55.5597481 100.4468444  51.1658040  55.4197191 101.3474788
  52.6396387  56.8034458 100.6291428  53.2228679  56.9405072  99.7185621
  51.9793447  57.6592814 100.7693467  53.5759919  56.6881579 101.8161076
  53.4338469  55.7220703 102.5945879  54.4540579  57.5621311 101.9689147
  50.7634537  55.8067659  99.3264595  49.9850391  56.7632069  99.4121006
  50.7622649  54.9768463  98.2825308  51.3888255  54.1860146  98.2366364
  49.8933644  55.2376912  97.1407025  50.0834173  56.2363268  96.7473756
  50.1617652  54.2187608  96.0355659  51.2026181  54.3283967  95.7310920
  50.0120221  53.2285988  96.4659798  49.2656328  54.3847110  94.8320899
  49.4451317  55.4380467  93.9489891  50.2485841  56.1505405  94.1358479
  48.6267691  55.5933774  92.8473812  48.7748426  56.4288799  92.1631943
  47.6153246  54.6832681  92.6164247  46.7963274  54.8282343  91.5190799
  47.0176229  55.5942564  90.9844417  47.4206786  53.6274840  93.4779483
  46.6228559  52.9073430  93.2963548  48.2433027  53.4837341  94.5773826
  48.0948221  52.6502094  95.2638884  48.4256810  55.2186758  97.5438373
  47.6476292  56.0809805  97.1213021  48.0271537  54.2471040  98.3623062
  48.6941289  53.5853058  98.7328013  46.6191505  54.0635663  98.6867856
  46.0042563  54.2664983  97.8099602  46.3689303  52.6229845  99.1365276
  47.2756360  52.2632717  99.6229335  45.5526859  52.6414262  99.8586806
  46.0102660  51.7004423  97.9950628  44.8931016  51.9441095  97.2065941
  44.2752858  52.8144759  97.4276492  44.5599737  51.1104713  96.1619228
  43.6811505  51.3151013  95.5504507  45.3467981  50.0139245  95.8910233
  45.0149679  49.1781764  94.8491564  44.2218919  49.4548564  94.3843142
  46.4599213  49.7486073  96.6565150  47.0821352  48.8799068  96.4413178
  46.7863868  50.5896350  97.7012708  47.6666806  50.3853355  98.3107334
  46.1201129  55.0337889  99.7482514  44.9197781  55.0370301 100.0419180
  46.9986384  55.8513535 100.3255416  47.9884951  55.7061453 100.1869857
  46.5759954  56.9381093 101.1961360  45.5736527  56.7400492 101.5758470
  47.5334112  57.0715601 102.3864821  48.5451786  57.0910173 101.9814543
  47.3158813  58.0262685 102.8653480  47.4193300  55.9542095 103.4100949
  46.3855367  55.8980933 103.7510102  47.6952925  55.0142361 102.9321860
  48.3320776  56.2045083 104.5999080  49.3647715  56.1869194 104.2515792
  48.1036303  57.1889737 105.0082452  48.1444242  55.1533492 105.6791969
  47.0952505  55.1493377 105.9746947  48.4071555  54.1818606 105.2605308
  48.9935422  55.4258412 106.8698655  48.7499511  56.3258110 107.2582179
  48.8413541  54.7075332 107.5633873  49.9657950  55.4291776 106.5963467
  46.5007202  58.2742710 100.4743441  45.7811034  59.1690275 100.9331767
  47.2230014  58.4282785  99.3644939  47.7744337  57.6620586  99.0054272
  47.2980133  59.7131560  98.6811300  47.1159819  60.5298361  99.3796980
  48.6837752  59.8892316  98.0368293  48.9345597  58.9836212  97.4844912
  48.6859036  61.0777296  97.0885995  48.4356408  61.9838465  97.6403434
  49.6747117  61.1857997  96.6428641  47.9488854  60.9168004  96.3018306
  49.7416485  60.0831621  99.1252760  49.6354023  61.1016033  99.4988934
  49.5135542  59.3778861  99.9244369  51.1634646  59.8655474  98.6509136
  51.3924591  60.5708243  97.8520106  51.8520234  60.0218751  99.4813037
  51.2706102  58.8471071  98.2775518  46.2026034  59.8742639  97.6325541
  45.8332734  61.0106078  97.3058680  45.6736928  58.7754420  97.0983658
  46.0511110  57.8801614  97.3742778  44.6098516  58.7995917  96.1015184
  44.3003332  59.8230024  95.8895561  45.0339556  58.1105433  94.7920406
  45.3967200  57.1080576  95.0190310  43.8519555  58.0179738  93.8337303
  43.4889113  59.0201662  93.6058929  44.1678827  57.5283906  92.9125359
  43.0527436  57.4390850  94.2965988  46.2064561  58.8543454  94.1472420
  47.0371042  58.8119601  94.8517474  46.4707807  58.3087066  93.2414218
  45.9131119  60.3018297  93.7980440  45.6491422  60.8482525  94.7034953
  46.7963868  60.7533360  93.3463066  45.0828166  60.3449989  93.0931709
  43.3880469  58.1182797  96.6959773  43.4943022  57.0209933  97.2550922
  42.2323513  58.7697940  96.5759493  42.2170635  59.6885259  96.1566673
  40.9826983  58.2211033  97.0812450  41.1851747  57.4652770  97.8400790
  40.1404375  59.3366156  97.7130006  40.7889455  59.8673610  98.4100271
  39.8479286  60.0085606  96.9061373  38.8997993  58.8535566  98.4439404
  38.1797270  58.4894835  97.7111052  39.1804422  58.0394923  99.1122524
  38.2746549  59.9797085  99.2520997  39.0088763  60.3295156  99.9778082
  38.0227623  60.7920905  98.5704216  37.0215239  59.5227717  99.9799468
  36.2928566  59.1989196  99.2368019  37.2852599  58.6810606 100.6203099
  36.4345373  60.6112358 100.8084192  36.1896874  61.3911130 100.2151740
  35.6062348  60.2699329 101.2748173  37.1094251  60.9111749 101.4973764
  40.1601513  57.5160654  96.0124906  39.2440010  56.7623967  96.3597169
  40.4597700  57.7367116  94.7322242  41.2208614  58.3644889  94.5160415
  39.7049897  57.1537319  93.6226719  39.0959548  56.3225908  93.9781719
  38.7863644  58.1902814  92.9737237  38.4462303  57.8075056  92.0114910
  37.5834441  58.4714296  93.8610148  37.9227885  58.8547014  94.8233285
  36.9425385  59.2112392  93.3814099  37.0217090  57.5501177  94.0150878
  39.5123864  59.4060419  92.7526257  38.9336948  60.0547676  92.3453525
  40.6768650  56.5805718  92.5990602  40.9821000  57.2238276  91.5856602
  41.1872293  55.3723054  92.8324002  41.0896016  54.5706979  94.0624218
  40.1349115  54.0450759  94.0821384  41.1621211  55.2239762  94.9319431
  42.2532467  53.6419855  93.9495312  42.0352023  52.7139264  94.4779838
  43.1381220  54.1074157  94.3836647  42.4390382  53.4052779  92.4826747
  41.7739790  52.5965921  92.1796525  43.4622060  53.1593282  92.1985335
  42.0090382  54.7141863  91.8086061  42.8589766  55.3568159  91.5789755
  41.2095234  54.4584982  90.5388038  40.0172858  54.1470820  90.5852071
  41.8822530  54.5868826  89.3958766  42.8599403  54.8395300  89.4157788
  41.2387956  54.4190101  88.1003156  40.4337305  53.6893479  88.1872780
  40.6481444  55.7435177  87.5964817  40.0036316  56.1227755  88.3894924
  41.4850982  56.4265593  87.4513523  39.8509719  55.6355584  86.3026645
  39.3434895  56.5876305  86.1473545  40.5593320  55.4654948  85.4918585
  38.6301465  54.3073794  86.3119191  37.5299201  54.8680690  87.6077007
  37.1151053  55.8392613  87.3378618  36.7197825  54.1497297  87.7332654
  38.0839323  54.9571367  88.5421731  42.2552018  53.8759393  87.1044101
  43.4635991  54.0700560  87.2643093  41.7550158  53.1927376  86.0755009
  40.7589569  53.0456509  85.9959291  42.6227936  52.6092545  85.0605574
  43.4561816  53.2852554  84.8692817  43.1826059  51.2567987  85.5059289
  44.0227776  50.9995714  84.8609136  43.5338158  51.3693155  86.5316440
  42.1450207  50.1555223  85.4459864  41.3681056  50.0151883  86.4134668
  42.0981336  49.4380050  84.4250444  41.8436690  52.4408527  83.7653321
  40.6113557  52.3817404  83.7597957  42.5904103  52.3594567  82.6610368
  43.5971720  52.4228619  82.7111377  41.9692075  52.2390773  81.3456228
  41.3151698  53.0918414  81.1636139  43.0410711  52.2050107  80.2577107
  43.6035506  51.2808018  80.3902021  42.5240468  52.1807276  79.2984421
  43.9934967  53.3849241  80.2885659  43.4274638  54.2683830  80.5838759
  44.7613408  53.1798936  81.0345417  44.7797053  53.6901599  78.6987841
  45.4861315  52.0822622  78.3563632  44.6915246  51.3373692  78.3135464
  46.0087801  52.1105990  77.4002585  46.1890400  51.8179356  79.1463962
  41.0867393  51.0011182  81.2558385  40.0201195  51.0379639  80.6335537
  41.5239669  49.8864561  81.8444900  42.4055663  49.8504906  82.3360064
  40.7175308  48.6773172  81.7854224  40.5782333  48.4048004  80.7392724
  41.2521982  47.8790459  82.3001972  39.3600803  48.8584244  82.4325340
  38.3463470  48.3638833  81.9287059  39.3178732  49.5797161  83.5542429
  40.1629248  49.8864026  84.0146020  38.0389361  49.8976845  84.1749224
  37.4915900  48.9856692  84.4131227  38.2617962  50.6855053  85.4668643
  38.8815648  51.5546937  85.2466398  36.9373616  51.1439032  86.0541439
  36.3171911  50.2751810  86.2750737  37.1202367  51.7020936  86.9723374
  36.4232889  51.7837099  85.3368733  38.9434675  49.8629791  86.4207237
  39.0820551  50.3597059  87.2304498  37.1628249  50.6850572  83.2129175
  35.9560365  50.4341211  83.1072306  37.7570651  51.6458810  82.5051144
  38.7293526  51.8729579  82.6574050  37.0011353  52.4481480  81.5507634
  36.0869715  52.8754619  81.9628393  37.8859812  53.5747105  80.9900793
  38.8570039  53.1635988  80.7140313  37.2334883  54.1911249  79.7695805
  36.2625525  54.6028900  80.0449597  37.8682068  54.9873953  79.3807532
  37.0995964  53.4272036  79.0036847  38.2076856  54.5988711  82.0824659
  37.3275647  55.2303834  82.2036271  38.3860184  54.0444172  83.0038115
  39.4093906  55.4634016  81.7742289  39.2315989  56.0185520  80.8531979
  39.5739911  56.1631414  82.5936007  40.2900527  54.8325850  81.6533800
  36.4412420  51.5756729  80.4370328  35.2797366  51.7253785  80.0377107
  37.2569040  50.6669110  79.9000389  38.2215169  50.5737945  80.1845569
  36.7669212  49.8099058  78.8272864  36.3614840  50.4279360  78.0261881
  37.8865409  48.9433691  78.2559310  38.7652960  49.5717750  78.1110352
  38.1156643  48.1603031  78.9787105  37.4918330  48.3087534  76.9280656
  36.4029848  48.2776958  76.8887465  37.8654341  48.9523264  76.1316122
  38.0438458  46.9085310  76.7466679  37.6816795  46.2985610  77.5742374
  37.6525571  46.5158747  75.8081513  39.5572975  46.8711612  76.7171130
  39.9193793  47.4835861  75.8913206  39.9483658  47.2612625  77.6567862
  40.0180037  45.4678148  76.5328265  39.6560936  45.1062937  75.6619515
  41.0275518  45.4447272  76.5133448  39.6829557  44.9002485  77.2981437
  35.6317616  48.9277577  79.3193367  34.6292181  48.7439353  78.6204763
  35.7733492  48.3628795  80.5194198  36.6236356  48.4573469  81.0562516
  34.7037465  47.5319842  81.0592764  34.4706482  46.7250900  80.3645203
  35.1383002  46.9199858  82.3903692  36.0575730  46.3650049  82.2031984
  35.3453382  47.7460615  83.0706884  34.1058786  45.9941457  83.0166726
  34.4439795  45.7292360  84.0184767  33.1588089  46.5296290  83.0831456
  33.9159896  44.7304852  82.1962299  33.5466769  45.0085469  81.2091185
  34.8803481  44.2324685  82.0957735  32.9276202  43.7891390  82.8589472
  32.0052801  44.3394036  83.0449536  32.7272832  42.9668299  82.1720906
  33.4487260  43.2467863  84.1428363  33.6340213  44.0085684  84.7795886
  32.7626919  42.6271765  84.5497034  34.3031588  42.7365002  83.9706394
  33.4229493  48.3385659  81.2307715  32.3350813  47.8733928  80.8696410
  33.5308418  49.5513315  81.7766467  34.4206149  49.9062555  82.0966970
  32.3446617  50.3758953  81.9777941  31.6056870  49.8308375  82.5650994
  32.7184597  51.6547424  82.7281235  33.6179680  52.0528663  82.2585691
  31.8972632  52.3588787  82.5942267  32.9713942  51.4480435  84.2132056
  32.0505239  51.0909674  84.6742861  33.7510251  50.6952259  84.3295820
  33.4080088  52.7368980  84.8874369  34.3955813  53.0135358  84.5182879
  32.6954003  53.5244963  84.6425342  33.4727762  52.6000817  86.3363725
  33.3201883  51.6774659  86.7179433  33.7128091  53.5985917  87.1733911
  33.9195727  54.8313258  86.7396441  33.8957929  55.0253876  85.7487483
  34.1002372  55.5726068  87.4014314  33.7503337  53.3547954  88.4806295
  33.5964045  52.4163570  88.8208341  33.9325780  54.1092575  89.1269056
  31.6803966  50.7125426  80.6496023  30.4524134  50.6448963  80.5247411
  32.4782526  51.0775974  79.6460935  33.4744974  51.1761002  79.7798574
  31.9212590  51.3999028  78.3377038  31.1573871  52.1713937  78.4346611
  33.0250768  51.9188664  77.4189503  33.7974567  51.1520659  77.4784941
  32.6394439  51.9670866  76.4005878  33.6216892  53.2737026  77.8024101
  33.7851490  53.2983088  78.8798033  34.9439056  53.4919808  77.0844758
  34.7811636  53.4679668  76.0069614  35.3561415  54.4604715  77.3676506
  35.6437378  52.7042223  77.3633519  32.6499892  54.4021924  77.4964546
  31.7297109  54.2530691  78.0612107  33.0983516  55.3548704  77.7783715
  32.4242381  54.4088769  76.4301100  31.2384428  50.1868318  77.7188858
  30.1424704  50.2971901  77.1583613  31.8737630  49.0164547  77.8166440
  32.7442324  48.9428110  78.3235551  31.3643908  47.8284692  77.1410730
  31.1328931  48.0571586  76.1007801  32.4207087  46.7241711  77.1750311
  33.3429977  47.1511474  76.7811103  32.5648367  46.4510542  78.2203704
  32.0541576  45.4873387  76.3752218  31.3871685  44.8766262  76.9837090
  31.5291226  45.8139253  75.4775700  33.2678784  44.6699231  75.9809232
  34.3548610  44.9070247  76.5481425  33.1357974  43.7882568  75.1062621
  30.0619894  47.3381159  77.7585309  29.2083624  46.7970480  77.0479006
  29.8897637  47.5133181  79.0701359  30.6501700  47.8898474  79.6179563
  28.6700865  47.1157772  79.7622903  28.0301170  46.5452209  79.0892348
  29.0085013  46.2431051  80.9717009  29.7715503  46.7433485  81.5680330
  28.1059142  46.1166198  81.5695621  29.5242330  44.8714930  80.5757941
  30.5695977  44.4306707  81.0508883  28.7877727  44.1873800  79.7072427
  29.0856362  43.2691527  79.4101976  27.9333745  44.5886317  79.3479355
  27.8373860  48.3181464  80.1914491  27.0511020  48.2183092  81.1391753
  28.0031933  49.4542461  79.5117460  28.8035227  49.5322731  78.9006127
  27.1353513  50.6231358  79.6720216  27.6262507  51.5005046  79.2509027
  25.7968997  50.4204297  78.9560702  25.1691755  51.2940249  79.1318347
  25.9896800  50.3211842  77.8878539  25.0539330  49.1860773  79.4313340
  25.0184046  48.1656343  78.7431336  24.4589194  49.2705927  80.6164622
  23.9504228  48.4775002  80.9805161  24.5178937  50.1275354  81.1477551
  26.9137473  50.9618867  81.1430775  25.8027538  51.2800123  81.5716921
  27.9905366  50.8953917  81.9291259  28.8744013  50.5492531  81.5840598
  27.8960566  51.2695213  83.3355225  27.0649273  50.7415708  83.8030602
  29.1836029  50.9047903  84.0738754  29.4244557  49.8727452  83.8189793
  29.9684932  51.5631180  83.7015156  29.0817020  51.0421321  85.5783456
  28.4597874  50.0658479  86.3436648  28.0423353  49.1920295  85.8433904
  28.3644891  50.1870872  87.7177850  27.8722252  49.4131497  88.3066813
  28.8941668  51.2957191  88.3420853  28.8009262  51.4197067  89.7091194
  28.3499736  50.6801221  90.1229503  29.5179580  52.2782297  87.6062569
  29.9385305  53.1544613  88.0996508  29.6090087  52.1478857  86.2318879
  30.1014464  52.9213527  85.6425204  27.6038581  52.7549240  83.4882347
  26.9399841  53.1619553  84.4486527  28.0866953  53.5707821  82.5556733
  28.5998137  53.1951970  81.7709793  27.9007139  55.0070832  82.6315613
  28.2195233  55.3760649  83.6064009  28.7358377  55.6944483  81.5523414
  28.4339453  55.2635139  80.5977443  28.4717151  56.7517652  81.5728422
  30.2286192  55.5456320  81.7216519  30.9076533  56.2420485  82.7023454
  30.3417212  56.9011521  83.3606787  32.2717212  56.1173966  82.8584686
  32.7916792  56.6790118  83.6345703  32.9768734  55.2767775  82.0280651
  34.3361729  55.1465697  82.1875636  34.6831404  55.6845327  82.9029719
  32.3260522  54.5689383  81.0399854  32.8825609  53.9064664  80.3770151
  30.9594179  54.7037526  80.8934089  30.4366699  54.1442520  80.1176553
  26.4312934  55.3722501  82.4259368  25.6156639  54.5719673  81.9591338
  26.0975475  56.6110960  82.7928558  26.7230833  57.1220305  83.3992799
  24.8467525  57.2461969  82.3971039  24.2447258  56.5462930  81.8176235
  24.0463492  57.6743458  83.6334291  23.6986012  56.7989119  84.1818688
  24.6645949  58.2898724  84.2868809  22.8279682  58.4869036  83.3044859
  22.6756564  59.8340710  83.4628333  23.5259461  60.3800720  83.8714775
  21.4229514  60.2215987  83.0517913  21.0646625  61.1657614  83.0686843
  20.7378803  59.1184874  82.6155240  19.4440984  59.0068406  82.1093054
  18.8379406  59.9089662  82.0265963  19.0142399  57.7607186  81.7454501
  18.0087650  57.6353851  81.3436894  19.8384235  56.6351960  81.8769232
  19.4847373  55.6462621  81.5853493  21.1241385  56.7436669  82.3798497
  21.7257335  55.8385026  82.4626846  21.5914080  58.0062916  82.7591348
  25.0542969  58.4568958  81.5024590  24.1727111  58.7779018  80.7027443
  26.2012039  59.1254567  81.6202197  26.8553121  58.8320024  82.3316454
  26.5451113  60.2755611  80.7998140  25.8527388  60.3401173  79.9604381
  26.4655078  61.5790196  81.6016053  25.4740682  61.6582313  82.0475564
  27.2169726  61.5499682  82.3906280  26.7099385  62.8026364  80.7459673
  27.8364304  63.0659372  80.3272101  25.6510146  63.5581017  80.4792885
  25.7560157  64.3874370  79.9124750  24.7454346  63.2999200  80.8444840
  27.9508865  60.0947377  80.2457328  28.8064576  59.4648106  80.8732008
  28.1817910  60.6551253  79.0563957  27.4634283  61.1702606  78.5678367
  29.4733222  60.4784178  78.4010211  29.6923017  59.4123622  78.3404191
  29.4205094  61.0474689  76.9836303  29.2110692  62.1162290  77.0282041
  30.3791649  60.8858633  76.4907170  28.6335730  60.5467546  76.4196131
  30.5990542  61.1307178  79.1938724  31.6981418  60.5741381  79.2942038
  30.3468796  62.3104618  79.7642075  29.4498031  62.7643108  79.6673875
  31.3960327  63.0031301  80.5037664  32.2658855  63.1504756  79.8636535
  30.8990154  64.3692452  80.9742423  30.2507476  64.7675432  80.1937252
  30.3177989  64.2103229  81.8825545  32.0191541  65.3585029  81.2561706
  32.4652006  65.1148275  82.2204142  32.7721554  65.2638274  80.4737847
  31.5383942  66.7949718  81.2942219  30.4301810  67.0795892  81.7480449
  32.3727776  67.7098508  80.8165716  32.1040314  68.6834403  80.8172392
  33.2726695  67.4282956  80.4546011  31.8873003  62.2030617  81.6999214
  32.9810760  62.4762117  82.2066066  31.1094263  61.2236214  82.1606151
  30.1794793  61.0781972  81.7943506  31.5531111  60.3897364  83.2723999
  31.8318818  61.0153677  84.1203219  30.4264896  59.4530249  83.7062529
  29.5605583  60.0759923  83.9302480  30.2001835  58.8092621  82.8562793
  30.7603580  58.5944995  84.9177132  31.6128675  57.9659191  84.6603904
  31.0343297  59.2601421  85.7362231  29.5977429  57.7187754  85.3459988
  28.5454220  57.7552984  84.6722802  29.7352366  56.9948843  86.3538109
  32.8151535  59.6193201  82.8975202  33.6772417  59.3702872  83.7475711
  32.9275918  59.2090249  81.6317597  32.1682862  59.3389353  80.9785540
  34.1303405  58.5258309  81.1673672  34.4869126  57.8321028  81.9287454
  33.8164536  57.7376923  79.8976969  33.0163350  57.0191593  80.0755162
  33.5291997  58.4073248  79.0870321  35.2068245  56.7913050  79.2900275
  34.5755208  56.2760581  78.2388973  35.2731524  59.4992551  80.8941413
  36.4481072  59.1501384  81.0822921  34.9475375  60.7325659  80.5050020
  33.9913462  60.9778567  80.2913902  35.9820470  61.7395148  80.2992719
  36.8075724  61.3365831  79.7125412  35.3949268  62.9681536  79.5818902
  34.5868907  63.3803353  80.1862777  36.4690500  64.0282288  79.3803266
  37.2772649  63.6169024  78.7755953  36.0381814  64.8906986  78.8718006
  36.8617741  64.3370820  80.3490766  34.7884271  62.5589179  78.2363296
  35.6153023  62.3079760  77.5719455  34.1817020  61.6705878  78.4119821
  33.9367515  63.6321711  77.5972089  34.5429473  64.5207156  77.4208142
  33.5430534  63.2673541  76.6485205  33.1093478  63.8833290  78.2608524
  36.6119153  62.1102772  81.6328863  37.8391809  62.2301803  81.7467601
  35.7846311  62.3103544  82.6590622  34.7813982  62.3279727  82.5436818
  36.3320611  62.5793197  83.9806235  37.0314263  63.4136760  83.9273598
  35.2147935  62.9398756  84.9611242  35.6921745  63.2170635  85.9010037
  34.6954226  63.8050408  84.5490041  34.2197948  61.8255556  85.2100672
  33.7549435  61.5554879  84.2618702  34.7559555  60.9646838  85.6094837
  33.1291111  62.2157555  86.1912981  32.9177181  63.3970895  86.4654587
  32.4300610  61.2200839  86.7241883  31.6919073  61.4216109  87.3834435
  32.6398351  60.2659775  86.4677177  37.1261405  61.3850280  84.4857950
  38.0742937  61.5567957  85.2521045  36.7694553  60.1698828  84.0582522
  35.9366607  60.0237108  83.5058156  37.5590043  59.0025195  84.4431435
  37.7061509  58.9909591  85.5231034  36.8327562  57.7218877  84.0357189
  36.5128635  57.8304356  82.9993863  37.5428591  56.8984477  84.1118801
  35.6272968  57.4317209  84.9087011  35.5187150  58.0363201  85.9957939
  34.7855654  56.6006740  84.5060718  38.9504208  59.0494528  83.8220868
  39.9493168  58.7848321  84.5026040  39.0417697  59.3917802  82.5329098
  38.2236126  59.5140478  81.9534542  40.3588954  59.5482950  81.9152819
  40.9314625  58.6268722  82.0213292  40.2091918  59.8619189  80.4261480
  39.3368357  60.4964759  80.2698422  41.0991502  60.3710398  80.0561886
  40.0182385  58.6493477  79.5629765  41.0905531  57.8342766  79.2462199
  42.0793589  58.0808794  79.6329367  40.9190277  56.7196499  78.4502454
  41.7716622  56.0846619  78.2096103  39.6684702  56.4097031  77.9595429
  39.5296920  55.5301249  77.3309073  38.5920612  57.2151154  78.2655784
  37.6021951  56.9732193  77.8786010  38.7684305  58.3280113  79.0622882
  37.9180211  58.9655930  79.3039352  41.1575341  60.6489638  82.6081060
  42.3561687  60.4873452  82.8939182  40.5049765  61.7792656  82.8804246
  39.5438887  61.9128912  82.6001499  41.1916561  62.8816813  83.5397209
  42.0814418  63.1592427  82.9746188  40.2682618  64.0963503  83.6242852
  39.7453246  64.2113662  82.6748605  39.5427655  63.9265300  84.4198455
  41.0202202  65.3762646  83.9204962  41.4223957  65.6243808  85.0564545
  41.2193670  66.1964232  82.8949440  41.7155453  67.0648096  83.0356989
  40.8737116  65.9479403  81.9790404  41.6719377  62.4726855  84.9250068
  42.7688518  62.8531930  85.3441278  40.8684331  61.6928503  85.6490119
  39.9406846  61.4617399  85.3234815  41.2863222  61.1968418  86.9549128
  41.6234392  62.0160581  87.5900002  40.1185710  60.4925296  87.6450545
  39.7758403  59.6744155  87.0115522  40.5470884  59.9405905  88.9995231
  40.8895338  60.7582359  89.6337839  39.7011031  59.4432401  89.4739181
  41.3575340  59.2249985  88.8609354  39.0368098  61.4151287  87.8256405
  38.3052916  60.9696110  88.2592248  42.4718425  60.2526828  86.8288359
  43.3656920  60.2506490  87.6838535  42.4842832  59.4216383  85.7863120
  41.7100253  59.3577808  85.1409080  43.6220088  58.5334381  85.5900191
  43.7616431  57.9135110  86.4756216  43.3924534  57.6216328  84.3876151
  42.3495375  57.3052554  84.4058103  43.5782984  58.2072140  83.4872505
  44.2932816  56.3969887  84.3901442  45.3246039  56.7437520  84.4551860
  44.0516533  55.8090839  85.2756303  44.1069738  55.3667909  82.9274559
  45.0447965  56.3153761  81.7294466  46.0764149  56.4109533  82.0681612
  45.0249685  55.8059421  80.7660233  44.6039630  57.3067462  81.6247921
  44.9004356  59.3366361  85.4044609  45.9461269  58.9953638  85.9689233
  44.8373480  60.4089133  84.6136369  44.0190840  60.6206251  84.0607161
  46.0054260  61.2800407  84.4853213  46.8803785  60.6872446  84.2185816
  45.7750198  62.3286989  83.3961358  44.9408120  62.9717736  83.6765845
  46.6709563  62.9347100  83.2614197  45.4387467  61.7506738  82.0463645
  45.7133140  60.4260544  81.7449954  46.1796786  59.7943532  82.5010096
  45.4033999  59.9042376  80.5048364  45.6230410  58.8599952  80.2825385
  44.8159795  60.7041971  79.5474379  44.5710284  60.2947377  78.5674165
  44.5387670  62.0233796  79.8316768  44.0733914  62.6580451  79.0775378
  44.8508950  62.5414952  81.0730189  44.6348697  63.5859946  81.2976387
  46.3350040  61.9586384  85.8140134  47.5091365  62.0852814  86.1904009
  45.3027160  62.3967162  86.5382255  44.3566125  62.2059264  86.2405901
  45.5010091  63.2040622  87.7360545  46.1698069  64.0404810  87.5330461
  44.1581938  63.7571551  88.2144489  43.4774084  62.9249509  88.3935230
  44.3321108  64.5545369  89.4977210  45.0124519  65.3872442  89.3192994
  43.3648286  64.9391781  89.8210095  44.7438823  63.9095046  90.2739156
  43.5966381  64.6013673  87.2017086  42.7538486  64.9472075  87.5045297
  46.1686843  62.4061122  88.8453942  47.0123204  62.9379781  89.5729805
  45.7823041  61.1419354  89.0148172  45.0462438  60.7352891  88.4553947
  46.3842959  60.3260299  90.0658020  46.2816628  60.8243899  91.0297538
  45.6860831  58.9689354  90.1409502  45.7934219  58.4676670  89.1790211
  46.1631181  58.3705363  90.9171307  44.2125468  59.0901222  90.4611449
  43.7192064  60.1748393  90.7645588  43.4997394  57.9715495  90.3969362
  42.5108054  57.9941427  90.6008940  43.9498090  57.1033432  90.1444369
  47.8763104  60.1483859  89.8201000  48.6948766  60.2884403  90.7398353
  48.2499462  59.8458745  88.5751835  47.5677092  59.6640297  87.8529754
  49.6617280  59.7154593  88.2402505  50.1320635  58.9750651  88.8873208
  49.8157739  59.2640005  86.7898299  49.4334539  58.2515114  86.6602291
  49.2862404  59.9404243  86.1189013  51.5257970  59.2298103  86.2181168
  51.2520444  58.8109796  84.9858268  50.4009162  61.0248327  88.4682552
  51.5245609  61.0300508  88.9852556  49.7903218  62.1484844  88.0867658
  48.9108919  62.1342878  87.5902773  50.4290273  63.4393891  88.3266918
  51.4197551  63.4565297  87.8725292  49.5901942  64.5592698  87.7113608
  48.5424990  64.3146808  87.8863189  49.8415638  65.4782134  88.2409417
  49.8212919  64.7520788  86.2321825  51.0902939  65.0249560  85.7389929
  51.9215799  65.0980659  86.4402191  51.3091109  65.2023594  84.3901252
  52.3102232  65.4175334  84.0165263  50.2525713  65.1062811  83.5123279
  50.4657174  65.2821960  82.1660342  51.3834331  65.4659449  81.9524135
  48.9828118  64.8346888  83.9754546  48.1467453  64.7580873  83.2803103
  48.7736741  64.6594716  85.3282633  47.7724256  64.4444897  85.7016054
  50.6444703  63.6876445  89.8158979  51.7296738  64.1038369  90.2384025
  49.6200510  63.4310682  90.6293054  48.7523325  63.0616981  90.2677398
  49.6951708  63.7557630  92.0505377  50.0774011  64.7656471  92.1993102
  48.3063774  63.6320843  92.7021438  47.8279909  62.7188825  92.3481535
  48.4333896  63.5830825  94.2197251  48.9113019  64.4962193  94.5745232
  47.4424103  63.4955773  94.6651501  49.0374484  62.7223477  94.5066881
  47.4163073  64.8005990  92.2790535  47.7797275  65.6880895  92.7971144
  47.5425707  64.9307031  91.2042373  45.9485381  64.5982008  92.5938213
  45.8214218  64.4684795  93.6685834  45.3822141  65.4691753  92.2640035
  45.5842655  63.7110911  92.0757076  50.7178845  62.8729484  92.7523647
  51.5742312  63.3624798  93.4978461  50.6472825  61.5585401  92.5321122
  49.9893757  61.1553021  91.8804550  51.4977021  60.6572082  93.3040166
  51.3875466  60.8671645  94.3679166  51.1071506  59.2041058  93.0508052
  50.0524924  59.1048324  93.3075935  51.2445554  58.9876153  91.9913941
  51.9196879  58.2298751  93.8734708  51.7185973  58.1116825  95.2408548
  50.9571369  58.7295761  95.7167591  52.4635468  57.2303294  95.9970776
  52.2928558  57.1459044  97.0703152  53.4247064  56.4567888  95.3910792
  54.1665482  55.5775564  96.1428473  53.9299946  55.5871573  97.0731966
  53.6483490  56.5574127  94.0364132  54.4106793  55.9447939  93.5551117
  52.8990248  57.4420532  93.2868278  53.0722455  57.5305335  92.2143233
  52.9737704  60.8699512  92.9874860  53.8151292  60.8431650  93.8920317
  53.3077727  61.0812766  91.7185285  52.5831083  61.1444629  91.0178372
  54.6947329  61.1658787  91.2862023  55.3499845  60.7806719  92.0674579
  54.9092369  60.3393597  90.0166455  54.0074963  60.4026538  89.4075832
  55.7520464  60.7502787  89.4608418  55.1904083  58.8827078  90.3142996
  54.3178706  58.0270251  90.1694862  56.4122854  58.5934529  90.7422271
  56.6558171  57.6369180  90.9563135  57.0934198  59.3310921  90.8519772
  55.1070077  62.6152914  91.0544565  54.2941579  63.5416247  91.0934420
  56.3984673  62.7972365  90.8044623  56.9727730  61.9733045  90.6976524
  57.0348702  64.0985407  90.6991818  56.2931897  64.8847870  90.8399863
  58.1225014  64.2529164  91.7704855  58.9388408  63.5818312  91.5034015
  58.4729946  65.2842735  91.7310249  57.6451030  63.9342796  93.1766136
  56.7501804  64.5229916  93.3781886  57.3999486  62.8733067  93.2249656
  58.7054458  64.2556706  94.2128997  59.5955888  63.6662755  93.9929955
  58.9467938  65.3164486  94.1450720  58.2206835  63.9356976  95.6167945
  57.2570512  64.4235718  95.7633969  58.0963184  62.8557056  95.6958492
  59.1758415  64.4021331  96.6579055  59.2908912  65.4029142  96.5851011
  58.8162675  64.1702385  97.5727997  60.0687059  63.9498532  96.5224981
  57.6530606  64.2689795  89.3182317  57.9612551  63.2806181  88.6416683
  57.8564658  65.5069706  88.8700250  57.4885296  66.7800387  89.5127952
  58.2022941  67.0076625  90.3045198  56.4885815  66.6971146  89.9386197
  57.5489108  67.7641256  88.3823877  57.8221050  68.7472742  88.7656408
  56.5761391  67.8225258  87.8941194  58.5785435  67.2403631  87.4508737
  59.5617514  67.5438756  87.8104307  58.4534722  67.5659318  86.4181773
  58.4390757  65.7170201  87.5392647  57.7494027  65.3207125  86.7940201
  59.7858384  65.0226973  87.4028053  60.5864249  64.9863985  88.3386742
  60.0289021  64.4666040  86.2158035  59.3467966  64.5763363  85.4790605
  61.2272582  63.7112000  85.9326826  61.5770561  64.0149898  84.9460457
  61.9695568  63.9871514  86.6816439  61.0452293  62.2071371  85.9497236
  61.9151056  61.4885775  85.4448066  59.9464389  61.7146242  86.5141255
  59.2901849  62.3297636  86.9735094  59.6760956  60.2836431  86.5261040
  60.5981874  59.7337711  86.7144829  58.6706920  59.9422876  87.6253015
  57.7804590  60.5513316  87.4682990  58.4118209  58.8883661  87.5236386
  59.2177579  60.1963135  89.0174508  60.4568683  60.2285575  89.1747135
  58.4082795  60.3663806  89.9536137  59.1440667  59.8336727  85.1707055
  58.3919623  60.5560458  84.5103534  59.5427211  58.6295252  84.7570649
  60.1555191  58.0571218  85.3200321  59.1499644  58.1357757  83.4419236
  59.4560505  58.8422301  82.6703455  59.8222865  56.7919046  83.1677292
  59.4886711  56.0886194  83.9307429  59.4954384  56.4455380  82.1872699
  61.3335339  56.8834664  83.1923387  61.8999584  57.5951713  82.3370771
  61.9557273  56.2428900  84.0659944  57.6358164  58.0101608  83.3263527
  57.0534453  58.3434650  82.2858138  56.9807636  57.5207618  84.3802576
  57.4737028  57.1533465  85.1815792  55.5261500  57.4314574  84.3632322
  55.1810260  56.8391570  83.5157837  55.0192202  56.7974242  85.6730326
  55.5636884  55.8700430  85.8508500  55.2340144  57.7421774  86.8421569
  54.6894361  58.6696711  86.6652652  54.8697275  57.2765521  87.7579019
  56.2972906  57.9594762  86.9437649  53.5368309  56.4324948  85.5574100
  53.1761887  56.2194353  86.5637119  53.0178467  57.3062996  85.1634301
  53.2698688  55.2454946  84.6662783  53.7881872  54.3711349  85.0599038
  52.1983489  55.0482069  84.6343125  53.6298476  55.4579985  83.6596219
  54.9124423  58.8047193  84.1328291  53.8682426  58.9266475  83.4828802
  55.5475812  59.8586487  84.6489834  56.3457485  59.7397551  85.2563487
  55.0488168  61.2109109  84.4184121  53.9904636  61.2980730  84.6641565
  55.8366909  62.2212794  85.2715047  56.9016621  62.0970024  85.0753135
  55.4218653  63.6419600  84.9305422  54.3570352  63.7671444  85.1269260
  55.9886397  64.3433733  85.5428221  55.6217820  63.8364149  83.8768239
  55.6132274  61.9440401  86.7478134  55.9524944  60.9354813  86.9840528
  56.1750210  62.6644120  87.3424157  54.5515463  62.0329536  86.9780926
  55.1073941  61.5620182  82.9374073  54.1614082  62.1355622  82.3838859
  56.2204715  61.2431752  82.2744337  57.0256493  60.8557291  82.7452558
  56.3190446  61.5128398  80.8441577  56.1068132  62.5636823  80.6472138
  57.7287857  61.1981213  80.3472551  57.9514281  60.2189675  80.7712686
  57.7076488  61.1263026  79.2598291  58.8082159  62.1937130  80.7708193
  58.6985605  62.4010591  81.8352835  60.1926860  61.6298638  80.5053995
  60.3032626  61.4226856  79.4409988  60.9460462  62.3545890  80.8141432
  60.3241079  60.7069387  81.0702338  58.6236332  63.5173913  80.0488532
  57.6451969  63.9313910  80.2925045  59.4008114  64.2143529  80.3624452
  58.6922520  63.3576082  78.9728143  55.2850894  60.7154177  80.0611860
  54.6759059  61.2301219  79.1142641  55.0753611  59.4522501  80.4373916
  55.6346004  59.0121294  81.1540816  54.0538577  58.6537728  79.7698185
  54.2517590  58.6127246  78.6987212  54.0619341  57.2289101  80.3229615
  53.9036653  57.2988727  81.3991378  53.2250264  56.7001524  79.8667808
  55.3510569  56.4695790  80.0487285  55.5279808  56.4894842  78.9733669
  56.1607293  56.9909290  80.5593426  55.3022282  54.7570377  80.6096706
  54.4027073  53.9897528  79.2704604  54.9503749  54.1277286  78.3381934
  54.2904039  52.9242606  79.4709971  53.4177135  54.4484429  79.1839042
  52.6792106  59.2856369  79.9388719  51.8977501  59.3678356  78.9823293
  52.3718016  59.7464626  81.1527951  53.0003416  59.6197467  81.9331668
  51.0896221  60.3922280  81.3968519  50.2873158  59.7152987  81.1033038
  50.9400531  60.7109004  82.8832966  51.7311415  61.3951026  83.1901295
  49.9699160  61.1753372  83.0600247  51.0122248  59.7899762  83.4619063
  50.9447598  61.6559822  80.5618531  49.8772830  61.9146603  79.9995321
  52.0051961  62.4608253  80.4766263  52.8572877  62.2640531  80.9819182
  51.9360466  63.6875831  79.6868031  51.0964718  64.2985196  80.0184204
  53.2236982  64.4929896  79.8577264  54.0515872  63.7858865  79.8057236
  53.2825173  65.1830370  79.0160169  53.3056909  65.2734634  81.1586917
  52.4444995  65.9400327  81.2049024  53.2569264  64.5601360  81.9814220
  54.5796042  66.0862441  81.2702022  55.1411224  66.4596087  80.2193496
  55.0201638  66.3522902  82.4090198  51.6940138  63.3806546  78.2142539
  50.8689977  64.0327524  77.5600867  52.4127677  62.3943066  77.6733588
  53.1242250  61.9083977  78.2004454  52.2244858  62.0359619  76.2724002
  52.3775139  62.9194853  75.6526680  53.2399217  60.9701179  75.8624677
  53.0932859  60.0758142  76.4681234  53.1023026  60.7221300  74.8100118
  54.2495073  61.3510707  76.0164514  50.8039013  61.5484397  76.0227471
  50.1582303  61.9530578  75.0448298  50.2947146  60.6874683  76.9057455
  50.8506179  60.3176339  77.6635669  48.9258600  60.2105251  76.7563624
  48.7928487  59.7588874  75.7732904  48.6193835  59.1603900  77.8211593
  49.1446317  59.5097878  78.7100546  47.5460638  59.1587951  78.0111128
  49.0781239  57.7440378  77.4832206  50.0685896  57.7901586  77.0305050
  49.1347973  56.8920914  78.7369736  48.1445277  56.8451178  79.1900282
  49.4635830  55.8855521  78.4783632  49.8370634  57.3325419  79.4447348
  48.1505865  57.1213169  76.4525965  48.1588024  57.7240281  75.5444273
  48.4895718  56.1115856  76.2210086  47.1372818  57.0811357  76.8522188
  47.9344463  61.3618543  76.8393681  46.9535245  61.3998879  76.0891714
  48.1663808  62.3042826  77.7527624  48.9510906  62.2358033  78.3849336
  47.2545180  63.4311626  77.9028716  46.2385778  63.0710733  78.0650454
  47.6690990  64.2820448  79.1043294  47.6410706  63.6352545  79.9812422
  48.6935581  64.6098305  78.9278636  46.7827211  65.4950579  79.3409695
  46.8935822  66.1643733  78.4878415  45.7515986  65.1460972  79.3967543
  47.1342313  66.2387053  80.6157402  48.2159391  65.9761907  81.1800001
  46.3294424  67.0886013  81.0513507  47.2159812  64.2744285  76.6370475
  46.1387430  64.6548182  76.1643981  48.3843634  64.5788304  76.0690057
  49.2719714  64.3134452  76.4712769  48.3893471  65.4017673  74.8643838
  47.7627908  66.2798742  75.0207642  49.8064224  65.8669224  74.5215090
  49.6968657  66.6397325  73.7606798  50.2098646  66.3091728  75.4324146
  50.7537296  64.7926842  74.0183991  50.9951524  64.1234627  74.8442069
  50.2571514  64.2294723  73.2282697  52.0364602  65.4094133  73.4730328
  52.6764044  64.6010173  73.1193859  51.7716441  66.0552256  72.6358361
  52.7789633  66.2207167  74.5236312  52.1564467  67.0714681  74.8007514
  52.9362290  65.5867134  75.3962173  54.0935087  66.7101326  74.0225160
  53.9479742  67.2979838  73.2142151  54.5531970  67.2423066  74.7474832
  54.6706581  65.9219469  73.7660770  47.7628686  64.6583211  73.6906200
  47.0440416  65.2605276  72.8845195  48.0036609  63.3489765  73.5796924
  48.6516786  62.8677675  74.1868251  47.3701157  62.5915424  72.5038694
  47.5583790  63.0757134  71.5456239  47.9392312  61.1747739  72.4550867
  47.8815999  60.8231812  73.4852131  47.3072895  60.5509802  71.8229229
  49.3890839  61.0913888  71.9678258  49.9686702  61.8738447  72.4576660
  49.9946615  59.7353135  72.2908762  49.4158472  58.9523280  71.8009716
  51.0241997  59.7023519  71.9344138  49.9788526  59.5773492  73.3692536
  49.4744448  61.3730028  70.4745606  49.0925064  62.3732986  70.2705248
  50.5132656  61.3082766  70.1508894  48.8787817  60.6394039  69.9313137
  45.8546255  62.5629999  72.6691351  45.1114041  62.7067310  71.6898433
  45.3766718  62.3850871  73.9028990  45.9923189  62.1904222  74.6795479
  43.9394031  62.4074736  74.1487353  43.4403576  61.6732866  73.5162621
  43.6545435  62.0660961  75.6119746  44.0375447  61.0718824  75.8420800
  44.1272119  62.7976373  76.2673615  42.1920780  62.0556318  75.9627869
  41.5394509  63.2259633  76.3148214  42.0982219  64.1616145  76.3355935
  40.1955188  63.2163261  76.6374351  39.6926203  64.1443208  76.9095007
  39.4907405  62.0310330  76.6148788  38.4313261  62.0194650  76.8710178
  40.1284935  60.8598214  76.2676388  39.5731587  59.9220902  76.2485741
  41.4707171  60.8740208  75.9438993  41.9749192  59.9475131  75.6691929
  43.3494737  63.7638871  73.7873180  42.2887780  63.8418860  73.1575951
  44.0259590  64.8447331  74.1801395  44.8522894  64.7675485  74.7557434
  43.5475674  66.1777280  73.8325737  42.5284079  66.3144442  74.1941283
  44.4403767  67.2392406  74.4751814  45.4490493  66.9343023  74.1964494
  44.2150459  68.2047492  74.0222805  44.3456414  67.3560345  75.9983181
  44.4266198  66.3603300  76.4343409  45.4592559  68.2377908  76.5393639
  45.3786543  69.2338644  76.1041172  45.3737002  68.3076752  77.6237519
  46.4251353  67.8050498  76.2787637  42.9861480  67.8927534  76.4161259
  42.2052779  67.2171388  76.0670038  42.9425505  67.9669969  77.5027208
  42.8344245  68.8795177  75.9786616  43.5008162  66.3603139  72.3223718
  42.5718275  66.9793910  71.7898940  44.4995248  65.8316888  71.6143954
  45.3020638  65.4180990  72.0671360  44.4812106  65.8894947  70.1576191
  44.4041870  66.9243812  69.8241878  45.7726801  65.2906274  69.5982969
  46.6007665  65.8544327  70.0278266  45.8218339  64.2567230  69.9399485
  45.8675897  65.3277866  68.0814365  45.1558433  64.6137548  67.6670977
  45.6144821  66.3317141  67.7406021  47.2516924  64.9798992  67.5760784
  48.0944078  64.4920331  68.3288596  47.4937546  65.2274227  66.2948852
  48.4009052  65.0145291  65.9051987  46.7697064  65.6275479  65.7154412
  43.2679985  65.1593296  69.5959242  42.5821837  65.6656584  68.7002712
  42.9845728  63.9636973  70.1133874  43.5394946  63.5662384  70.8578252
  41.8920685  63.1676476  69.5642961  41.8554429  63.2801909  68.4807410
  42.1046705  61.6897960  69.8952040  42.4471659  61.6361623  70.9286060
  41.1365445  61.1966529  69.8077860  43.1109155  60.9944174  68.9912391
  44.0023477  61.6181262  68.9246294  43.3715484  60.0357473  69.4397079
  42.5476130  60.7651558  67.5970647  41.6217116  60.1971598  67.6875419
  42.3359171  61.7346676  67.1461421  43.5260991  60.0018123  66.7200666
  43.9388125  59.1808727  67.3064338  42.9768789  59.5994415  65.8688592
  44.6343639  60.8682058  66.2307483  45.1436761  61.2408087  67.0193343
  45.2587362  60.3225678  65.6540869  44.2521778  61.6287303  65.6870247
  40.5261262  63.6188085  70.0679891  39.5423559  63.5360434  69.3255743
  40.4378730  64.0917374  71.3136968  41.2549327  64.1688117  71.9024008
  39.1407303  64.4389498  71.8824307  38.4295364  63.6275427  71.7277664
  39.2704484  64.7270380  73.3895699  39.8401771  63.9237154  73.8566699
  39.9800453  66.0491067  73.6179980  39.4106299  66.8530294  73.1515486
  40.0632621  66.2371991  74.6884171  40.9765778  66.0079105  73.1783104
  37.8905786  64.7586139  74.0554371  38.0406689  65.0670086  75.0900705
  37.3000879  65.5121381  73.5342637  37.1571555  63.4326885  74.0251968
  37.7468600  62.6787202  74.5466182  36.1900924  63.5405211  74.5163794
  37.0062810  63.1238485  72.9908107  38.5016113  65.6254686  71.1745381
  37.2723432  65.7604586  71.1923893  39.2984342  66.4911610  70.5456797
  40.3016188  66.3740839  70.5420817  38.7372199  67.6689353  69.8928632
  38.1884429  68.2722424  70.6160254  39.8604427  68.5195607  69.2991772
  40.5323123  67.8696485  68.7385485  39.4243920  69.2578196  68.6261738
  40.6630383  69.2460713  70.3608699  40.3134533  69.2275541  71.5403331
  41.7458358  69.8925759  69.9446901  42.3177475  70.3937014  70.6094382
  41.9924458  69.8801625  68.9653382  37.7336710  67.3059518  68.8061340
  36.8966890  68.1428051  68.4480617  37.7935723  66.0875533  68.2785755
  38.5248874  65.4591740  68.5792696  36.8851216  65.6393350  67.2324092
  36.6060714  66.4750776  66.5907205  37.5777327  64.5721484  66.3742765
  38.4640286  65.0439380  65.9500204  37.8808486  63.7767873  67.0551741
  36.7293666  63.9844990  65.2528123  35.9572674  63.3629957  65.7063510
  36.2619167  64.8115215  64.7183748  37.5427095  63.1512813  64.2819881
  38.7356304  63.4622621  64.0791101  36.9892756  62.1825001  63.7204128
  35.5724911  65.0998678  67.7880515  34.7112076  64.6793458  67.0090540
  35.3900386  65.1216776  69.1038027  36.0923635  65.5117550  69.7159127
  34.1923283  64.5513534  69.7028638  34.1446549  63.4823360  69.4954311
  34.2147728  64.7544101  71.2174209  35.1439476  64.2735805  71.5232582
  34.2802827  65.8254161  71.4091356  33.0496981  64.1645644  72.0138417
  32.1192344  64.3794485  71.4883296  33.2086254  62.6626798  72.1671477
  34.1387061  62.4470170  72.6930167  32.3690129  62.2642066  72.7366833
  33.2324358  62.1968752  71.1819779  32.9456508  64.8342741  73.3739035
  32.7796598  65.9033678  73.2412949  32.1119894  64.4037354  73.9286524
  33.8705635  64.6767899  73.9287315  32.9482391  65.2009612  69.0998980
  32.8355993  66.4350045  69.1073480  32.0009763  64.4247236  68.5776649
  31.9441976  62.9517938  68.5405568  32.0869103  62.5600708  69.5476747
  32.7343836  62.5768524  67.8900769  30.5709761  62.6650006  67.9985176
  29.8770385  62.5181836  68.8261615  30.6026884  61.7630638  67.3872847
  30.1979678  63.8442276  67.1823199  29.1134442  63.9532184  67.1876692
  30.5532789  63.8018453  66.1527291  30.8433501  65.0267761  67.9092495
  31.2053227  65.7899854  67.2203476  29.8794521  65.6566190  68.9008545
  29.9072798  65.3894369  70.1040541  29.0125552  66.5111439  68.3666634
  29.0696712  66.7348724  67.3834124  27.9922556  67.1751284  69.1682864
  28.4122956  67.4795573  70.1269253  27.4372540  68.4241581  68.4545925
  28.2663782  69.0909585  68.2178845  26.7128843  68.0382786  67.1693822
  25.8832864  67.3718067  67.4053527  26.3302650  68.9359957  66.6837841
  27.4065919  67.5308152  66.4990456  26.5281553  69.1113093  69.3234589
  26.1841741  69.8883294  68.8767855  26.8435286  66.2203424  69.4753889
  26.4041995  65.4638911  68.6088987  26.3524590  66.1770043  70.6011829
  46.1600618  12.8404784  73.0045814  47.1369379  12.8195921  73.2602723
  46.0416586  12.3422804  72.1340185  45.6079002  12.5861192  73.8111287
  45.7982125  14.2223233  72.7100872  45.4427503  14.3010636  71.6826896
  44.6861747  14.6940225  73.6498349  45.0490526  14.5596834  74.6688402
  44.5319316  15.7556150  73.4566240  43.3702819  13.9516590  73.4787918
  43.0880463  13.9859302  72.4265231  43.5161686  12.9148102  73.7817167
  42.2668222  14.5747221  74.3198460  42.5809229  14.5649350  75.3635624
  42.1239472  15.6048919  73.9936002  40.9595611  13.8126133  74.1773794
  40.6554761  13.8504984  73.1313404  41.1360117  12.7766111  74.4666262
  39.8826907  14.3880902  75.0277378  39.7187343  15.3479410  74.7595875
  39.0343198  13.8542508  74.9037128  40.1640847  14.3526889  75.9971001
  47.0078819  15.1438770  72.8358156  46.8676789  16.3665162  72.8388823
  48.1988582  14.5483283  72.9381202  48.2776304  13.5417332  72.9638215
  49.4127620  15.3424604  73.1086569  49.3224905  16.0699564  73.9153166
  50.6178150  14.4285653  73.4024699  51.5281057  15.0281229  73.4033402
  50.4523786  13.7572470  74.7561917  49.5424769  13.1570973  74.7559366
  51.3108961  13.1144981  74.9509279  50.3849622  14.5180768  75.5338128
  50.7956685  13.3904639  72.3019889  50.9630233  13.8943693  71.3500573
  51.6528085  12.7581138  72.5333845  49.8986180  12.7750213  72.2339338
  49.6559677  16.2184010  71.8860941  50.1556809  17.3448117  72.0016783
  49.3196519  15.7168626  70.6962315  48.9990526  14.7645574  70.5941028
  49.4688715  16.5293558  69.4933166  50.4986992  16.8745765  69.4017910
  49.1190336  15.7043641  68.2567729  49.7475685  14.8139903  68.2401104
  48.0718341  15.4081396  68.3177999  49.3295356  16.4529468  67.0722680
  49.1035902  15.9154171  66.3096341  48.5997053  17.7780338  69.5658933
  49.0255466  18.8653453  69.1581314  47.3789436  17.6445489  70.0870764
  47.0071638  16.7387603  70.3349193  46.5251640  18.8145659  70.2634447
  46.3929873  19.3251122  69.3095207  45.1500422  18.3928809  70.7872097
  45.2716528  18.1685624  71.8469225  44.4913332  19.2536293  70.6718201
  44.5409082  17.1899998  70.0809840  45.1600688  16.3213542  70.3050281
  43.5404600  17.0364972  70.4855077  44.4554171  17.3748887  68.5811705
  44.3200732  18.5319984  68.1300927  44.5239473  16.3634836  67.8516163
  47.1685887  19.8137414  71.2148993  47.1464051  21.0266908  70.9684935
  47.7464252  19.3202089  72.3120714  47.7188242  18.3322839  72.5202583
  48.3827556  20.2113766  73.2736246  47.6806374  20.9845880  73.5855114
  48.8244452  19.4262571  74.5078919  49.5400059  18.6756625  74.1722137
  49.3226527  20.1297633  75.1749514  47.6887862  18.7462503  75.2478265
  46.8763158  19.4590500  75.3889267  47.3355686  17.9076090  74.6478098
  48.1160063  18.2252026  76.6033155  49.3077142  18.1004151  76.8854545
  47.1439927  17.9236827  77.4552940  47.3729392  17.5718323  78.3739268
  46.1798457  18.0474746  77.1810722  49.5699764  20.9357076  72.6519386
  49.7565568  22.1354267  72.8745121  50.3764581  20.2294733  71.8579227
  50.2513671  19.2373218  71.7161942  51.5183323  20.8801709  71.2242863
  52.0814511  21.4461816  71.9663297  52.4441448  19.8370618  70.6001394
  51.7776650  19.2336297  69.9838817  53.1628974  20.3506661  69.9616213
  53.1913764  18.9300050  71.5827294  52.4695558  18.3091254  72.1133747
  54.1741624  18.0403243  70.8383338  54.8966293  18.6605300  70.3077819
  54.6975741  17.4015156  71.5497159  53.6338754  17.4201806  70.1230632
  53.9107698  19.7422162  72.6489841  53.1850157  20.3334996  73.2073427
  54.4310088  19.0687562  73.3300893  54.6324845  20.4071946  72.1746101
  51.0682702  21.8910449  70.1794361  51.6899953  22.9474340  70.0268356
  49.9875909  21.5956530  69.4552566  49.5537202  20.6842899  69.4909310
  49.4376784  22.5881172  68.5379719  50.2014997  22.9050840  67.8278958
  48.2666512  21.9869663  67.7599907  47.6421972  21.4560963  68.4785541
  47.7037211  22.8174740  67.3340017  48.6833202  21.0335862  66.6483979
  49.5295795  20.4434430  67.0000753  47.8451800  20.3717726  66.4301645
  49.0784667  21.7834898  65.3862165  48.2524877  22.4331126  65.0966515
  49.9575192  22.3898112  65.6047123  49.3935467  20.8265207  64.2472592
  49.8746713  21.3932346  63.4501048  50.0824686  20.0687481  64.6204434
  48.1694165  20.1657273  63.7167791  47.5310975  20.8676980  63.3705340
  48.4230774  19.5410353  62.9647710  47.7236777  19.6401958  64.4551778
  48.9948269  23.8374471  69.2906202  49.2817651  24.9665334  68.8694498
  48.3030441  23.6538954  70.4183309  48.0325438  22.7302432  70.7245912
  47.8652922  24.8002229  71.2077284  47.2863295  25.4834571  70.5863650
  46.9861777  24.3296806  72.3663128  46.1280347  23.7718342  71.9914832
  47.5584743  23.7003030  73.0478261  46.3115057  25.6716026  73.3707863
  45.6469614  24.8906724  74.2177971  49.0549188  25.5981027  71.7278729
  49.0342735  26.8336433  71.7216926  50.0992535  24.9088114  72.1933711
  50.0766601  23.9007677  72.2519943  51.2738912  25.6055535  72.7074749
  50.9670200  26.3625466  73.4292025  52.2190020  24.6248588  73.4004544
  52.4681946  23.8029787  72.7292500  53.1332117  25.1338872  73.7057588
  51.5443657  23.8630444  74.8981896  52.6161349  23.1253068  75.1737842
  51.9971635  26.3649036  71.6029489  52.4896430  27.4754043  71.8293689
  52.0908424  25.7785494  70.4081063  51.8023144  24.8218670  70.2611038
  52.6758825  26.5039892  69.2871196  53.6792237  26.8423533  69.5457995
  52.7676763  25.5955553  68.0619266  51.7596119  25.3053507  67.7658074
  53.2387617  26.1500505  67.2503149  53.5285501  24.4355823  68.3444064
  53.5714315  23.8823997  67.5609845  51.8647542  27.7506347  68.9658024
  52.4309989  28.8226304  68.7190351  50.5354848  27.6340513  68.9686685
  50.0768514  26.7460081  69.1140438  49.7078964  28.8110041  68.7576508
  49.9397109  29.2255081  67.7765557  48.6613735  28.5074767  68.7852267
  49.9406246  29.8771773  69.8115642  50.0357318  31.0663103  69.4993811
  50.0508841  29.4623685  71.0748668  49.9215986  28.4886124  71.3097787
  50.2823621  30.4121535  72.1608928  49.5593369  31.2276795  72.1450453
  50.2153599  29.6943352  73.5196601  50.7854363  28.7672162  73.4599632
  50.7956489  30.5768665  74.6165416  50.2257633  31.5040434  74.6771561
  50.7406031  30.0540776  75.5714042  51.8365495  30.8051072  74.3873447
  48.7699889  29.2953478  73.8334111  48.2132697  30.2160801  74.0078145
  48.3757111  28.7949665  72.9489547  48.6266637  28.3830245  75.0358690
  49.0203326  28.8829380  75.9208612  47.5736999  28.1474940  75.1904391
  49.1827763  27.4618248  74.8620020  51.6173217  31.1198274  71.9696609
  51.7141089  32.3499685  72.0733872  52.6727751  30.3511564  71.6977568
  52.5927020  29.3461876  71.6367204  53.9917325  30.9498274  71.5403229
  54.2367112  31.5461207  72.4192534  55.0483307  29.8618133  71.3795793
  54.8484694  29.1631105  72.1919642  54.9051171  29.3575921  70.4238854
  56.4889625  30.3613964  71.4806874  56.6019435  31.2477901  70.8564741
  56.8309871  30.7093139  72.9214006  56.7186773  29.8232396  73.5461866
  57.8604445  31.0633980  72.9756473  56.1592806  31.4909755  73.2762471
  57.4510642  29.3290116  70.9337550  57.2183969  29.1333201  69.8870123
  58.4714554  29.7036422  71.0147173  57.3572300  28.4054922  71.5050745
  54.0180379  31.8985835  70.3513187  54.6632798  32.9519065  70.4037635
  53.3261155  31.5441189  69.2676457  52.9054025  30.6300201  69.1809094
  53.2165166  32.4650143  68.1426792  54.2097672  32.7714193  67.8145502
  52.5039907  31.7868335  66.9740395  53.1155080  30.9351265  66.6761452
  51.5434564  31.4311273  67.3467954  52.2773848  32.6932374  65.7725006
  51.7559098  32.1231837  65.0036030  51.6565082  33.5326338  66.0855947
  53.5899240  33.2156196  65.2126045  54.0677212  33.8362116  65.9706773
  54.2317289  32.3651454  64.9826495  53.3671748  34.0351979  63.9553661
  52.7442028  33.4548843  63.2747468  52.8458261  34.9514796  64.2323541
  54.6480295  34.3780486  63.2836150  55.1310778  33.5291388  63.0264844
  54.4580338  34.9218108  62.4539619  55.2252612  34.9161474  63.9139739
  52.4858761  33.7352449  68.5542708  52.8493996  34.8372396  68.1264867
  51.4486336  33.6013104  69.3831559  51.1058435  32.6910564  69.6552440
  50.7484171  34.7806724  69.8795431  50.3665822  35.3657903  69.0429199
  49.5726296  34.3645120  70.7609619  48.8348314  33.8856840  70.1171632
  49.9468404  33.6405688  71.4848214  48.9256565  35.5258250  71.4951334
  49.5923086  35.8298775  72.3021203  48.8159165  36.3466947  70.7864520
  47.5730684  35.1701920  72.0667249  47.3354481  33.9736642  72.3333852
  46.7475492  36.0882765  72.2540663  51.6893296  35.6887158  70.6586436
  51.6556021  36.9142044  70.5001157  52.5369494  35.1067255  71.5084330
  52.5571007  34.1046086  71.6327511  53.4160380  35.9235586  72.3359534
  52.8306969  36.6539539  72.8945208  54.1712078  35.0389556  73.3299807
  54.6069892  34.2138466  72.7666078  54.9681380  35.6428477  73.7639353
  53.2914585  34.4847334  74.4426598  53.0000138  35.3203733  75.0789513
  52.4037483  34.0559246  73.9776914  54.0990411  33.2270476  75.4494576
  55.2995972  34.2149295  76.3339340  54.7839490  34.9756281  76.9200599
  55.8783239  33.5744969  76.9995330  55.9691460  34.6975085  75.6219486
  54.3983147  36.7359339  71.5009271  54.9858203  37.6925410  72.0147540
  54.5905057  36.3789033  70.2322735  54.1201981  35.5613095  69.8710943
  55.4918541  37.1038555  69.3478831  56.2956612  37.5602992  69.9255098
  56.1078754  36.1424296  68.3266226  55.4430360  35.2964591  68.1522044
  56.2814193  36.6672093  67.3871606  57.4278789  35.5706454  68.7486838
  57.4868810  34.4710230  69.5850110  56.5590619  34.0219750  69.9394225
  58.7001173  33.9422327  69.9711515  58.7331403  33.0776921  70.6341596
  59.8704218  34.5072837  69.5184500  60.8307902  34.0891184  69.8199965
  59.8275707  35.6019622  68.6837663  60.7535904  36.0522464  68.3262303
  58.6127014  36.1280280  68.3006108  58.5778645  36.9924815  67.6375825
  54.8143185  38.2436159  68.5994096  55.5051182  39.0186534  67.9292986
  53.4944558  38.3675114  68.6929147  52.9634366  37.7742054  69.3142891
  52.7728191  39.3266609  67.8710396  53.0857849  39.2136498  66.8330703
  51.2676799  39.0789792  67.9568578  50.9376910  39.1975183  68.9889217
  50.7443267  39.7957180  67.3240172  51.0456575  38.0667425  67.6189495
  53.0870311  40.7584883  68.2969056  53.5383980  41.0207080  69.4153625
  52.8416604  41.6955025  67.3766955  52.5869441  41.4468884  66.4314919
  52.9852277  43.1085664  67.7048050  53.9738595  43.2936646  68.1248586
  52.8204882  43.9638062  66.4471967  51.7828475  43.8642594  66.1286194
  53.0134128  44.9965825  66.7374610  53.7424059  43.5792510  65.2990521
  53.5098709  42.5555994  65.0055122  53.5423437  44.2505141  64.4638976
  55.2120405  43.6746224  65.6856172  55.3875419  43.0133041  66.5341196
  55.8122422  43.3442010  64.8378678  55.6042808  45.0953711  66.0609776
  55.2368850  45.7661744  65.2843542  55.1257236  45.3412294  67.0089416
  57.0779532  45.2516805  66.1944809  57.5215537  45.0243250  65.3160574
  57.2940321  46.2063174  66.4436361  57.4185324  44.6304939  66.9143643
  51.9801880  43.5471641  68.7566317  52.1649562  44.5969367  69.3807208
  50.9200785  42.7643932  68.9610126  50.7586545  41.9514636  68.3837890
  49.9434392  43.0830690  69.9936260  49.4538042  44.0312656  69.7716352
  48.8818575  41.9860717  70.0460706  48.6235016  41.7530322  69.0130924
  49.3534476  41.1180609  70.5067874  47.6230216  42.3440327  70.8134149
  47.9072848  42.8630865  71.7287719  47.0133183  43.0041026  70.1964289
  46.8218689  41.0939456  71.1657648  47.3830250  40.5325026  71.9127485
  45.8695929  41.4115885  71.5904679  46.5662276  40.2086918  69.9515481
  46.0405851  40.8007331  69.2023568  47.5293750  39.8907176  69.5523756
  45.7537326  39.0122000  70.2966951  44.8610480  39.3066213  70.6661949
  45.6074566  38.4540482  69.4677379  46.2408235  38.4632405  70.9905863
  50.6002788  43.2350187  71.3580230  50.1328929  44.0233018  72.1866514
  51.6791874  42.4920620  71.6095313  51.9972726  41.8287273  70.9174993
  52.3947463  42.5649019  72.8768938  51.9584048  43.3339398  73.5142994
  52.2943561  41.2181565  73.5967722  52.7995736  40.4410116  73.0232740
  52.7477015  41.2922966  74.5852464  50.8881587  40.7509559  73.8047008
  50.0496121  41.3023477  74.7473830  48.8794251  40.6910782  74.7070350
  48.0743434  40.9856714  75.3802046  48.9294453  39.7611509  73.7717024
  48.1795156  39.1349950  73.5155108  50.1754675  39.7767876  73.1929546
  50.4140306  39.0750117  72.3937678  53.8592946  42.9466721  72.7049907
  54.6145125  42.9132270  73.6839704  54.2831198  43.3093787  71.4930294
  53.6550616  43.3032170  70.7020778  55.6789385  43.6655515  71.2648499
  56.2968391  42.8339817  71.6036563  55.9276956  43.8825526  69.7725227
  55.3226519  44.7180849  69.4205172  56.9822783  44.1035068  69.6077962
  55.6558126  42.9810444  69.2234673  56.1022822  44.9043349  72.0405592
  57.3044858  45.1560939  72.1743050  55.1512024  45.6864293  72.5513356
  54.1712014  45.5041227  72.3886648  55.5156751  46.8722654  73.3155211
  56.1466620  47.5101721  72.6966272  54.2579542  47.6513855  73.6960195
  53.6201942  47.0288132  74.3235272  54.5389469  48.5508763  74.2437964
  53.7160341  47.9311756  72.7926152  56.3130713  46.5128711  74.5617820
  57.3002356  47.1811728  74.8880618  55.9033079  45.4609393  75.2732835
  55.1184476  44.9108624  74.9546788  56.5272646  45.1044984  76.5389098
  57.4219022  45.7073247  76.6948689  55.5580308  45.3581745  77.6974884
  56.0775165  45.1564185  78.6342532  55.2809171  46.4115386  77.6558680
  54.3189783  44.5110766  77.6196240  54.2847350  43.2536459  78.1942285
  55.1740972  42.8821808  78.7032944  53.1583907  42.4787655  78.1313797
  53.1459001  41.4877181  78.5849995  52.0347385  42.9608045  77.5006538
  50.9091658  42.1792390  77.4441859  51.0218798  41.3277164  77.8729101
  52.0386854  44.2071953  76.9228482  51.1521246  44.5879163  76.4157368
  53.1763229  44.9763865  76.9890278  53.1892509  45.9699593  76.5409809
  57.0091652  43.6630538  76.6353016  57.5240497  43.2800992  77.6907535
  56.8523079  42.8522973  75.5943849  56.3401565  43.1617640  74.7807322
  57.3550445  41.4861247  75.6150997  57.4610330  41.1864989  76.6577358
  56.3534032  40.5489736  74.9363423  56.2434614  40.8307443  73.8891470
  56.7147307  39.5225693  74.9998778  55.3876205  40.6252071  75.4358937
  58.7159493  41.3448841  74.9493143  59.2375484  40.2299136  74.8685911
  59.3033170  42.4400722  74.4820024  58.8682193  43.3400179  74.6265257
  60.5234081  42.3820388  73.6858097  60.4316181  41.6124548  72.9193802
  60.7702032  43.7288589  72.9998665  61.7328345  43.6959588  72.4896139
  59.9816450  43.9286227  72.2743526  60.8135737  44.9047675  73.9180125
  59.7596995  45.6709628  74.3178361  58.7775450  45.3971141  73.9325061
  60.1910381  46.6661276  75.1583068  59.6050577  47.3645435  75.5929809
  61.5471443  46.5578609  75.3129692  62.4273078  47.3282624  76.0608406
  62.0294743  48.1643460  76.6359852  63.7484399  46.9847865  76.0269071
  64.4693117  47.5673761  76.6005211  64.2016179  45.9002861  75.2718961
  65.2590789  45.6365752  75.2536639  63.3310237  45.1331674  74.5299113
  63.7343517  44.2954272  73.9610365  61.9732130  45.4600467  74.5433697
  61.7551299  41.9678401  74.4905145  62.6802219  41.3855757  73.9113962
  61.8363357  42.2384183  75.7986788  60.8918678  42.9319774  76.6912298
  60.0976071  42.2461528  76.9860091  60.4588966  43.7865687  76.1713177
  61.7510892  43.3407298  77.8396013  61.1455176  43.4226045  78.7421968
  62.2172254  44.3028042  77.6269252  62.7648454  42.2830542  77.9672015
  62.3774573  41.4501857  78.5540230  63.6824064  42.6532924  78.4244815
  63.0446846  41.8230641  76.5302442  63.8880616  42.3601191  76.0962103
  63.3115615  40.3312222  76.4707005  64.4754646  39.9211534  76.5378732
  62.2751695  39.5061472  76.3512823  61.3436678  39.8904236  76.2824658
  62.4251253  38.0570225  76.3669296  63.3370024  37.7811219  76.8965126
  61.2322490  37.4158609  77.0801954  60.3393097  37.5045893  76.4614177
  61.4323388  36.3631027  77.2796048  60.9040178  38.0479141  78.4004886
  61.8090143  38.0127531  79.4454412  62.7712397  37.5211384  79.3021332
  61.5045139  38.5915005  80.6593749  62.2259421  38.5580998  81.4757855
  60.2901145  39.2110071  80.8398287  60.0489343  39.6693915  81.7988990
  59.3792923  39.2521195  79.8091815  58.4159269  39.7420680  79.9505242
  59.6864089  38.6728664  78.5972226  58.9657540  38.7040931  77.7800438
  62.5599671  37.4466720  74.9777270  62.7757486  36.2352966  74.8718497
  62.4407839  38.2425204  73.9139518  62.3256959  39.2408801  74.0146094
  62.4194635  37.6755863  72.5690591  61.5661931  37.0059304  72.4614033
  62.3009862  38.7888800  71.5284139  62.9409756  39.6009858  71.8733733
  62.6927336  38.3907942  70.5923788  60.8991348  39.3117840  71.3060742
  59.8850311  39.0645864  72.2191142  60.1106105  38.4828293  73.1128547
  58.6061173  39.5422764  72.0107045  57.8184154  39.3431369  72.7373206
  58.3284446  40.2743852  70.8767483  57.0567401  40.7529750  70.6610437
  56.4439372  40.5188398  71.3619381  59.3187533  40.5302605  69.9559305
  59.1002821  41.1098754  69.0590372  60.5923709  40.0493253  70.1725511
  61.3803891  40.2466597  69.4457867  63.6535689  36.8347877  72.2764646
  63.5800136  35.8875940  71.4862421  64.7863600  37.1537176  72.8854777
  64.7929872  37.9046771  73.5608407  66.0414152  36.4832956  72.5879950
  65.8362201  35.5352553  72.0907891  66.9257436  37.3365944  71.6704011
  67.0203954  38.3203195  72.1302110  67.9055109  36.8609907  71.6261629
  66.3726543  37.4865199  70.2650995  66.2107409  36.4911849  69.8513446
  65.4206015  38.0139064  70.3247744  67.3224829  38.2581651  69.3684438
  67.5335467  39.2217149  69.8322572  68.2484274  37.6911600  69.2723638
  66.7202034  38.4803315  67.9921177  66.5277344  37.5050314  67.5450765
  65.7783178  39.0145894  68.1166936  67.6200934  39.2632821  67.1042555
  68.4927621  38.7681926  66.9883439  67.1804932  39.3862096  66.2032891
  67.7982220  40.1672160  67.5181067  66.7736448  36.1843314  73.8849168
  66.4794339  36.7861357  74.9235122  67.7292642  35.2546281  73.8589878
  68.1891729  34.4608594  72.7076892  68.7906942  35.0903409  72.0519259
  67.3252015  34.0863186  72.1587159  68.9834065  33.3639480  73.3363357
  69.7968431  33.0817575  72.6679133  68.3361694  32.5030479  73.5037766
  69.4990684  33.8977904  74.6229837  70.4492795  34.3921517  74.4209820
  69.6407814  33.1405082  75.3940484  68.4631362  34.9291119  75.0866759
  67.7627460  34.5190158  75.8142562  69.1314060  36.1648140  75.6682752
  69.6616107  37.0076141  74.9426714  69.1019969  36.2668444  76.9942431
  68.6107047  35.5873790  77.5573223  69.7289299  37.3976573  77.6665371
  69.4785596  38.3445511  77.1882005  69.3059117  37.4654812  79.1385730
  69.5385760  36.5151876  79.6191025  70.0441539  38.5885925  79.8523395
  69.8116051  39.5393290  79.3726290  69.7324074  38.6230944  80.8962381
  71.1179791  38.4089418  79.8001217  67.8011417  37.6514317  79.2498678
  67.2945785  36.8119298  78.7737037  67.5170056  37.6976652  80.3011665
  67.5114353  38.5782101  78.7546378  71.2393187  37.2669970  77.5300546
  71.8367746  36.2884954  77.9929554  71.8624139  38.2526197  76.8931698
  71.3337508  39.0271500  76.5180466  73.3016710  38.2284773  76.6736196
  73.6184049  37.2195709  76.4092588  73.6835895  39.1728755  75.5375051
  73.0423882  38.9469640  74.6854933  73.4958808  40.1930160  75.8724362
  75.1378732  39.0353724  75.1262219  75.9639369  38.6199994  75.9662124
  75.4567796  39.3439642  73.9598966  74.0096419  38.6165416  77.9659227
  73.8087963  39.7197540  78.4830952  74.8367705  37.7084542  78.4864193
  74.9526641  36.8015438  78.0572554  75.5430747  37.9786210  79.7325117
  74.9070862  38.4571429  80.4772497  76.0971216  36.6696111  80.3262786
  76.7095168  36.9029237  81.1972760  74.9533389  35.7570268  80.7409385
  74.3407229  35.5228840  79.8703181  75.3568960  34.8349123  81.1592053
  74.3414756  36.2583023  81.4909036  77.0218800  35.9675411  79.3341028
  77.8585158  36.6223564  79.0904650  77.3994320  35.0463005  79.7778029
  76.4686323  35.7321876  78.4249128  76.6648768  38.9877487  79.5443672
  77.1318969  39.5762177  80.5266209  77.1160827  39.2056777  78.3117237
  76.7064389  38.7003903  77.5390815  78.2229041  40.1121823  78.0351141
  78.7477032  40.3536157  78.9594490  79.2122158  39.4530049  77.0681593
  79.5285366  38.5155272  77.5255168  78.6666330  39.2420501  76.1484107
  80.4331521  40.2976424  76.7496063  80.1012736  41.1780627  76.1993178
  80.8823866  40.6075380  77.6931381  81.4582499  39.5440500  75.9257708
  81.7443930  38.3748614  76.2580390  81.9763154  40.1193929  74.9457180
  77.7608050  41.4437950  77.4600211  78.3431069  42.4852824  77.7741000
  76.7249260  41.4304281  76.6231256  76.2847308  40.5538881  76.3822830
  76.2331313  42.6461925  75.9913726  77.0968981  43.2457749  75.7041323
  75.4388577  42.2984913  74.7315761  74.5656250  41.7057557  75.0040265
  75.1155219  43.2162765  74.2404298  76.0685175  41.7252717  74.0511006
  75.3687986  43.4867182  76.9181896  74.9590550  44.5837074  76.5271066
  75.0726114  42.9996480  78.1226504  75.3227074  42.0472341  78.3472815
  74.3430672  43.7729874  79.1144833  74.2138783  44.7975653  78.7657006
  72.9581371  43.1577634  79.3520396  73.1681446  42.1230417  79.6228661
  72.4848606  43.6640970  80.1933098  72.0185942  43.1879905  78.1449876
  72.5426171  42.7811164  77.2801440  70.7710499  42.3645867  78.4140921
  70.2462108  42.7711667  79.2785779  70.1169035  42.3998297  77.5429141
  71.0534393  41.3309919  78.6141880  71.6473132  44.6112285  77.7829459
  72.5495897  45.1714975  77.5378030  70.9788971  44.6050940  76.9219676
  71.1459064  45.0826858  78.6281786  75.0849410  43.8847503  80.4374653
  74.5619550  44.5023322  81.3719979  76.2684547  43.2852949  80.5770130
  76.5510056  42.6075003  79.8835732  77.1544994  43.5247327  81.7118171
  78.1750230  43.2368111  81.4593654  77.1408569  45.0367592  82.0790863
  76.1175785  45.2712070  82.3724033  77.7997506  45.1484734  82.9401780
  77.5944006  46.0132179  80.9464290  76.8548020  45.9006771  80.1536937
  77.5017420  47.0040785  81.3910737  78.9867825  45.8478220  80.3659355
  79.9801017  45.7227900  81.1098394  79.0740271  45.8307032  79.1213069
  76.7485457  42.6895878  82.9016720  77.4138339  42.8618349  83.9739703
  75.7685416  41.8163050  82.8521854  75.2706732  41.7008567  81.9810379
  75.3262184  41.0429139  84.0108357  75.3073686  41.6800353  84.8950417
  73.9268133  40.4906472  83.7793367  74.0564511  39.7539102  82.9865493
  73.5917341  39.9906078  84.6880624  72.8832312  41.5208122  83.3510081
  73.2356104  42.0340145  82.4562717  71.5590183  40.8381538  83.0543621
  71.2057517  40.3250863  83.9488246  70.8250017  41.5844286  82.7503979
  71.6947663  40.1144094  82.2507036  72.7099029  42.5897491  84.4194626
  73.6598459  43.0988678  84.5822689  71.9621475  43.3125494  84.0930841
  72.3833484  42.1248196  85.3496786  76.3313237  39.9284960  84.2644933
  76.2034940  38.8129945  83.7593021  77.3531575  40.2430648  85.0624256
  77.4490824  41.1744873  85.4410414  78.3922613  39.2635043  85.3633017
  78.7873546  38.8414934  84.4392307  79.5376674  39.9343261  86.1231852
  79.2061500  40.2341798  87.1173096  80.3770713  39.2448435  86.2132678
  80.0651046  41.1661165  85.4583180  80.5620849  41.1632501  84.1728059
  80.9554544  42.3822721  83.8524221  81.3800142  42.5891258  82.8700477
  80.7329229  43.1758441  84.8851666  80.9352161  44.1643717  84.9297819
  80.1768863  42.4391828  85.9015594  79.9194034  42.9199410  86.8453154
  77.8354805  38.0954161  86.1674132  78.1104766  36.9287472  85.8623728
  77.0502326  38.3909263  87.2038603  76.8201681  39.3521744  87.4116388
  76.5511813  37.3526375  88.0963882  77.3355628  36.6229316  88.2973213
  76.1092608  37.9742566  89.4243558  75.8705817  37.1614516  90.1102709
  76.9475799  38.5480404  89.8194425  74.9004477  38.8818883  89.2751997
  74.4111820  39.0554273  88.1387679  74.4373606  39.4245461  90.3010861
  75.3977687  36.5533026  87.5056149  75.1239746  35.4495731  87.9882774
  74.7171492  37.0755167  86.4825780  74.9558570  37.9748195  86.0896756
  73.5586904  36.3709067  85.9440132  72.7898677  36.2782678  86.7111044
  72.9774287  37.1404262  84.7615270  72.7795076  38.1580246  85.0983056
  73.7433066  37.1573813  83.9861280  71.7083273  36.5392833  84.2025970
  70.4673987  36.9010156  84.7031096  70.4191606  37.6278050  85.5140040
  69.3063808  36.3585991  84.1932627  68.3372151  36.6519394  84.5967119
  69.3765555  35.4413693  83.1686521  68.2226162  34.8972350  82.6570898
  67.4299294  35.2266629  83.0868858  70.5965371  35.0661966  82.6534568
  70.6527451  34.3398303  81.8426960  71.7530841  35.6154731  83.1694641
  72.7223930  35.3244627  82.7646762  73.9112722  34.9515410  85.5231332
  73.0620924  34.0564408  85.5899650  75.1518719  34.7239763  85.0862753
  75.7980422  35.4801802  84.9110070  75.5873602  33.3619914  84.7996449
  74.9429779  32.9162462  84.0418970  77.0239172  33.3689293  84.2766631
  77.6894529  33.8156175  85.0153316  77.3498909  32.3509596  84.0631712
  77.2693840  34.3031425  82.7520718  78.5741816  34.0656601  82.6520534
  75.4816556  32.4843877  86.0386300  75.1034014  31.3104748  85.9494889
  75.8093315  33.0401007  87.2062111  76.1001015  34.0064045  87.2487462
  75.8184812  32.2604434  88.4386383  76.1179748  31.2331232  88.2312354
  76.8135922  32.8694507  89.4283878  76.5549769  33.9204437  89.5573500
  76.7030152  32.3492154  90.3798224  78.2499195  32.7570650  88.9551636
  78.4941039  32.0582316  87.9483756  79.1355882  33.3656403  89.5905006
  74.4333483  32.1719623  89.0701017  73.9867461  31.0837324  89.4479112
  73.7358686  33.3024185  89.1953693  74.0842456  34.1852639  88.8499467
  72.4782358  33.2967976  89.9353680  72.5907579  32.7920798  90.8948981
  71.9885223  34.7371759  90.1680717  72.1770380  35.3246672  89.2695083
  70.4959609  34.7515751  90.4805558  70.3067090  34.1646304  91.3793217
  70.1679229  35.7784198  90.6420547  69.9449104  34.3219807  89.6439609
  72.7888532  35.3751005  91.3067993  72.5352006  34.8328096  92.2176680
  73.8439866  35.2258736  91.0776175  72.5202478  36.8515894  91.5075001
  71.4653323  37.0015700  91.7371932  73.1276472  37.2230121  92.3328548
  72.7741164  37.3946339  90.5971412  71.4259943  32.4540183  89.2272918
  70.6032167  31.8049458  89.8842247  71.4197250  32.4428771  87.8974258
  72.0686899  33.0367297  87.4011568  70.4753471  31.6494272  87.1198509
  69.7246882  31.2065412  87.7744214  69.7787785  32.4904460  86.0370299
  70.5359586  32.9538474  85.4045445  68.8745189  31.6122288  85.1846015
  68.1167411  31.1488164  85.8163629  68.3885114  32.2216957  84.4227304
  69.4696584  30.8362094  84.7032472  68.9769834  33.6244552  86.6796665
  69.6893942  34.2605368  87.2049966  68.5163576  34.1884697  85.8686110
  67.9026558  33.1615603  87.6476404  68.3626036  32.5978280  88.4592768
  67.3834621  34.0283162  88.0566285  67.1895678  32.5257586  87.1228912
  71.2319280  30.4820503  86.5047692  72.2809188  30.6733762  85.8790865
  70.6977542  29.2761390  86.6833671  69.8184260  29.1963387  87.1737885
  71.3536325  28.0553801  86.2401816  72.3936719  28.2592822  85.9855420
  71.3196225  27.0111380  87.3612663  70.2767952  26.7220394  87.4917748
  71.8928963  26.1529128  87.0106858  71.8843154  27.4887982  88.6931418
  71.2909295  28.3400039  89.0269726  71.7890640  26.6756054  89.4126880
  73.3428091  27.9001131  88.5844246  73.9126884  27.0620492  88.1831948
  73.4163665  28.7480336  87.9034550  73.9044852  28.2907199  89.9420605
  74.8607889  28.7885175  89.7814950  73.2071316  28.9864601  90.4086896
  74.1011568  27.1148691  90.8317015  74.7476417  26.4702585  90.3996898
  74.4742864  27.4223151  91.7184660  73.2150700  26.6537055  90.9809577
  70.7275566  27.4622086  84.9863784  71.2235451  26.4470831  84.4866229
  69.6564592  28.0581619  84.4666054  69.2795930  28.8815677  84.9139018
  68.9640748  27.5289570  83.2901874  69.6819134  27.0304811  82.6387822
  67.8877643  26.5206301  83.6932339  67.2325208  26.9500558  84.4510919
  67.2977339  26.2380509  82.8213892  68.4347577  25.2529671  84.2689543
  68.8103976  25.1372508  85.5909763  69.2552427  23.9146839  85.8142793
  69.6023147  23.6232357  86.8055905  69.1819448  23.2314177  84.6861956
  69.4524967  22.2670824  84.5559688  68.6736546  24.0469817  83.7039194
  68.5384257  23.6631277  82.6927466  68.3589503  28.6808166  82.5066105
  67.1591734  28.9660958  82.6064157  69.1655111  29.3745686  81.7053697
  70.6224670  29.2418531  81.5474932  70.8441299  28.4125117  80.8758098
  71.0806228  29.0546166  82.5186445  71.0181715  30.5632806  80.9767943
  71.9143207  30.4474576  80.3672037  71.2171325  31.2680827  81.7841169
  69.8535304  31.0089245  80.1550781  69.9344395  30.5539773  79.1678720
  69.7713035  32.0907637  80.0503760  68.6210423  30.4585440  80.8833009
  68.1653395  31.1976382  81.5422189  67.5786687  29.9428134  79.9035856
  67.6594628  28.8142953  79.4118740  66.5872440  30.7860725  79.6246550
  66.5381957  31.6788020  80.0944716  65.5308425  30.4419504  78.6856919
  65.9370606  29.8014141  77.9028770  64.3844397  29.6967112  79.3836586
  64.8339910  28.8711474  79.9354259  63.9322929  30.3981556  80.0848283
  63.3139604  29.1563822  78.4455123  62.6111547  28.5784037  79.0456005
  62.7989871  30.0107765  78.0062913  63.9641526  28.1134764  77.1256913
  64.5558130  26.7061726  78.0617147  63.7249734  26.2542768  78.6035586
  64.9873466  25.9720617  77.3813025  65.3157716  27.0343487  78.7708442
  65.0192985  31.7160813  78.0317506  65.1561190  32.8144905  78.5748367
  64.4262833  31.5562401  76.8511856  64.3709675  30.6383857  76.4333546
  63.8920675  32.6871481  76.1060402  63.3056324  33.3178599  76.7741687
  65.0152474  33.5293548  75.4996213  64.5611390  34.3834688  74.9972529
  65.6495254  33.8819374  76.3129337  65.8502277  32.7507517  74.5120916
  66.7437988  32.0036907  74.9589614  65.6164142  32.8843562  73.2933713
  62.9601115  32.1645648  75.0233589  63.0375070  31.0019220  74.6205853
  62.0777591  33.0482639  74.5535728  62.0973877  34.0152244  74.8446081
  61.0116005  32.6177451  73.6550376  60.4479794  31.8017636  74.1073701
  60.0570193  33.7791283  73.3844513  60.6618728  34.6756062  73.2481468
  59.5242352  33.5568854  72.4598707  59.0533125  34.0102783  74.5049486
  58.3108977  33.2141406  74.4493971  59.5933621  33.9375330  75.4489595
  58.2177957  35.6073463  74.4211251  57.5958493  35.5858458  72.7436235
  56.9233621  34.7376085  72.6157432  57.0549797  36.5109393  72.5442172
  58.4297763  35.4958725  72.0475116  61.5561045  32.0624194  72.3458796
  60.9614618  31.1443414  71.7698468  62.6756712  32.5959749  71.8540921
  63.1187109  33.3936604  72.2871199  63.2548488  32.0661348  70.6240178
  62.5035867  32.0554740  69.8343401  64.4254572  32.9375594  70.1723951
  65.0656089  33.1357318  71.0320652  64.9923500  32.3961133  69.4150518
  63.9680623  34.1642122  69.6320483  64.7205154  34.6927288  69.3562142
  63.7052123  30.6224925  70.8046686  63.5066591  29.7853853  69.9165560
  64.3252853  30.3127064  71.9445879  64.5565776  31.0184341  72.6290962
  64.7410740  28.9389306  72.2005797  65.3725422  28.5718431  71.3915100
  65.5301677  28.8636441  73.5093211  64.9584249  29.3600905  74.2933819
  65.7841818  27.4175073  73.9059041  66.3563171  26.9205025  73.1224840
  66.3466152  27.3895752  74.8391712  64.8319190  26.9045449  74.0406843
  66.7839063  29.5398892  73.3548504  67.2770938  29.4913282  74.1770476
  63.5402300  28.0030667  72.2468552  63.5753812  26.9077875  71.6757528
  62.4588757  28.4256972  72.9029873  62.4640734  29.2970815  73.4136357
  61.2656512  27.5893873  72.9742819  61.5075544  26.5765834  73.2964782
  60.2434503  28.2070676  73.9473438  60.1031975  29.2573169  73.6915980
  58.9044280  27.4786407  73.8581103  59.0438033  26.4283554  74.1141885
  58.1971819  27.9308446  74.5533909  58.5150837  27.5559959  72.8429619
  60.8012559  28.1610336  75.3730001  61.0603153  27.1222958  75.5779703
  61.7062571  28.7685228  75.3783938  59.8495230  28.6637653  76.4394968
  58.9444142  28.0564286  76.4350206  60.3281877  28.5943715  77.4163099
  59.5903541  29.7026556  76.2354425  60.6775980  27.3848620  71.5837842
  60.2308735  26.2832754  71.2387725  60.6545206  28.4398979  70.7689618
  60.9493304  29.3547050  71.0793076  60.1395882  28.3029597  69.4108114
  59.1277330  27.8983560  69.4341391  60.1040530  29.6668265  68.7249939
  59.5834161  30.3506500  69.3953833  61.1369762  29.9933083  68.6042496
  59.4142188  29.6611843  67.3729041  59.9266055  28.9508745  66.7240430
  58.3801621  29.3455090  67.5113887  59.4413847  31.0396211  66.7353596
  58.9336017  31.7375705  67.4010337  60.4812094  31.3437786  66.6155582
  58.7545967  31.0416209  65.3811911  59.2144023  30.2696788  64.7641137
  57.7012303  30.8056673  65.5323347  58.8745765  32.3580973  64.6990094
  59.8505638  32.5767260  64.5584749  58.4064306  32.3178784  63.8049614
  58.4481925  33.0734686  65.2704458  60.9796830  27.3222753  68.6047836
  60.4384979  26.4829879  67.8742992  62.3057011  27.4118084  68.7228543
  62.7408756  28.1479132  69.2603226  63.1669275  26.4676860  68.0187122
  62.9511395  26.4924773  66.9505735  64.6354090  26.8356382  68.2289838
  64.8182662  26.9394933  69.2985055  65.2556533  26.0324295  67.8311738
  64.9588266  28.0494022  67.5750733  65.8845476  28.2559420  67.7233361
  62.9053399  25.0410705  68.4810130  62.8318422  24.1178005  67.6624066
  62.7593237  24.8408184  69.7929080  62.8725452  25.5945351  70.4556231
  62.4996533  23.5001825  70.3075999  63.2717399  22.8132151  69.9611072
  62.5050307  23.5102850  71.8353626  61.7178390  24.1951490  72.1506240
  62.2579887  22.4994822  72.1599360  63.8252031  23.9342491  72.4595111
  64.0779125  24.9235274  72.0779785  63.6879397  23.9861115  73.5395904
  64.9466270  22.9686222  72.1394064  64.6558632  21.9720659  72.4717177
  65.1037679  22.9599453  71.0608282  66.2331979  23.3785260  72.8348518
  66.4877999  24.3877189  72.5111109  66.0537278  23.3768274  73.9099736
  67.3583698  22.4580482  72.5188110  67.5251154  22.4598039  71.5226722
  68.1910173  22.7665204  73.0001042  67.1228264  21.5229320  72.8191041
  61.1803472  22.9545488  69.7762240  61.0933565  21.7810333  69.3985497
  60.1398359  23.7897878  69.7364882  60.1968184  24.7257144  70.1118465
  58.8595031  23.3353645  69.2011431  58.5569854  22.4146872  69.7000776
  57.7781076  24.3917427  69.4276534  58.3111945  25.3380611  69.3360069
  57.0444931  24.3094405  68.6256957  57.0630607  24.3381017  70.7804773
  57.8092725  24.3170789  71.5747234  56.1681854  25.5518299  70.9591840
  55.4213726  25.5732835  70.1655158  55.6683936  25.4961662  71.9262468
  56.7715273  26.4585050  70.9142482  56.2545850  23.0578977  70.9170743
  56.9193024  22.1976349  70.8383460  55.7563370  23.0439024  71.8864320
  55.5076314  23.0129705  70.1245209  58.9722641  22.9984681  67.7198033
  58.4189878  21.9912838  67.2626271  59.6811702  23.8274937  66.9514200
  60.0670337  24.6876606  67.3138033  59.8624305  23.5309215  65.5339770
  58.8919540  23.3926447  65.0573702  60.5889717  24.6827539  64.8380560
  61.4257914  24.9676620  65.4757544  60.9686584  24.2986784  63.8912592
  59.7138801  25.8990522  64.5769945  58.8043245  25.5581103  64.0824563
  59.4592910  26.3406364  65.5404710  60.4010947  26.9378026  63.7107799
  61.6259967  26.8218061  63.4984931  59.7162628  27.8704875  63.2410042
  60.6258283  22.2285297  65.3340706  60.4431903  21.5521992  64.3156485
  61.4812710  21.8651690  66.2851808  61.6594095  22.4994025  67.0507615
  62.2207892  20.6117319  66.2408481  62.3175722  20.3188789  65.1953964
  63.6225257  20.8092592  66.8255546  63.5423504  21.0939812  67.8746520
  64.1851560  19.8792621  66.7439893  64.1390764  21.5953106  66.2747391
  61.5139571  19.4804491  66.9776992  62.0633230  18.3776604  67.0623169
  60.3160218  19.7230567  67.5102569  59.9448023  20.6617451  67.4762034
  59.5462908  18.6982368  68.2143914  58.6571864  19.1478307  68.6564976
  59.1083980  17.5905255  67.2555471  60.0122630  17.1657382  66.8188743
  58.6011349  16.8308277  67.8502264  58.1843294  18.0651573  66.1453355
  57.6031442  17.2113093  65.7970995  57.5122961  18.8169708  66.5591588
  58.9555808  18.6622311  64.9792433  59.0742832  19.7333583  65.1426298
  59.9376633  18.1925086  64.9247068  58.2684271  18.4566879  63.7101500
  57.4484139  17.8671712  63.7223109  58.6490415  18.9872268  62.5563796
  59.7159250  19.7662158  62.4711826  60.2585921  19.9665084  63.2991291
  59.9823441  20.1566828  61.5786267  57.9415954  18.7321865  61.4594846
  57.1253460  18.1399454  61.5150495  58.2238328  19.1319096  60.5759337
  60.3332078  18.1142808  69.3846247  60.2775730  16.9148746  69.6601146
  61.0756917  18.9734443  70.0829116  61.1490621  19.9385731  69.7943935
  61.8418481  18.5393629  71.2435750  62.3277143  17.5865060  71.0335823
  62.9179938  19.5727547  71.5819197  62.4027733  20.4820298  71.8915419
  63.4901526  19.1763952  72.4207483  63.8611155  19.8914400  70.4303004
  63.2506322  20.1424360  69.5628836  64.4585182  20.7571385  70.7162644
  64.7789922  18.7369024  70.0843651  64.7611214  17.7210622  70.8110516
  65.5216936  18.8459261  69.0863383  60.9645928  18.3015844  72.4658816
  61.4222085  17.6740232  73.4262023  59.7237881  18.7890442  72.4550807
  59.3971424  19.2674667  71.6277271  58.8242881  18.6948907  73.6003286
  59.4080105  18.5692428  74.5122387  57.9732008  19.9554983  73.7355619
  57.5116379  20.1348787  72.7645410  57.1987139  19.7356103  74.4703540
  58.7367899  21.1826894  74.1628797  59.0846257  21.3755489  75.4913734
  58.7932646  20.6236425  76.2247526  59.7851439  22.4917914  75.8907902
  60.0530611  22.6310907  76.9381287  60.1437193  23.4363656  74.9578137
  60.8403168  24.5539857  75.3536627  61.0201777  24.5694587  76.2965361
  59.8119543  23.2665066  73.6306299  60.1005659  24.0138446  72.8915158
  59.1133060  22.1473762  73.2406557  58.8473743  22.0085850  72.1927447
  57.9243707  17.4760241  73.4474016  57.0307976  17.4579782  72.5949783
  58.1627713  16.4574493  74.2759531  58.9118132  16.4950924  74.9524282
  57.3759881  15.2343366  74.1837270  57.3796554  14.8662942  73.1577492
  57.9678124  14.1563513  75.0914438  57.8653119  14.5111306  76.1169800
  57.3645414  13.2586653  74.9560777  59.4267699  13.8331915  74.8107506
  59.5037103  13.3859686  73.8197043  60.0033560  14.7578241  74.8373010
  59.9726844  12.8678674  75.8440887  59.3690358  11.9602843  75.8446926
  61.0038991  12.6175607  75.5950063  59.9429354  13.4501388  77.1820757
  60.3416965  14.3732615  77.2765929  59.4425405  12.8623770  78.2626398
  58.9011234  11.6549771  78.2134674  58.8621370  11.1577491  77.3352052
  58.5296384  11.2368282  79.0544490  59.4828044  13.5069287  79.4260920
  59.8905297  14.4296863  79.4748622  59.1054571  13.0704352  80.2550559
  55.9194948  15.4889337  74.5479132  55.0208422  14.8264554  74.0167437
  55.6697572  16.4397585  75.4473259  56.4406880  16.9080383  75.9017257
  54.3166024  16.7940409  75.8454677  53.6586759  16.7343703  74.9784779
  53.7849359  15.8504153  76.9295058  52.7124554  16.0191921  77.0264546
  53.9626711  14.8277231  76.5969239  54.4521473  16.0676210  78.2690212
  54.0521997  17.0073099  78.9853003  55.3750398  15.2966871  78.6066238
  54.3132378  18.2376737  76.3294701  55.3587950  18.8122208  76.6419887
  53.1130675  18.8198581  76.3868240  52.2776670  18.2893877  76.1848180
  52.9750803  20.2425411  76.6802278  53.5976190  20.7865831  75.9699019
  51.5220060  20.6750774  76.4874158  50.8873937  20.1455055  77.1979937
  51.4367032  21.7487553  76.6548652  51.2040955  20.4398998  75.4716778
  53.4327664  20.6155852  78.0845396  53.7213307  21.7920693  78.3326559
  53.4979833  19.6573615  79.0101124  53.2328037  18.7034815  78.8103827
  53.9001994  19.9926585  80.3713983  53.2718628  20.7947360  80.7586500
  53.7499589  18.7729806  81.2794834  52.8085215  18.2890356  81.0194986
  54.5776225  18.0993589  81.0574323  53.7541733  19.1085690  82.7609799
  53.6788676  18.1798646  83.3266105  54.6895930  19.6099015  83.0094908
  52.6003107  20.0116168  83.1556339  51.5329916  19.9762786  82.5421233
  52.8116073  20.8310556  84.1793173  52.0769833  21.4537580  84.4837362
  53.7059367  20.8277175  84.6486413  55.3305688  20.5154056  80.4069616
  55.6412917  21.4478996  81.1587462  56.2169026  19.9304456  79.5994850
  55.9841030  19.0996168  79.0744830  57.5764126  20.4513058  79.5030999
  58.0375199  20.4744067  80.4904933  58.4183086  19.5578984  78.5914528
  57.9479678  19.5704786  77.6082333  59.4080318  20.0098542  78.5260006
  58.5483619  18.1208241  79.0725436  59.0020549  18.1412324  80.0634255
  57.5465008  17.6969106  79.1408880  59.3965260  17.2677565  78.1451989
  59.4075673  17.5421391  76.9272903  60.0494297  16.3222975  78.6347589
  57.5771229  21.8856408  78.9918863  58.3375025  22.7271751  79.4831998
  56.7335491  22.1842288  78.0018835  56.1635588  21.4707883  77.5703594
  56.6597493  23.5438780  77.4725239  57.6464929  23.8820056  77.1561284
  55.7240551  23.5662427  76.2624110  56.2525612  23.1960172  75.3839387
  54.8486178  22.9439815  76.4481547  55.2128720  24.9326361  75.9116437
  54.0469501  25.4200970  76.4791736  53.5015717  24.7991552  77.1898730
  53.5747503  26.6735540  76.1551954  52.6574013  27.0469182  76.6103555
  54.2637782  27.4544985  75.2549976  53.8926776  28.4463481  74.9968915
  55.4241929  26.9812429  74.6796649  55.9708273  27.5983670  73.9666088
  55.8925389  25.7275245  75.0066562  56.8084791  25.3518345  74.5505747
  56.1931996  24.5246110  78.5432667  56.7578601  25.6174037  78.6958602
  55.1504627  24.1544680  79.2875508  54.6678952  23.2810041  79.1317021
  54.6815167  25.0193783  80.3571291  54.3990336  25.9806647  79.9279078
  53.8089224  24.5580489  80.8195726  55.7402590  25.2448617  81.4175639
  55.9285356  26.3684826  81.8958994  56.4500079  24.1793895  81.7955155
  56.2295492  23.2535825  81.4573163  57.5327091  24.3228211  82.7606640
  57.1415963  24.7699072  83.6745808  58.1199142  22.9532477  83.0995337
  58.5238152  22.4968329  82.1958470  58.9167092  23.0706118  83.8340019
  57.3386446  22.3140455  83.5107973  58.6149646  25.2502899  82.2287742
  59.1556644  26.0715251  82.9730022  58.9408624  25.1366436  80.9405098
  58.5208203  24.4303239  80.3533331  59.9655297  25.9977124  80.3610631
  60.8867106  25.9227930  80.9389144  60.2552963  25.5714492  78.9231351
  59.3012927  25.3373517  78.4507214  60.7198277  26.4110846  78.4061022
  61.1661373  24.3648741  78.8451207  61.5206523  23.8153035  79.9093342
  61.5349704  23.9689763  77.7193760  59.5495965  27.4628898  80.4081880
  60.3510579  28.3320007  80.7685863  58.3028678  27.7602911  80.0421074
  57.6687692  27.0524365  79.7001130  57.8504152  29.1519930  80.0494242
  58.5411894  29.8060139  79.5172711  56.4613586  29.2675194  79.3959166
  55.8037487  28.5096560  79.8217001  55.8732328  30.6449668  79.6446430
  56.5301031  31.4033872  79.2187077  54.8911209  30.7112183  79.1764898
  55.7756436  30.8106094  80.7175551  56.5566357  28.9880592  77.9038340
  56.9415957  27.9805560  77.7462103  55.5674990  29.0730427  77.4538494
  57.2291914  29.7100243  77.4406538  57.8479027  29.7022423  81.4712429
  58.3097092  30.8260981  81.7326028  57.3131128  28.9242652  82.4149819
  56.8653235  28.0450497  82.1991943  57.2960006  29.3871252  83.7952799
  56.8372927  30.3743504  83.8507130  56.4890150  28.4242584  84.6648952
  56.7520139  27.4083240  84.3702634  56.7801023  28.5879698  85.7024726
  54.9880464  28.6201867  84.5230518  54.7422661  29.6161335  84.8915393
  54.7384203  28.5532948  83.4641305  54.1935201  27.5856265  85.2955187
  54.3780316  26.5987373  84.8711319  54.5069600  27.5960426  86.3394279
  52.7629111  27.8603062  85.2345688  52.4877476  28.7890881  84.9486519
  51.8138145  26.9809304  85.5274235  52.1067336  25.7486641  85.9100135
  53.0724318  25.4621151  85.9836111  51.3632811  25.1002604  86.1266949
  50.5397083  27.3471636  85.4329798  50.3075490  28.2857341  85.1409397
  49.8094857  26.6852247  85.6536844  58.7068324  29.5625023  84.3359337
  58.9502129  30.4661921  85.1371482  59.6503192  28.7251872  83.9015904
  59.4181471  27.9170502  83.3420281  61.0452438  28.9303640  84.2744737
  61.1344876  29.0162265  85.3574152  61.8887521  27.7450736  83.8075193
  61.4830670  26.9020976  84.3669032  61.7112309  27.5931484  82.7428574
  63.3930910  27.8496836  84.0633776  63.7669475  28.7686625  83.6119245
  63.6776608  27.8667086  85.5552289  63.3044783  26.9477770  86.0073331
  64.7525719  27.9414939  85.7197710  63.1804433  28.7230907  86.0107340
  64.1310194  26.7068223  83.3840847  63.9519040  26.7457197  82.3096062
  65.1998786  26.7980478  83.5772665  63.7710043  25.7562854  83.7777440
  61.5786060  30.2279265  83.6859473  62.3239179  30.9601514  84.3469706
  61.2139327  30.5227984  82.4373012  60.6536294  29.8846852  81.8905188
  61.6590546  31.7631539  81.8112647  62.7476517  31.7865302  81.7611731
  61.1025699  31.8614692  80.3911693  61.4168371  30.9617603  79.8621522
  60.0157957  31.8725743  80.4742268  61.5635476  33.0868943  79.6228244
  61.2215159  33.9755205  80.1533512  62.6529666  33.0822600  79.5875145
  60.9166018  33.1151620  77.9415603  59.2024703  33.5208923  78.2548319
  59.1433899  34.4833542  78.7630401  58.6629761  33.5761393  77.3093190
  58.7552530  32.7507172  78.8832650  61.2239211  32.9675290  82.6302869
  62.0003791  33.9085047  82.8295322  59.9799186  32.9585084  83.1093093
  59.3246662  32.2212772  82.8919757  59.5118733  34.0879005  83.9142473
  59.8398993  35.0253602  83.4651733  57.9861608  34.0889599  83.9867000
  57.6280173  33.0950312  84.2549130  57.6428143  34.8105909  84.7279570
  57.3166013  34.4521338  82.6905443  57.5830525  35.6607867  82.0748399
  58.2877435  36.3501917  82.5398466  56.9698049  35.9987920  80.8870239
  57.1899042  36.9549601  80.4122613  56.0816853  35.1304393  80.3023495
  55.5968228  35.3949083  79.3626344  55.8044016  33.9268038  80.9033066
  55.0987525  33.2370707  80.4402432  56.4183523  33.5906382  82.0921814
  56.1962761  32.6361623  82.5694210  60.1216364  34.0686819  85.3164226
  60.4954153  35.1221358  85.8586681  60.2234546  32.8860628  85.9228622
  59.9168242  32.0376197  85.4687460  60.7264935  32.7962451  87.2852919
  60.1818617  33.4861535  87.9298862  60.5410126  31.3781340  87.8211146
  59.4982822  31.0878111  87.6925640  61.1787737  30.7016166  87.2521814
  60.8846097  31.3080553  89.1937278  60.7608370  30.4098270  89.5091103
  62.1871514  33.2016296  87.3686636  62.6215371  33.7117788  88.4019466
  62.9643854  32.9763063  86.3081421  62.6298156  32.4615218  85.5061700
  64.3512307  33.4268949  86.3109824  64.8719583  33.0266991  87.1809165
  65.0624205  32.9401118  85.0497175  64.4647957  33.2182513  84.1816264
  66.0375913  33.4232506  84.9887347  65.2640009  31.4416335  85.0375058
  65.1627088  30.7818804  86.0707080  65.5520543  30.8930621  83.8642280
  65.6967918  29.8956522  83.7984689  65.6252582  31.4754203  83.0422786
  64.4203286  34.9438578  86.4154576  65.1979086  35.4930104  87.2040911
  63.6030060  35.6389847  85.6228624  63.0336746  35.1826952  84.9244636
  63.5570924  37.0922419  85.7094507  64.5496020  37.5069199  85.5331945
  62.6006565  37.6527061  84.6595397  62.9960974  37.4923921  83.6565316
  61.6212921  37.1815601  84.7430068  62.3159538  39.4278963  84.8071517
  61.4804512  39.5208726  83.7765261  63.1396802  37.5395339  87.1020974
  63.7307444  38.4650619  87.6675619  62.1186434  36.8941805  87.6717122
  61.5933764  36.1833046  87.1829901  61.7054934  37.2519469  89.0281927
  61.4388842  38.3081542  89.0662019  60.4907970  36.4255055  89.4545416
  60.7345791  35.3894506  89.2194677  60.3939744  36.5394531  90.5342366
  59.1862184  36.7987995  88.7900641  58.9221581  38.1038183  88.4035695
  59.6765093  38.8702346  88.5815016  57.7300635  38.4381301  87.8039129
  57.5330385  39.4675411  87.5045872  56.7830659  37.4650080  87.5848719
  55.5934876  37.7873769  86.9854065  55.5270348  38.7182352  86.7602700
  57.0190012  36.1656109  87.9604403  56.2685203  35.3946060  87.7859971
  58.2116065  35.8402840  88.5602020  58.4056374  34.8119483  88.8651244
  62.8411370  37.0497568  90.0251013  63.1039641  37.9111980  90.8707554
  63.5289417  35.9122092  89.9346347  63.3260609  35.2456029  89.2034885
  64.5456447  35.5679848  90.9210852  64.1543852  35.6941800  91.9305850
  64.9539963  34.1060936  90.7344514  64.0480619  33.5139258  90.8637544
  65.3048788  34.0127090  89.7067059  66.0270477  33.6024033  91.6828953
  66.9234479  34.2114040  91.5659099  65.6654824  33.6821611  92.7080838
  66.3574304  32.1491626  91.3733916  65.4780088  31.5456088  91.5979789
  66.5886228  32.0721968  90.3109766  67.5358240  31.6462104  92.1844949
  68.3896683  32.2962478  91.9934402  67.2733352  31.6932495  93.2413706
  67.8882229  30.2450848  91.8227103  68.1318996  30.2013581  90.8435222
  68.6744242  29.9412799  92.3792083  67.0973065  29.6425131  92.0000733
  65.7558387  36.4856958  90.8208092  66.3201075  36.8877421  91.8442365
  66.1711978  36.8282593  89.6022461  65.6925342  36.5134048  88.7704726
  67.3762565  37.6344264  89.4432454  68.1768867  37.2324918  90.0641633
  67.8339875  37.6184409  87.9855898  67.9729088  36.5733363  87.7089012
  67.0413503  38.0527752  87.3763444  69.1213099  38.3766143  87.7524117
  70.3547149  37.7660537  87.9329048  70.3841967  36.7227064  88.2470015
  71.5309649  38.4567149  87.7217271  72.4926970  37.9627244  87.8600986
  71.4847013  39.7778334  87.3364200  72.6535650  40.4703302  87.1279017
  73.4374815  39.9372354  87.2791784  70.2736325  40.4089333  87.1564082
  70.2367140  41.4541810  86.8494965  69.1022281  39.7096555  87.3670623
  68.1403784  40.2040614  87.2310175  67.1478453  39.0666603  89.9019286
  67.8532173  39.5719963  90.7815847  66.1676494  39.7380392  89.3144659
  65.5178146  39.2799945  88.6915621  66.0234856  41.1625350  89.5304322
  67.0035825  41.6367727  89.5814993  65.2444829  41.7790024  88.3777880
  64.3405453  41.1931070  88.2112865  64.9711376  42.7998441  88.6447425
  66.0392561  41.8123446  87.0979619  65.8177523  41.0046203  86.1976461
  66.9739490  42.7495111  87.0060916  67.5363574  42.8172419  86.1699044
  67.1187560  43.3908694  87.7727671  65.3074616  41.4547782  90.8429795
  64.5818701  40.6085892  91.3708196  65.4976462  42.6491214  91.3936111
  66.6034725  43.5861519  91.1382895  66.3495214  44.2298692  90.2961273
  67.5099697  43.0268125  90.9069858  66.7110000  44.3366901  92.4195359
  67.0953029  45.3377421  92.2238189  67.3896950  43.8126548  93.0924858
  65.3386284  44.3835158  92.9821499  64.8464637  45.2590242  92.5586431
  65.2962737  44.4342938  94.0701422  64.6437197  43.1041029  92.4894648
  64.6000389  42.3253095  93.2508261  63.2428113  43.3988319  91.9876805
  63.0255393  43.5501075  90.7763839  62.2598225  43.4851661  92.8851528
  62.3505002  43.4108782  94.3527399  63.1267740  44.0909568  94.7034425
  62.5992403  42.3921364  94.6500486  60.9749871  43.8211083  94.8054616
  60.9570800  44.8957044  94.9871802  60.7220568  43.2933720  95.7250387
  60.0512003  43.4412929  93.7044605  59.1853741  44.1034426  93.7031720
  59.7158473  42.4056416  93.7598183  60.8747686  43.6572664  92.4281887
  60.6679837  42.8898350  91.6822750  60.6306338  45.0278061  91.8239535
  59.7233098  45.1821943  90.9974419  61.4200847  46.0281783  92.2202019
  62.1224185  45.8719709  92.9290219  61.2494551  47.3824131  91.7012669
  60.2109846  47.6967524  91.8055211  62.1339169  48.3511505  92.4851158
  62.9954546  47.7988130  92.8603162  62.4713455  49.1253925  91.7960648
  61.4007047  48.9933850  93.6467370  60.3114448  49.5606645  93.4211781
  61.9100355  48.9264220  94.7848900  61.5525768  47.4734568  90.2084731
  60.8712904  48.2116425  89.4887344  62.5670311  46.7584021  89.7195220
  63.0795544  46.1023121  90.2913307  62.9813110  46.9375091  88.3314071
  63.3754140  47.9448619  88.1971599  64.0677877  45.9317993  87.9445413
  63.7642797  44.9258658  88.2345066  64.2370179  45.9636222  86.8682289
  65.3922629  46.1831593  88.5937360  66.5827224  45.7885285  88.0205077
  67.5843303  46.1377640  88.8075251  68.6137757  45.9147705  88.5271412
  67.0875540  46.7417639  89.8719753  67.6183059  47.1145347  90.6462132
  65.7184543  46.7850327  89.7614314  65.1227387  47.2507436  90.5465029
  61.7773220  46.7689951  87.4167080  60.9646314  45.8587973  87.5979321
  61.6621888  47.6541610  86.4236079  62.3644830  48.3590126  86.2502115
  60.4649720  47.6515828  85.5910395  59.5690757  47.6992284  86.2100702
  60.4914954  48.8722350  84.6774649  61.4728269  49.3368169  84.7736498
  60.3540617  48.5231841  83.6540512  59.4243801  49.8805842  85.0109999
  59.3846854  50.6194075  84.2105842  58.4690109  49.3593029  85.0712884
  59.7039134  50.5787174  86.3304783  59.3274137  50.0290562  87.3862977
  60.3020600  51.6748291  86.3124592  60.3522304  46.3725864  84.7743507
  59.2468791  46.0186984  84.3089133  61.4541879  45.6324961  84.6400747
  62.3411041  45.8807632  85.0546134  61.3945651  44.4528177  83.7997147
  61.0084391  44.6765168  82.8052477  62.7779694  43.7957020  83.6536105
  63.4686376  44.5232587  83.2273033  63.3009440  43.3306626  84.9983696
  62.6109895  42.6026870  85.4251192  64.2800782  42.8696945  84.8683494
  63.3883253  44.1847614  85.6699211  62.7072917  42.6463208  82.6650046
  62.3851843  43.0212666  81.6935291  63.6915885  42.1880470  82.5688558
  61.9942662  41.9029978  83.0216084  60.3777362  43.5252877  84.4186009
  59.6555500  42.8086505  83.7208049  60.3639376  43.4724061  85.7530885
  60.9926374  44.0348896  86.3084696  59.4815285  42.5451334  86.4390509
  59.6229100  41.5193974  86.0984981  59.7163902  42.5953949  87.9571592
  59.9622786  43.6177613  88.2442219  58.4735830  42.1463514  88.7022143
  58.2273198  41.1238368  88.4159989  58.6578691  42.1882461  89.7757058
  57.6413060  42.8038661  88.4510350  60.9090526  41.7367923  88.3321832
  61.7983790  42.1064614  87.8217467  61.0646589  41.7810423  89.4101109
  60.7224838  40.7049329  88.0345943  58.0503705  42.8926222  86.0744029
  57.2057774  42.0111672  85.9133142  57.7275709  44.1909479  86.0794845
  58.3995908  44.8936036  86.3529138  56.3766728  44.6223343  85.7358259
  55.6625743  44.2442827  86.4674266  56.2916546  46.1487576  85.7136965
  56.9945992  46.5417138  84.9791528  55.2796766  46.4529691  85.4463836
  56.5399925  46.5413374  86.6997536  55.9890790  44.0418776  84.3865787
  54.8894285  43.4913203  84.2080727  56.9385131  44.0674568  83.4472680
  57.8532639  44.4604753  83.6171704  56.6407074  43.5588759  82.1109050
  55.6917521  43.9646761  81.7603207  57.7407067  43.9747857  81.1338561
  58.6587644  43.4901020  81.4660474  57.4585547  43.5857505  80.1555198
  57.9668775  45.4757232  81.0362687  57.2413943  45.8892007  80.3356894
  57.8093683  45.9132614  82.0220948  59.6298893  45.8740798  80.4704897
  59.4736417  45.5787393  78.7130675  58.7058685  46.2335346  78.3009190
  60.4258786  45.7832696  78.2236670  59.1938382  44.5392004  78.5422748
  56.4968283  42.0436784  82.1332945  55.6251257  41.4806230  81.4587034
  57.3581808  41.3691608  82.8910670  58.1122081  41.8441831  83.3663521
  57.2702234  39.9203151  83.0113147  57.3254831  39.4698945  82.0202713
  58.4345192  39.3970164  83.8510758  58.3875646  39.8321432  84.8493543
  58.3706804  38.3114090  83.9251130  59.3770736  39.6736582  83.3786779
  55.9409185  39.5052090  83.6254485  55.3249630  38.5326931  83.1827096
  55.4873347  40.2244867  84.6535882  56.0403703  40.9684786  85.0544960
  54.2000406  39.9138808  85.2641445  54.1834220  38.8718282  85.5834397
  53.9615781  40.8029853  86.4852550  54.2073512  41.8248281  86.1962359
  52.9014397  40.7404040  86.7307954  54.7849853  40.4085738  87.6966989
  54.3595335  39.4943655  88.1106008  55.8046277  40.2156508  87.3632141
  54.7976464  41.4881114  88.7630155  55.1607961  42.4198177  88.3292591
  53.7857865  41.6340588  89.1410873  55.6642922  41.1224331  89.8769359
  55.9177862  40.1480377  89.9568968  56.1309757  41.9741683  90.7807050
  55.8186621  43.2584329  90.7475330  55.2110654  43.6086364  90.0207016
  56.1891179  43.8833814  91.4491751  56.9351049  41.5242600  91.7396543
  57.1809463  40.5451138  91.7702293  57.2962689  42.1637862  92.4329548
  53.0845617  40.0832909  84.2503581  52.1643863  39.2609162  84.1822469
  53.1855573  41.1092433  83.4065178  53.9471573  41.7709671  83.4532786
  52.1311698  41.3370139  82.4254864  51.1577120  41.3636278  82.9151504
  52.3648787  42.6782384  81.7296215  52.2891683  43.4391482  82.5063992
  53.3860939  42.6479088  81.3497536  51.4157684  43.0156356  80.5987078
  51.8936896  43.7790370  79.9847776  51.2737304  42.1110221  80.0074365
  50.0726206  43.5213409  81.0765489  49.6321210  42.7851393  81.7489076
  50.2138150  44.4612932  81.6100780  49.1447108  43.7452976  79.8925523
  49.3205453  44.7532494  79.5167655  49.4060236  43.0200613  79.1219375
  47.7109097  43.5933460  80.2491687  47.4684595  44.2655658  80.9629181
  47.1416505  43.7518632  79.4300739  47.5476790  42.6592870  80.5970029
  52.1028860  40.1705930  81.4411712  51.0455494  39.5706540  81.1777596
  53.2700390  39.8334543  80.8902471  54.1270776  40.2996981  81.1513999
  53.3281710  38.8112917  79.8557336  52.6125949  39.0422074  79.0666025
  54.7258288  38.7516860  79.2447019  54.9428508  39.7907655  78.9970844
  55.4345583  38.4019521  79.9953607  54.8505519  37.8911870  77.9861337
  54.5934152  36.8634027  78.2423383  53.9287730  38.3836124  76.8850407
  54.1856196  39.4112486  76.6279561  54.0422397  37.7503034  76.0051851
  52.8956686  38.3433564  77.2302582  56.2957486  37.8518265  77.5066930
  56.9269377  37.4286567  78.2881192  56.3651517  37.2351500  76.6105934
  56.6308378  38.8634657  77.2777820  52.9443679  37.4539199  80.4252617
  52.2922320  36.6564922  79.7476609  53.3376514  37.1714784  81.6710903
  53.9292503  37.8057993  82.1885331  52.9652524  35.9094178  82.2959965
  53.1872484  35.0844744  81.6190287  53.7441062  35.6991681  83.5938720
  54.8029403  35.8158121  83.3628665  53.4366090  36.4792728  84.2902786
  53.5103980  34.3343149  84.2259585  52.4499291  34.2314362  84.4560078
  53.8021068  33.5672583  83.5085798  54.3038220  34.1321966  85.5000309
  54.9690355  35.0475755  85.9828947  54.2338569  32.9284550  86.0541798
  54.7429909  32.7373169  86.9052675  53.6717929  32.2089603  85.6223085
  51.4736290  35.8536149  82.5730577  50.8745751  34.7785143  82.4928388
  50.8552068  36.9875890  82.9079405  51.3666159  37.8371632  83.0997316
  49.4059878  37.0047582  83.0583883  49.0998021  36.2669675  83.8000179
  48.9414416  38.3848031  83.5218223  49.3234287  39.1234317  82.8171147
  47.8516736  38.3929935  83.5008775  49.4221732  38.7239013  84.9188135
  49.9419872  37.8202076  85.6055100  49.2829252  39.8956504  85.3288904
  48.7392375  36.6240490  81.7457686  47.8155411  35.8001042  81.7148345
  49.2140893  37.2028604  80.6410500  49.9116158  37.9323644  80.6781994
  48.6605519  36.8376668  79.3358539  47.5756603  36.9393196  79.3079934
  49.2661287  37.7219162  78.2303514  50.3522145  37.6346590  78.2604000
  48.7596247  37.2833253  76.8627880  47.6735775  37.3707504  76.8318171
  49.1968410  37.9181296  76.0920961  49.0454071  36.2467234  76.6842197
  48.9385816  39.1844970  78.4792438  49.3490025  39.4906304  79.4415012
  49.3744868  39.7947015  77.6882086  47.8569305  39.3189362  78.4868395
  48.8938996  35.3558897  79.0544194  47.9936756  34.6401040  78.5876382
  50.1046683  34.8727763  79.3345008  50.8211437  35.4652721  79.7291031
  50.4436656  33.4885635  79.0287282  50.2566485  33.2856788  77.9742323
  51.9192814  33.2254139  79.3221485  52.5357621  33.7180313  78.5702316
  52.1889163  33.5951915  80.3114217  52.2865444  31.7713657  79.2927254
  52.4233435  31.1021911  78.0894311  52.2654033  31.6453151  77.1576741
  52.7556331  29.7627674  78.0597345  52.8641323  29.2474143  77.1054077
  52.9500800  29.0777204  79.2380150  53.2124329  28.0199492  79.2182399
  52.8126549  29.7308827  80.4431023  52.9662662  29.1902226  81.3770136
  52.4805922  31.0693515  80.4676963  52.3683178  31.5855899  81.4211071
  49.5753581  32.5228830  79.8183390  49.1464788  31.4951168  79.2888251
  49.3270254  32.8194686  81.0942395  49.7693038  33.6070990  81.5460441
  48.4515895  31.9678609  81.8906019  48.7623526  30.9270911  81.7993672
  48.5190294  32.3703004  83.3631838  48.3555271  33.4469511  83.4099743
  47.7044876  31.8570774  83.8742845  49.8357939  32.0285649  84.0393474
  50.6401472  32.4289552  83.4222541  49.8521890  32.5127839  85.0157502
  50.0281629  30.5358941  84.2129943  49.0903734  29.7739394  83.8985983
  51.1148602  30.1232260  84.6683919  47.0175088  32.0325688  81.3855103
  46.3488528  30.9994436  81.2710186  46.5257000  33.2360933  81.0772557
  47.0500697  34.0825608  81.2464550  45.1784324  33.3547771  80.5312362
  44.4492891  32.9989981  81.2591582  44.8688269  34.8161780  80.2035996
  45.7355656  35.2176607  79.6785522  44.0068482  34.8195662  79.5364555
  44.5710778  35.6754450  81.4186419  43.6416218  35.3233986  81.8661637
  45.3863651  35.5526261  82.1316105  44.4047398  37.4221046  81.0036219
  44.4406073  38.1612859  82.6336273  45.3835138  37.9174123  83.1230679
  44.3474184  39.2436276  82.5444483  43.6127579  37.7735380  83.2272756
  45.0120461  32.4910519  79.2883479  43.9350194  31.9335734  79.0492345
  46.0691911  32.3665764  78.4844069  46.9271658  32.8735739  78.6485175
  45.9766259  31.5294772  77.2897937  44.9852969  31.6228707  76.8463485
  47.0171169  31.9654483  76.2569570  47.9962295  31.8471779  76.7211228
  46.9318973  31.2834583  75.4109503  46.8566710  33.3950554  75.7721881
  46.9504636  34.0622758  76.6289965  47.6517384  33.6081504  75.0576530
  45.5068337  33.6114372  75.1072338  45.3111605  32.7849284  74.4240836
  44.7333724  33.6386212  75.8747741  45.4625656  34.8606102  74.3544980
  45.7919227  34.8278426  73.4002708  45.0220377  36.0165232  74.8325285
  44.5809048  36.1311248  76.0757048  44.5757362  35.3240290  76.6828865
  44.2516174  37.0251071  76.4110629  45.0268173  37.0882456  74.0448272
  45.3638581  37.0121396  73.0957690  44.6933860  37.9732491  74.3993564
  46.1451252  30.0444460  77.6114604  45.3780693  29.2078251  77.1226540
  47.1394297  29.6977700  78.4309879  47.6954685  30.4067287  78.8873844
  47.4876041  28.2987745  78.6500842  47.4802366  27.7601561  77.7024898
  48.8846633  28.1942060  79.2603497  49.6085918  28.6897913  78.6134942
  48.9048669  28.6554768  80.2477306  49.3617415  26.7828254  79.4361512
  49.5669073  25.9666299  78.3380798  49.3788345  26.3611700  77.3395475
  50.0044536  24.6667823  78.4955616  50.1649848  24.0359181  77.6212957
  50.2383998  24.1665885  79.7589837  50.5832322  23.1405504  79.8871877
  50.0348134  24.9687183  80.8625014  50.2191176  24.5769612  81.8628305
  49.5971932  26.2689667  80.6996498  49.4336481  26.9022132  81.5716314
  46.4929705  27.5756729  79.5440892  46.4064962  26.3450536  79.4787351
  45.7440814  28.2988682  80.3780603  45.8847060  29.2927878  80.4896309
  44.7314786  27.6480946  81.1989369  45.2178888  26.9015458  81.8267659
  44.0441725  28.6720585  82.1012585  43.5448393  29.4212683  81.4868880
  43.3087023  28.1685147  82.7286559  44.7880184  29.1578318  82.7327779
  43.6990368  26.9287525  80.3463503  43.0169015  26.0254827  80.8425146
  43.5731345  27.3068130  79.0751187  44.1317036  28.0827105  78.7494149
  42.6303315  26.6999781  78.1498064  41.7969666  26.2585112  78.6963492
  42.0824421  27.7664781  77.2017062  42.8994754  28.0741085  76.5490812
  41.2973859  27.3012869  76.6055655  41.5205542  28.9836054  77.9174584
  40.7206986  28.6538389  78.5804711  42.3184537  29.4342364  78.5077042
  40.9760218  30.0072004  76.9387333  41.7847077  30.3219839  76.2791596
  40.1880130  29.5391341  76.3487710  40.4139824  31.2179959  77.6636988
  41.1410794  31.5348346  78.4113910  40.2722104  32.0157475  76.9345951
  39.1159115  30.9181493  78.3297717  39.2471510  30.1792541  79.0057227
  38.7785226  31.7469312  78.7981618  38.4419033  30.6249508  77.6370621
  43.2461313  25.5555692  77.3493516  42.7107210  25.1896176  76.2969357
  44.3540738  24.9901732  77.8180102  44.8049777  25.3321428  78.6545756
  44.9644664  23.8751204  77.1127498  45.1682331  24.1585184  76.0801492
  46.2831570  23.4759527  77.7797575  46.9292848  24.3536086  77.7613652
  46.0530741  23.2163986  78.8130984  46.9953662  22.3069616  77.1091101
  46.2947589  21.4732661  77.0621843  47.2608766  22.6151108  76.0978483
  48.4847833  21.7813058  77.9788644  47.7781632  21.0009753  79.4261200
  47.1396360  20.1730933  79.1179099  48.5781206  20.6243638  80.0635622
  47.1857423  21.7295235  79.9796145  44.0048638  22.6864781  77.1018269
  43.3547965  22.4058270  78.1164955  43.8888873  21.9606251  75.9778550
  44.5782494  22.1608719  74.6905216  45.6459622  22.2899927  74.8677710
  44.1813858  23.0506808  74.2018106  44.2682520  20.9055448  73.9315732
  45.0607779  20.1753857  74.0954921  44.1971145  21.1310788  72.8675360
  42.9675196  20.4213829  74.4587767  42.9192467  19.3366750  74.3629766
  42.1076464  20.8683057  73.9598001  42.9745042  20.8134744  75.9394250
  41.9984935  21.1518834  76.2872477  43.4489827  19.6524571  76.8086625
  44.6307743  19.3125887  76.7627605  42.6215024  19.0355707  77.5818492
  41.6587290  19.3219352  77.6875001  43.1084929  17.9286328  78.4007591
  44.0185987  17.5189244  77.9626431  43.4262586  18.4138070  79.8429273
  44.1469418  19.2204932  79.7088662  42.5099377  18.8142722  80.2766134
  44.0155093  17.3526222  80.7826615  44.8165790  16.5122159  80.3245319
  43.6403085  17.3344219  81.9738605  42.1158406  16.7910396  78.4203600
  41.0412296  16.8462042  77.8027184  43.4730997  16.2566141  79.4356043
 103.2724403  64.3790338  58.5496713 103.3771993  64.9342599  57.7125031
 102.6831922  63.5856282  58.3413573 104.1838240  64.2369955  58.9611373
 102.5558798  65.1366745  59.4883819 101.6362995  64.6114192  59.7464093
 103.3675296  65.3645777  60.7719589 103.7436554  64.3966428  61.1032149
 104.2067587  66.0141229  60.5231906 102.5329246  66.0110877  61.9084760
 103.1464568  65.9835666  62.8089879 102.3548302  67.0476727  61.6223363
 101.0252533  65.2452906  62.2275451 100.4650985  65.8539726  63.8850537
 100.3523279  66.9377228  63.8556064  99.5082870  65.3963307  64.1364027
 101.2046149  65.5865256  64.6398311 102.2205227  66.4869932  58.9628525
 103.0698641  67.0163553  58.2299474 101.0807635  67.0561902  59.3804367
 100.4330041  66.5010125  59.9210704 100.7351961  68.4723665  59.1070908
 100.9043880  68.7342397  58.0626313  99.2202066  68.6277256  59.4190464
  99.0777989  68.5120750  60.4934971  98.9088490  69.6277961  59.1173586
  98.4260219  67.6456279  58.7203007  97.4990793  67.7714024  58.9360735
 101.4837058  69.5474938  59.9625793 101.6744736  69.3952024  61.1611285
 101.8876141  70.6151868  59.2927467 101.4386770  70.6599879  58.3891164
 102.9094669  71.6302279  59.6178042 102.8987791  71.7792512  60.6975157
 104.2755175  71.2739241  59.2061118 104.3909320  71.1688834  58.1273416
 104.7336795  72.2081593  59.5307533 104.9740804  70.0751259  59.9232581
 104.8836656  69.9031999  61.3312942 104.2876786  70.5989222  61.9219460
 105.5550886  68.8469867  61.9603840 105.5437096  68.8270527  63.0501431
 106.1194954  67.7827291  61.2465118 106.7762873  66.7411763  61.8541771
 106.8051328  66.8226635  62.8102772 106.0979078  67.8862580  59.8645198
 106.5464742  67.0967931  59.2614993 105.5144209  68.9781480  59.2501069
 105.4526294  69.0231407  58.1627902 102.3707554  72.9236936  58.9653073
 102.0193346  72.9360869  57.7953963 102.3363023  74.0122400  59.7185887
 102.6129563  73.8398270  60.6745362 101.7486149  75.3212082  59.3871199
 101.8071351  75.4952572  58.3126984 100.2613549  75.3585666  59.8139140
 100.2013315  75.4585385  60.8976585  99.8035277  76.2286788  59.3433836
  99.4751989  74.0967813  59.3899108  99.1080091  73.8983580  58.1934908
  99.1870052  73.1874153  60.2725901  98.6733660  72.3632957  59.9949184
  99.4780384  73.3091200  61.2320631 102.6137006  76.4852168  59.8511584
 103.6353314  76.3550466  60.6494135 102.2168935  77.6887193  59.4732499
 101.4553714  77.7194237  58.8104975 102.8586128  78.9213312  59.8294595
 103.3673727  78.8649129  60.7917897 103.8670407  79.1394501  58.7752132
 104.7002298  78.4469519  58.8949685 103.3113378  78.8858073  57.8724620
 104.3995254  80.5558506  58.6598408 103.7725884  81.3933319  57.7314863
 102.8321405  81.1030488  57.2630922 104.3744106  82.6311018  57.4025598
 103.9534490  83.2856405  56.6393611 105.3653085  83.1114693  58.2682325
 105.9470240  84.2797688  57.9911962 105.6088429  84.6865567  57.1900989
 105.9312040  82.3064758  59.2467814 106.7983985  82.6391567  59.8172177
 105.3743315  81.0581999  59.4942270 105.7082199  80.4725637  60.3507601
 101.7699866  79.9851341  60.0082038 100.6703137  79.8506536  59.4071045
 102.0545974  80.9439315  60.8742350 102.9277562  80.8667048  61.3759611
 101.0675011  81.9242354  61.3422000 100.4951977  82.4218374  60.5592821
 100.0643630  81.2933924  62.3733839  99.5493950  80.4596150  61.8961813
 100.7690267  80.8144979  63.5630200 101.2838950  81.6478594  64.0410578
 100.0521766  80.3823368  64.2612058 101.4966714  80.0560543  63.2742326
  98.8782848  82.1995367  62.7264378  98.3108359  82.4245093  61.8233924
  98.2330864  81.6916065  63.4432541  99.2468398  83.1273706  63.1639218
 101.5965610  83.3252807  61.7667253 102.5715681  83.3676106  62.4784938
 101.0472367  84.3933001  61.1049932 100.2231600  84.2714139  60.5339059
 101.7587633  85.6984627  61.0470152 102.1907447  86.1112912  61.9586423
 102.8319194  85.7316401  59.9320738 103.5589981  84.9608440  60.1876697
 102.3335001  85.5053240  58.5321991 101.6066709  86.2760568  58.2757010
 103.1710215  85.5503487  57.8360446 101.8608515  84.5252135  58.4682580
 103.7687611  86.8667754  60.0227460 104.2997317  86.8252520  60.9737707
 104.4862414  86.8126912  59.2039685 103.2137955  87.8026561  59.9576209
 100.7274873  86.8101075  60.9959420  99.6711737  86.5603935  60.4349949
 100.8938194  87.9929184  61.6683934 101.5418458  87.9116775  62.4388225
 100.2483333  89.2524885  61.4545220  99.2175421  88.9918492  61.6945967
 100.7532467  90.2841003  62.4944779 101.8230489  90.4187471  62.3348107
 100.0655340  91.6030036  62.3897188  98.9956772  91.4692201  62.5497440
 100.4631878  92.2816477  63.1443132 100.2343053  92.0236264  61.3984099
 100.2721310  89.8711235  63.7628812 100.5674696  90.4904659  64.4342905
 100.5155734  89.7468197  59.9601106 101.6666219  90.0110052  59.6604550
  99.4879666  89.9629539  59.1968483  98.5854174  89.6564888  59.5308893
  99.5550087  90.6542663  57.8869424 100.5315980  90.5469507  57.4148662
  98.4644712  90.0860771  56.9160779  97.4799799  90.1948342  57.3711041
  98.4922833  90.6363873  55.9756070  98.6613722  89.0311529  56.7251221
  99.2796101  92.1355269  58.0933072  99.7559793  92.9442949  57.3416930
  98.6271304  92.5242290  59.1762291  98.4381489  91.7609438  59.8100911
  98.1622788  93.8293432  59.5292262  98.8869816  94.5981383  59.2611606
  96.8497403  94.0785349  58.7229980  97.1496348  94.3422516  57.7087909
  96.3071425  93.1333247  58.7067073  95.9872875  95.1249310  59.2625297
  95.2637147  95.2007213  58.4508654  95.4738099  94.8403795  60.1809377
  96.6391431  96.5031654  59.4704312  97.3777422  96.9134781  58.6061321
  96.5620038  97.1548967  60.6190864  97.0041070  98.0579729  60.7144784
  96.0613625  96.7463850  61.3953453  97.8802210  93.9959048  61.0666613
  97.0644828  93.3071716  61.6641090  98.7219753  94.8599890  61.6706498
  99.4834686  95.2151269  61.1101996  98.7491006  95.1073465  63.1240143
  98.9179837  94.1886371  63.6857533  99.8877243  96.0376713  63.3780103
 100.0603301  96.0276083  64.4542097 100.7525554  95.6134949  62.8678715
  99.6772775  97.4674414  62.9129364  99.7911291  97.5575780  61.8326521
  98.6974973  97.8437022  63.2071480 100.7487984  98.2702124  63.5983929
 100.5268890  98.2564898  64.6654763 101.6957382  97.7613675  63.4181677
 100.8522039  99.7628585  63.1027843 101.5770885 100.2623983  63.7455150
 101.2321487  99.7338057  62.0815609  99.5266336 100.5331255  63.1328841
  99.1746146 100.5605332  64.0791564  99.6773017 101.4755153  62.8022778
  98.8549312 100.0706443  62.5370434  97.3924335  95.4618386  63.7592903
  96.4126486  95.8751519  63.0145603  97.1985456  95.2908977  65.0529876
  98.1827062  94.7727419  65.9382556  98.8975759  95.5719470  66.1340438
  98.6856070  93.9542601  65.4232049  97.4463853  94.3003620  67.2262178
  98.0739697  94.3961059  68.1122596  97.0954176  93.2720531  67.1395925
  96.2455669  95.2974661  67.2676261  96.5124120  96.1943304  67.8266673
  95.3700903  94.8337021  67.7221184  95.9435797  95.6656155  65.7962024
  95.1361960  95.0625722  65.3807886  95.5633296  97.1783641  65.7039225
  96.5582946  97.9640955  65.8200419  94.2879309  97.5548311  65.6067222
  93.5333801  96.8847546  65.6485536  93.9524292  98.9636074  65.4604390
  94.8458121  99.5830505  65.5395364  93.2892050  99.2355943  64.1173494
  92.9641019 100.2758058  64.0981597  94.2831165  98.9706117  62.9110301
  94.6083099  97.9304119  62.9292881  93.7745759  99.1752787  61.9689064
  95.1508040  99.6236951  63.0043095  92.1270544  98.4911285  63.8261525
  91.7950789  98.7415375  62.9608850  92.9635796  99.4760240  66.5168090
  92.7829956 100.6918509  66.5944141  92.2964760  98.6201367  67.2852195
  92.3978680  97.6552368  67.0045288  91.3400755  98.9344130  68.3101495
  90.8218819  99.8172750  67.9358110  90.3525522  97.8542669  68.5032511
  90.8550029  96.9661529  68.8865224  89.5939676  98.1779419  69.2159110
  89.8784866  97.6200171  67.5501048  92.0573487  99.3977547  69.6109242
  92.9405344  98.7782887  70.1518242  91.5850924 100.5308242  70.1884357
  90.8962125 101.1235527  69.7477355  92.1762334 100.9749768  71.4589702
  93.2167569 100.6730563  71.5783606  92.0916577 102.4818035  71.5877075
  91.0667466 102.7770797  71.3630556  92.4728120 102.9840834  72.9816753
  93.4978242 102.6895676  73.2068674  92.3926903 104.0707289  73.0113807
  91.7998601 102.5503088  73.7213219  92.9243702 103.2452064  70.5564714
  92.5838648 102.9900559  69.5529494  92.8090259 104.3171094  70.7171552
  93.9744652 102.9732337  70.6633926  91.5287221 100.2726505  72.5916664
  90.3964151 100.6666747  73.0102244  92.1714942  99.2870854  73.1623612
  93.0235280  98.9427055  72.7433860  91.6486936  98.5968023  74.3056021
  90.5613744  98.5379443  74.2569006  92.2286832  97.1416246  74.3191691
  93.3006014  97.3373540  74.2912298  91.9834641  96.5939871  75.2291476
  91.8708011  96.3061229  73.1543947  92.5743535  96.0915150  72.1638462
  90.6581282  95.8733923  73.1097089  90.3588287  95.2976571  72.3357266
  90.0125020  96.1119391  73.8488727  91.8907492  99.3167293  75.6281539
  91.1115464  99.0584857  76.5725237  92.8510356 100.1829865  75.6604402
  93.4814904 100.3060348  74.8810268  93.0379829 100.9843843  76.8034158
  92.0595431 101.3739627  77.0844558  93.4096296 100.3324047  77.5939224
  93.9930362 102.1369449  76.6288302  94.8273573 102.1833349  75.7637953
  93.7574390 103.1981751  77.4025778  92.9913739 103.1712421  78.0602389
  94.6165369 104.4332458  77.3580100  95.6206108 104.1534081  77.0392221
  94.0685671 105.4910324  76.3844920  94.6817208 106.3908697  76.3351500
  93.9056403 105.1073377  75.3773508  92.4786811 106.0108782  76.9760974
  92.2445855 106.8818505  75.9985981  94.7277124 105.1845520  78.7176662
  93.8544939 105.1904581  79.6111636  95.7504915 105.9785512  78.8481739
  96.4171270 106.1214817  78.1030113  95.9947486 106.6487574  80.1479881
  95.1267001 107.1677425  80.5544921  96.5223803 105.6164282  81.2324444
  95.8642262 104.7493725  81.1763472  97.9697723 105.1670529  81.0653992
  98.6286077 106.0335690  81.1218499  98.2262556 104.4640211  81.8579035
  98.0906434 104.6818608  80.0968537  96.3762645 106.0027585  82.6840394
  95.3219592 106.1533436  82.9161310  96.7765985 105.2084398  83.3140316
  96.9245548 106.9259119  82.8718329  96.9773928 107.7810165  79.9478565
  97.8746113 107.6424755  79.1253236  96.8938925 108.8763056  80.7531562
  96.1158922 108.9761539  81.3894307  97.9211704 109.8929540  80.7620412
  98.9116896 109.7713009  80.3236675  97.2803253 111.2001508  80.1931696
  98.0321928 111.9637057  80.3926173  96.8501743 111.2812337  78.7380195
  96.0979227 110.5182285  78.5379185  96.4297856 112.2666579  78.5372419
  97.7138236 111.1170569  78.0936156  96.2807227 111.8937411  80.9607758
  95.9888431 112.6706907  80.4783280  98.4781372 110.2620989  82.1695390
  97.8714716 110.1752287  83.2578571  99.6659276 110.7739694  82.0299621
 100.0983442 110.8905242  81.1246830 100.4153462 111.2013776  83.2207165
  99.8626126 112.0163162  83.6881135 100.4631992 110.3553473  83.9063127
 101.8152418 111.6680212  82.9197182 102.0981734 111.9419412  81.7714118
 102.6702448 111.8179981  83.9274075 102.3251455 111.4696859  84.8104048
 104.0243677 112.3918434  83.8851477 104.1845988 112.9160896  82.9430271
 104.1963631 113.4296517  85.0806165 103.6182249 112.9821272  85.8890577
 105.1982094 113.6663470  85.4389169 103.5337075 114.7440644  84.7526333
 103.3218618 115.7380629  85.7162039 102.7218544 116.7306420  85.0992599
 102.3459708 117.5751663  85.6768317 102.6920075 116.4836953  83.7858218
 102.3406000 117.1017879  83.0684836 103.2060492 115.2765995  83.5679644
 103.2929720 114.8968762  82.5499487 105.0288436 111.1939934  84.0716883
 105.4164060 110.8233775  85.1571874 105.3287639 110.4849897  82.9879519
 105.0892240 110.8627080  82.0823865 106.0197152 109.1220494  83.0452426
 106.0100634 108.6770859  84.0402369 105.1367307 108.2204976  82.0766211
 104.1624902 108.0339604  82.5284602 105.0023927 108.7268780  81.1207800
 105.7674266 106.7986561  81.7530418 105.9079223 105.8326886  82.7941401
 105.5684317 106.0345642  83.8100595 106.5169790 104.5626078  82.4752973
 106.6088716 103.8037413  83.2523289 106.9771164 104.3070564  81.2103499
 107.4213821 103.3341713  81.0000585 106.8824926 105.2936696  80.1699760
 107.3416080 105.1189008  79.1969554 106.1939539 106.4864446  80.4143042
 105.9837369 107.1723134  79.5936382 107.4561381 109.1846752  82.5767020
 108.2659346 108.2726419  82.7859526 107.7784659 110.2999265  81.8245721
 107.1582974 111.0836575  81.6787776 109.1469981 110.3536985  81.2153281
 109.5887391 109.3784676  81.4199960 109.0147928 110.5191321  79.7217811
 110.0166942 110.5371494  79.2928649 108.2065678 109.3856561  79.0828809
 107.2043284 109.3673019  79.5109918 108.1387183 109.5486281  78.0072715
 108.7006933 108.4332913  79.2750839 108.2454772 111.6410282  79.4052882
 108.1769985 111.7232879  78.4512734 109.9687591 111.5208330  81.7178139
 111.2042436 111.3983442  81.7713914 109.2968414 112.5835979  82.2157227
 108.3954772 112.6353760  81.7629965 109.6552235 113.6405562  83.1899354
 109.4270162 113.3261362  84.2083463 111.1985771 113.9022650  83.0798705
 111.7391944 113.0134990  83.4053352 111.4539288 114.1230177  82.0434518
 111.5535761 114.9828627  83.8858669 112.4982164 115.1383984  83.8147107
 108.8884988 114.9412731  83.0256838 108.2816380 115.1616321  81.9785396
 108.6344200 115.5902256  84.2059883 109.2945403 115.4754800  84.9617488
 107.4521838 116.3903253  84.4432459 106.5727348 115.7464222  84.4356703
 107.6135954 116.9877864  85.8564655 108.4850340 117.6421968  85.8774817
 106.7228858 117.5613397  86.1129285 107.7470686 116.1825372  86.5788627
 107.2204567 117.4757699  83.4411868 106.0890088 117.8271492  83.2192717
 108.2096498 118.0314145  82.7029205 109.1617236 117.7504303  82.8892067
 107.9742401 119.0690808  81.6833780 107.5305007 119.9669974  82.1134247
 109.3257743 119.4224494  81.1201985 109.1194136 120.2375817  80.4266036
 109.8783495 119.8067232  81.9775749 110.1528554 118.3610142  80.4206178
 109.3872157 117.6737583  80.0606511 110.6356578 118.8436498  79.5708744
 111.1986475 117.5830553  81.2280983 111.0056730 117.2053392  82.3921878
 112.2993963 117.4160012  80.6269078 107.0015075 118.6968456  80.5337062
 106.3061133 119.5529439  79.9641260 106.9067874 117.4285864  80.2341721
 107.5503791 116.8092274  80.7056416 105.9213834 116.8267174  79.2435184
 105.5406770 117.6253126  78.6068022 106.5572405 115.7263697  78.3371329
 106.7797535 114.8477803  78.9426639 105.7627737 115.4879064  77.6299853
 107.7774963 116.1364094  77.5917108 108.6814605 115.3637108  77.3726154
 107.8400793 117.2674799  77.1300088 104.7380490 116.1760102  79.9462565
 104.9921653 115.5505025  80.9776880 103.5401348 116.2275152  79.4414021
 103.3873474 116.9692567  78.7731396 102.3503284 115.3733073  79.8560245
 102.5892108 114.8511419  80.7825112 101.0949438 116.2228795  80.0823377
 101.2311433 116.8614552  80.9551321 101.1010564 116.8349693  79.1804460
  99.7203478 115.4694135  80.1943418  99.4778710 115.0418059  79.2214813
  99.7830350 114.3536624  81.2404124 100.0250270 114.7805854  82.2136932
  98.8173383 113.8510797  81.2946460 100.5514432 113.6336825  80.9588488
  98.7346396 116.4961973  80.7544028  98.6681758 117.3453825  80.0742804
  97.7514837 116.0373268  80.8590143  99.0808250 116.8386307  81.7295921
 102.2230365 114.2939941  78.7851549 101.8542823 114.5566157  77.6207541
 102.6269717 113.0251152  79.1227012 102.9415472 112.9187835  80.0765540
 102.5987540 111.8032063  78.2385313 102.9863244 112.0857397  77.2597242
 103.4387130 110.6108835  78.7806512 102.8558537 110.3663882  79.6686807
 103.4377874 109.7593190  78.1002564 104.8628514 110.8922085  79.2001606
 105.1594742 111.1742284  80.3387974 105.7214959 110.9814591  78.2445038
 106.6911427 111.1681211  78.4567353 105.4211773 110.8643682  77.2873208
 101.1440691 111.1957417  78.0848676 100.3329347 111.2233392  79.0297852
 100.7750322 110.7409727  76.8996912 101.4126701 110.9428701  76.1428856
  99.5770697 109.9199660  76.6084871  98.9141402 109.9301058  77.4736580
  98.7865782 110.4739718  75.3613889  98.2702811 111.4051992  75.5945240
  99.6443968 110.6847707  74.7227881  97.8106941 109.5108353  74.6190680
  98.3612824 108.6318235  74.2839684  96.6999435 109.0850277  75.5430091
  96.1485762 109.9635215  75.8781829  96.0244140 108.4126430  75.0141806
  97.1218934 108.5703412  76.4062336  97.0103025 110.2916796  73.5236843
  97.7052472 110.7210712  72.8020375  96.3322247 109.6085174  73.0122148
  96.4352942 111.0899616  73.9929500 100.2148747 108.5362835  76.2422188
 100.9243332 108.4019153  75.2329969  99.7677939 107.4544195  76.8775070
  99.1874840 107.7241365  77.6589112 100.0404083 105.9995335  76.6658864
 100.7725192 105.8886913  75.8659947 100.5925941 105.3201046  77.9378114
  99.7526874 105.3378145  78.6323201 100.8469038 104.2866842  77.7022932
 101.7814761 105.9982948  78.5700801 102.3400984 106.5091468  77.7858148
 101.3705226 106.9876400  79.6144432 100.8122098 106.4774142  80.3993351
 102.2577025 107.4528550  80.0440797 100.7418280 107.7544640  79.1618678
 102.7335629 104.9579305  79.1732160 103.0840371 104.2873706  78.3886035
 103.5863492 105.4641545  79.6255367 102.2078599 104.3818850  79.9347322
  98.7230693 105.3055129  76.1653075  97.6199614 105.4832132  76.7146223
  98.8652912 104.4550444  75.1251363  99.8137726 104.3559694  74.7924705
  97.7932861 103.6839080  74.4398132  96.8839649 103.7373632  75.0384590
  97.5229581 104.3102576  73.0153505  98.4924540 104.6084659  72.6162892
  96.8197369 103.3706426  72.0105021  95.8499051 103.0723584  72.4086898
  96.6785207 103.8910727  71.0632370  97.4339631 102.4846652  71.8496626
  96.5802005 105.5486392  73.2982373  95.5442485 105.3530573  73.0213761
  96.6227880 105.8734025  74.3378596  97.1496383 106.6460126  72.3979788
  97.1069543 106.3221396  71.3580826  96.5628921 107.5566404  72.5187481
  98.1854951 106.8424831  72.6745649  98.1551776 102.1777774  74.2456736
  99.1845993 101.7795506  73.7157336  97.1902551 101.3323036  74.6572978
  96.4386091 101.7035447  75.2205985  97.2068177  99.8937117  74.3824399
  98.1981342  99.6036186  74.0342494  96.9335542  99.1974361  75.7009558
  95.9406365  99.4709228  76.0579147  96.9836320  98.1178106  75.5595298
  97.6796250  99.5022101  76.4348430  96.2019558  99.4518938  73.3051142
  95.0438869  99.7765995  73.3521654  96.7011251  98.6230433  72.3171462
  97.7008385  98.4871917  72.2700617  95.8671284  97.9825543  71.3043948
  94.8120558  98.1236122  71.5389658  96.1616388  98.6296378  69.8919656
  97.1020844  98.2216199  69.5215839  95.3536095  98.3501556  69.2158898
  96.2632430 100.1876260  69.9659077  95.3516068 100.6107203  70.3878217
  97.1171698 100.4867571  70.5737166  96.4453373 100.6893063  68.5709860
  97.2257261 100.0942742  68.0966137  95.5062443 100.5490331  68.0357037
  96.8472946 102.2039401  68.5321566  95.9571650 102.7912703  68.7575741
  97.5970987 102.3701108  69.3056425  97.3823474 102.6109666  67.2439447
  96.6875619 102.4574721  66.5271378  97.6239467 103.5911759  67.2742689
  98.2074140 102.0671494  67.0350738  96.0866638  96.4909122  71.2579942
  97.0960856  96.0651203  70.6031736  95.3218628  95.5837442  71.8611548
  94.4483037  95.9587651  72.2022605  95.6582779  94.1866996  72.1895026
  95.0686459  93.8533794  73.0435114  95.3466517  93.2554564  70.9733672
  94.3550032  93.4682097  70.5740321  96.0878952  93.3660102  70.1818901
  95.3741316  91.7840890  71.4782628  94.8491480  91.5206102  72.5103719
  95.9662954  90.8470922  70.8062859  95.9677848  89.9006905  71.1590202
  96.4234223  91.0678115  69.9331200  97.0984480  93.9803395  72.7100078
  97.3251150  93.9553605  73.8779008  98.1151474  93.8164622  71.8077731
  97.8558655  93.9196008  70.8370853  99.4919332  93.4915959  72.1201059
  99.8045517  93.3893840  73.1592987  99.9132656  92.2662612  71.3712208
 101.0032251  92.2674475  71.3618836  99.4102373  90.9433757  71.9505493
  98.3202786  90.9412595  71.9597793  99.7694735  90.1173602  71.3367522
  99.7819124  90.8272732  72.9686251  99.6864337  92.4508654  69.9355298
  99.9594888  91.6603712  69.4641911 100.4986564  94.6056510  71.7892271
 101.6817489  94.3835026  71.8826424 100.0088331  95.8499727  71.5136013
  99.0047591  95.9470348  71.5637393 100.7752835  96.9869914  71.1767524
 101.8167196  96.6895757  71.0540585 100.2944630  97.6418258  69.8718411
  99.2976449  98.0479779  70.0435774 100.9797317  98.4534139  69.6272357
 100.2460235  96.6380265  68.6986291  99.5292301  95.8678811  68.9835573
  99.8640321  97.1891214  67.8392810 101.5676889  95.9886265  68.3355023
 101.9128922  95.4189008  69.1982574 101.3932640  95.3112041  67.4995751
 102.6089903  96.9415657  67.9565505 102.2417239  97.8709446  67.8100253
 103.9239738  96.7556479  67.8607169 104.3258201  95.5628902  67.9804992
 103.6581366  94.8217836  68.1388022 105.3125755  95.3569285  67.9173073
 104.7404451  97.7203569  67.5775457 104.3821244  98.6516439  67.4213056
 105.7316117  97.5368161  67.5142980 100.6953585  98.0630858  72.2736954
  99.5772445  98.2362979  72.8133836 101.8108765  98.6799509  72.5200651
 102.6928451  98.3583713  72.1474832 101.8285907  99.7880133  73.5495198
 100.8174156 100.1243302  73.7786815 102.4584505  99.2407405  74.8207452
 101.6914205  98.6429128  75.3130523 103.2434856  98.5849596  74.4442197
 103.0485338 100.2141257  75.8099298 103.5290478 101.0075357  75.2374722
 101.9992787 100.8362727  76.7799724 101.5186401 100.0434565  77.3531459
 102.4976606 101.5256579  77.4614885 101.2466608 101.3754405  76.2046769
 104.0041917  99.4730967  76.6480372 104.7872837  99.0494150  76.0192605
 104.4503937 100.1500537  77.3765523 103.4838783  98.6700688  77.1700708
 102.4975287 101.0653062  72.8551902 103.6140103 100.9548087  72.3473957
 101.8125872 102.1688983  72.7326431 100.9551722 102.2091704  73.2649183
 102.2560275 103.3941492  72.0168568 103.2252275 103.2109690  71.5529651
 101.2581771 103.7947438  70.9246661 100.2780142 103.9044209  71.3887252
 101.5751278 104.7539119  70.5152289 101.1750120 102.7454965  69.7807564
 102.1428727 102.5529362  69.3178664 100.8729411 101.8763382  70.3650647
 100.1273894 103.0164018  68.6853413  99.4837089 104.0966805  68.6712932
 100.1129713 102.1804971  67.7607070 102.2029536 104.6157922  72.9762438
 101.4242679 104.5830134  73.9487982 103.0943598 105.5698570  72.7156439
 103.6039685 105.5286446  71.8446101 103.3928933 106.6626997  73.6436350
 102.5633765 106.8565656  74.3236476 104.6866968 106.4964825  74.4503557
 105.4991458 106.2644367  73.7617472 105.0210996 107.7635538  75.2189706
 104.2092634 107.9960016  75.9081662 105.9430999 107.6154418  75.7811797
 105.1511991 108.5895958  74.5198083 104.6275074 105.2183685  75.3636281
 103.9172743 105.4487465  76.1577286 104.2266564 104.4203910  74.7386082
 105.9594269 104.7634606  75.9836461 106.3606857 105.5608008  76.6092177
 105.7928330 103.8742731  76.5916685 106.6700688 104.5324473  75.1900966
 103.4904368 107.9843059  72.8031046 104.2457979 108.0691295  71.7952754
 102.7987190 109.0015601  73.2345700 102.3704585 108.9287778  74.1463786
 102.6112157 110.2675562  72.4627116 103.4350812 110.3758630  71.7572936
 101.2949498 110.2836998  71.6832732 100.6771241 110.1054982  72.5634066
 101.1072867 111.2888577  71.3057282 100.9628851 109.3047517  70.6485971
 101.0177582 109.6804052  69.2851242 101.3236230 110.6875516  69.0019240
 100.6735010 108.7419758  68.2901417 100.7359127 109.0262502  67.2397157
 100.2321216 107.4500264  68.6463392  99.9496866 106.4992716  67.7101112
 100.0836398 106.8070426  66.8107041 100.0892615 107.1013643  70.0137816
  99.7699712 106.0953081  70.2858207 100.3567336 108.0440109  71.0118107
 100.1082950 107.8239075  72.0500461 102.5821142 111.5395115  73.3622070
 102.4192613 111.3561356  74.5690700 102.9270155 112.7137749  72.8504976
 103.1804014 112.7339558  71.8730071 102.7925138 114.0274046  73.5822907
 102.1726691 114.0534253  74.4785131 104.1813984 114.5545982  73.9342292
 104.1380885 115.6169299  74.1743850 104.6462782 113.8102281  75.1021286
 104.6902934 112.7477871  74.8625818 105.6392205 114.1598473  75.3848520
 103.9566694 113.9668672  75.9315896 105.3089852 114.6832973  72.8759525
 104.9883954 115.3590087  72.0830224 106.2080008 115.0790382  73.3484562
 105.5237329 113.7023739  72.4519552 102.2477541 115.0561169  72.5287141
 102.4832574 114.9384980  71.2771518 101.5578216 116.1070464  73.0317601
 101.3229590 116.0429047  74.0119768 100.9424984 117.2167250  72.2215232
 100.6689503 116.8147659  71.2459724  99.6329151 117.6986409  72.9526339
  99.8600739 118.3048516  73.8295641  98.8673472 118.5877901  71.8773341
  98.6394240 117.9820988  71.0002423  97.9400100 118.9635323  72.3097274
  99.4975427 119.4275657  71.5845333  98.6470463 116.5836648  73.3751546
  99.1444356 115.8995184  74.0626497  97.7832998 117.0294442  73.8684318
  98.3178453 116.0353796  72.4924820 102.0163664 118.2811278  71.8699989
 102.7001617 118.8640130  72.7520164 102.1533631 118.6025026  70.5803063
 101.5712388 118.1347820  69.9002563 103.2166565 119.5364229  70.0837975
 103.5275010 120.0511425  70.9929392 104.4682405 118.8105362  69.4637693
 105.0817791 119.6084450  69.0454249 105.3110178 117.9542998  70.3758377
 104.6982325 117.1558372  70.7942290 106.1347825 117.5203957  69.8090591
 105.7099094 118.5670551  71.1842418 104.0521213 117.8493724  68.5541155
 104.8190983 117.4101571  68.1793667 102.7120506 120.5844926  69.0832582
 101.5662653 120.5048744  68.6403417 103.4981859 121.5452015  68.6042919
 104.4471903 121.6601288  68.9303004 102.9277585 122.5909262  67.6959211
 102.1615696 123.0963492  68.2837998 104.0145388 123.6132305  67.3220811
 104.7844173 123.1240372  66.7253591 103.5687839 124.4236433  66.7453368
 104.4616434 124.0174828  68.2302533 102.1817950 121.9802666  66.4359424
 101.0842733 122.4080568  66.0058462 102.7355496 120.9857108  65.7808680
 103.6748216 120.7442560  66.0629443 102.1938473 120.3746839  64.5398428
 101.5756712 121.0948979  64.0038862 103.3655292 119.9423612  63.6167407
 104.1266439 119.4257012  64.2014337 102.9959131 119.2786866  62.8350629
 103.9735518 121.1900631  62.9793292 104.6013278 120.8639684  62.1500764
 103.1187144 121.7439304  62.5912786 104.7780794 122.0839464  63.9000371
 105.4221162 121.6269170  64.8945495 104.8902163 123.3144971  63.7227487
 101.1519272 119.3545604  64.8517732 100.6937332 118.6836187  63.9314012
 100.7763639 119.1150455  66.1255293 101.2140885 119.6841340  66.8359058
  99.8104092 118.1212187  66.5415497  99.0223995 118.6137543  67.1112414
  99.3802960 117.6561141  65.6545437 100.4482982 117.0409814  67.4084258
 101.4163963 117.2517637  68.1107035  99.8856596 115.7925148  67.3955875
  99.2992818 115.5205059  66.6195259 100.1535065 114.8201510  68.4217939
 100.2524956 115.2596703  69.4143276  98.9005924 113.9261890  68.4024497
  98.0659831 114.5740361  68.6704436  98.7633280 113.5597637  67.3851046
  98.9546791 112.7689536  69.3449777  99.9811044 112.4118855  69.4289673
  98.4495701 113.2256334  70.7417656  97.4229788 113.5824278  70.6586581
  98.4865640 112.3850905  71.4347446  99.0843569 114.0301751  71.1130590
  98.1358212 111.5645377  68.9232859  98.4932354 111.2007765  67.9599415
  98.2374558 110.7762364  69.6691764  97.0872699 111.8495314  68.8371595
 101.3848751 114.0714146  67.9219457 101.3191432 113.2343164  66.9966242
 102.4724774 114.2704318  68.6021482 102.4677128 114.9589630  69.3410673
 103.7554492 113.6179817  68.2596247 103.8532110 113.4467209  67.1876119
 104.8679821 114.6029431  68.7080123 104.6136812 115.5887971  68.3187538
 104.8653069 114.6313434  69.7976390 106.2773867 114.1970459  68.2054249
 106.5435961 113.2604235  68.6952942 106.2088657 114.0370251  67.1294136
 107.3214732 115.2192084  68.4891792 107.1518748 115.6087000  69.4929877
 108.2950712 114.7307297  68.4492427 107.3189896 116.3799485  67.5100749
 106.4946569 116.3367318  66.9280894 108.2091350 117.2788551  67.2517063
 109.2921758 117.3257207  67.9546929 109.4355787 116.6601016  68.7006733
 109.9902730 118.0277542  67.7549204 107.9364328 118.2273866  66.3645770
 107.0391195 118.2381859  65.9010985 108.6274526 118.9341295  66.1569600
 103.8027847 112.1978670  68.9012277 103.5845158 112.0668495  70.1068019
 104.2259209 111.1508579  68.1794115 104.4650196 111.1290774  66.7476076
 105.3422937 111.7559556  66.5878764 103.5930751 111.6038080  66.2976713
 104.6613290 109.7505108  66.2717695 105.6969862 109.5638807  65.9877230
 104.0069253 109.5157467  65.4322799 104.2620010 108.9323008  67.5326337
 105.0001254 108.1303577  67.5200318 103.2613467 108.5035616  67.5871608
 104.5078587 109.8533702  68.7487275 103.8899470 109.6700086  69.6277394
 106.0014467 109.8701559  69.1624317 106.9229285 110.1104435  68.3672875
 106.1967644 109.4496367  70.4245111 105.3727674 109.3819838  71.0046416
 107.5088151 109.2462999  71.0522230 108.4133328 109.6527358  70.5997225
 107.4381892 109.7178575  72.5294418 106.5628178 109.2412778  72.9706854
 108.6729405 109.3880355  73.3659174 109.5487034 109.8646839  72.9255237
 108.5325500 109.7555098  74.3824575 108.8199554 108.3082111  73.3875374
 106.9385990 111.2130824  72.5836845 105.9482309 111.2823513  72.1337123
 106.8894829 111.5428754  73.6214339 107.6323720 111.8486998  72.0334388
 108.1364136 107.8214731  70.9228871 109.2373648 107.5688524  70.4711801
 107.3993811 106.7785719  71.3486713 106.5954158 107.0001829  71.9184324
 107.8367335 105.3554399  71.2662137 108.3655375 105.1637971  70.3325443
 108.7945591 105.0785931  72.4400774 109.6140892 105.7814881  72.2903840
 108.2265724 105.3665959  73.3246935 109.3527919 103.6882416  72.6312316
 109.7570808 103.6099729  73.6404517 108.5446639 102.9673751  72.5072042
 110.4474054 103.3972756  71.6251371 110.1309399 103.7067442  70.6290559
 111.3575840 103.9309327  71.8987870 110.7131693 101.9227890  71.6287325
 111.1580129 101.6385474  72.5823684 109.7741233 101.3864546  71.4922144
 111.6526082 101.5743226  70.5167488 112.5229692 102.0708678  70.6432968
 111.8283047 100.5797462  70.5237009 111.2404129 101.8372362  69.6329668
 106.6497075 104.4218125  71.0349841 105.6655967 104.5724186  71.7620279
 106.7792527 103.3781202  70.2001270 107.5698917 103.4393527  69.5746353
 105.8284571 102.2031131  70.0463317 105.0882574 102.1644444  70.8455240
 105.1154132 102.4309648  68.7412301 104.5177212 103.3378902  68.8326071
 105.8651744 102.5675455  67.9619330 104.1959057 101.2428158  68.3694386
 104.7312826 100.3103039  68.5480273 103.4173350 101.3641434  69.1225697
 103.5632675 101.2066528  66.9889568 103.3692745 102.2901463  66.3987318
 103.3750421 100.1266228  66.4660138 106.6253000 100.8706472  70.1428050
 107.6149449 100.6124051  69.4659395 106.0909662  99.9015764  70.9696594
 105.2761362 100.2518987  71.4528009 106.5904334  98.5627440  71.3237626
 107.3304408  98.2966798  70.5689791 107.2511164  98.4992179  72.6982791
 107.8313814  97.5768242  72.7223940 108.1683486  99.6929547  73.0410947
 107.5886470 100.6157204  73.0176312 108.5892848  99.5541459  74.0369086
 108.9755768  99.7529434  72.3111046 106.2180729  98.5030372  73.7761365
 105.5651008  97.6383864  73.6573580 106.7072580  98.4573269  74.7491258
 105.6265720  99.4161910  73.7099730 105.4661428  97.5436176  71.1607108
 104.2849662  97.8874129  71.1247703 105.7721276  96.2455187  71.2655665
 106.7455908  95.9837314  71.2028286 104.7483670  95.1532567  71.4716703
 103.7835479  95.6085486  71.6951263 104.6687131  94.5643153  70.5579402
 105.1370149  94.2430567  72.6099873 106.3141000  94.1796918  72.9358347
 104.2240409  93.4049784  73.0979899 103.3803784  93.4231961  72.5430115
 104.2743238  92.5007130  74.2693360 105.2957093  92.3748104  74.6285287
 103.4312980  93.1495180  75.3932904 102.4418558  93.3412281  74.9781390
 103.3522736  92.4156148  76.1953137 103.9960493  94.4161772  75.9341150
 104.9414838  94.1834171  76.4240917 104.1775076  95.0905705  75.0972347
 102.8696491  95.2416526  77.1470388 102.8190267  94.2377962  78.6453157
 103.8226330  94.1562208  79.0627111 102.1594504  94.7068316  79.3754291
 102.4443689  93.2429940  78.4042732 103.6944026  91.1071640  73.9363908
 102.8581807  90.8804496  73.0608969 104.1031190  90.1853967  74.7575369
 104.8526948  90.3377957  75.4170897 103.5016251  88.8510141  74.6855571
 103.1896752  88.6168498  73.6677391 104.5577126  87.8328703  75.1196395
 104.6664969  88.0498926  76.1822619 104.1181228  86.8433144  74.9945795
 105.9087035  87.8677446  74.4604336 106.0035585  88.0782878  73.0786844
 105.1189108  88.2941176  72.4795890 107.2640276  88.0074461  72.4677686
 107.3254208  88.0317851  71.3797703 108.4721529  87.8599561  73.2601184
 109.7046079  87.9653378  72.6392785 109.6365820  88.1343884  71.6967320
 108.3220016  87.6593597  74.6310792 109.2051056  87.5277280  75.2562999
 107.0565140  87.6266753  75.2013728 106.9425787  87.4064081  76.2627875
 102.2584614  88.6453215  75.4944105 102.1718613  87.8145145  76.4552337
 101.2816381  89.5690840  75.2557415 101.4133140  90.2285719  74.5021922
 100.0978313  89.6469092  76.0104526  99.7061253  88.6315479  76.0713379
 100.3903266  89.9832017  77.0051653  99.0501315  90.5318328  75.4972184
  99.3183280  91.6939591  75.1113623  97.8539799  90.0388465  75.7757575
  97.7684352  89.0483874  75.9540050  96.6381008  90.8313839  75.6905496
  96.6153127  91.5102874  74.8381002  95.5260963  89.7174891  75.4818908
  95.6812135  89.2439165  74.5124750  95.6246020  88.9711708  76.2701837
  94.1280922  90.3280356  75.5316044  93.9496831  90.5613944  76.5812780
  94.1944932  91.2539399  74.9602952  92.9484606  89.4611374  74.9830776
  92.9506576  88.5381065  75.5628260  92.0352777  90.0184898  75.1917754
  93.0119211  89.1242631  73.4824905  94.0346736  88.8192812  73.2609867
  92.3376031  88.2856320  73.3090186  92.6473757  90.2075169  72.6375954
  93.2723602  90.9845658  72.7978738  92.7111809  89.9177105  71.6721726
  91.6995545  90.4899936  72.8423902  96.3882307  91.8017808  76.8204876
  96.0371354  91.4515510  77.9539779  96.8500137  93.0442896  76.5385351
  97.1595532  93.2869070  75.6082548  96.9724075  94.0431043  77.5881917
  97.6499208  93.6674666  78.3549845  97.5065928  95.3734103  77.0413929
  96.8746936  95.7030761  76.2166964  97.4972970  96.4178706  78.1303475
  98.1293928  96.0890994  78.9552505  97.8778631  97.3594987  77.7346119
  96.4779112  96.5605803  78.4889361  98.9575877  95.1932584  76.5146746
  99.5941087  95.1462217  77.3982634  98.9742400  94.2305077  76.0038582
  99.4763329  96.2815742  75.5693693  99.4604127  97.2446081  76.0796752
 100.4976388  96.0466282  75.2696466  98.8405421  96.3288956  74.6852705
  95.6128201  94.2582740  78.2833155  94.7005689  94.7771614  77.6427504
  95.5798574  93.9717471  79.5803251  96.4614011  93.6387699  79.9437892
  94.3952694  93.9017969  80.4506511  93.5946249  94.0757877  79.7317667
  94.2991824  92.4734029  80.9459276  95.0890079  92.2866801  81.6735336
  93.3283666  92.3157458  81.4157798  94.4109377  91.7885452  80.1053445
  94.1936218  94.9653188  81.6058737  93.1023486  95.0678937  82.2023066
  95.2405160  95.7965421  81.7671357  95.9559732  95.7040817  81.0602613
  95.4257869  96.7904486  82.8071812  94.4479854  97.2316983  83.0003188
  96.0024818  96.2304024  84.1632908  96.9267302  95.6997633  83.9346291
  96.2853351  97.3265736  85.1969657  95.3614008  97.8573870  85.4264941
  96.6801745  96.8752206  86.1071760  97.0158328  98.0276307  84.7932407
  95.0749069  95.2784282  84.8683291  94.8733294  94.4226328  84.2240600
  95.5395465  94.9352179  85.7926756  94.1388946  95.7867853  85.0997483
  96.4025317  97.7434969  82.2281832  97.4538499  97.3989767  81.7103320
  96.1336617  99.0619766  82.3796596  95.1783285  99.3825176  82.4481527
  97.1963925 100.0634451  82.2865463  98.1554232  99.6520807  82.6014091
  97.3031833 100.4845438  80.8294716  97.3140341  99.6102803  80.1785916
  96.4686893 101.1302038  80.5558970  98.6111438 101.2511227  80.6718740
  98.4291391 102.2641819  81.0306023  99.3428290 100.7639747  81.3164093
  99.2664380 101.3259341  78.9696643  97.9748265 102.2330070  78.1284583
  97.8600508 103.2141897  78.5891165  98.2400641 102.3540781  77.0781766
  97.0360632 101.6843581  78.2046754  96.9424341 101.2002916  83.3075449
  95.9217192 101.8182946  83.1986166  97.8695454 101.4193057  84.2475121
  98.7298250 100.8990197  84.1509671  97.7261001 102.2594446  85.3489435
  96.9912379 103.0278850  85.1089935  97.2540926 101.5001398  86.6274955
  96.3345335 101.0148127  86.3004358  98.0307501 100.7484513  86.7684482
  96.9985239 102.2432526  87.9766834  96.7765435 101.5545700  88.7918776
  97.9471667 102.7431893  88.1722321  95.9059207 103.2664821  87.8753438
  94.7868232 102.9706303  88.3863601  96.1634626 104.3993856  87.3943378
  99.0624902 103.0238432  85.7060895 100.1378973 102.5283997  85.4807531
  99.0435065 104.2369331  86.2317581  98.1599941 104.7253220  86.2630863
 100.2876965 104.9595209  86.7388274 101.1973616 104.4101988  86.4962294
 100.3323125 106.3281805  86.0245177  99.3029263 106.6630915  86.1521813
 101.0040694 107.0166594  86.5371962 100.6694305 106.2960388  84.5645206
 100.1129705 105.5017922  84.0669008 100.2820424 107.6450106  83.9597134
 100.8384796 108.4397654  84.4565447 100.5176540 107.6477386  82.8954858
  99.2133036 107.8110217  84.0951315 102.1040914 105.9066377  84.1846116
 102.3191606 104.9042217  84.5547559 102.2105715 105.9234885  83.0999553
 102.8031759 106.6151782  84.6288527 100.3086439 105.1376507  88.3269672
  99.2912670 105.3857389  88.9123896 101.5227308 105.1016588  88.8923508
 102.2670350 104.7462943  88.3094042 101.8304624 105.4184192  90.3183596
 101.1418284 106.1791175  90.6860831 101.6823911 104.1568497  91.1910698
 101.8830631 104.5746339  92.1776226 100.7132344 103.6580721  91.1985671
 102.7423045 103.0593223  90.9520990 102.6528749 102.2617121  89.7821796
 101.8670151 102.5050439  89.0671174 103.5103396 101.2152182  89.5322961
 103.4586120 100.6793740  88.5845114 104.4561791 100.8369057  90.5041399
 105.1369012 100.0012938  90.3414436 104.5098137 101.5545555  91.6903709
 105.2280353 101.2583763  92.4549203 103.6501861 102.6562178  91.9157233
 103.6974664 103.2003753  92.8589927 103.1577182 106.0816713  90.6703150
 104.0582249 105.8391483  89.8628805 103.2950926 106.8249503  91.7800228
 102.4502072 107.0861525  92.2679177 104.5998216 107.3941584  92.2602836
 105.4454771 106.9340321  91.7491576 104.5901389 108.9010013  91.9378757
 104.3250310 109.0199776  90.8873227 103.8304256 109.3746185  92.5596653
 106.0052893 109.5887881  92.2105619 106.3060352 109.4532570  93.2494479
 106.7693490 109.1720280  91.5543411 105.8344290 111.1437613  91.9058815
 105.0547551 111.5543698  92.5474485 106.7754158 111.6566923  92.1047409
 105.4731582 111.3657560  90.5530465 105.0425632 110.5836887  90.0807564
 105.6244713 112.5073429  89.8838224 106.3665810 113.4592185  90.3268245
 106.8528455 113.3492927  91.2052112 106.4597588 114.3123747  89.7943378
 105.0738610 112.7336500  88.7398821 104.4956279 112.0246094  88.3120878
 105.2234622 113.6188620  88.2771535 104.8752878 107.0729466  93.7489845
 104.4653001 107.8634403  94.6140486 105.6400916 106.0080450  94.0865549
 106.1759051 105.0346454  93.1846901 107.0676325 105.4440414  92.7100141
 105.4301762 104.8091124  92.4223762 106.4800207 103.8466225  94.0600267
 107.2345325 103.2115747  93.5957798 105.5770889 103.2637114  94.2417694
 106.9955068 104.4695446  95.3535135 108.0625353 104.6858006  95.3007646
 106.7904437 103.8687608  96.2395765 106.2164361 105.7533228  95.4129461
 105.3979608 105.6588841  96.1265832 107.1534057 106.8751688  95.8590678
 107.9180041 107.4285531  95.0065820 107.1640227 107.1429989  97.2028224
 106.4834971 106.7745750  97.8518587 108.1201028 108.1601989  97.6915236
 107.9894924 109.0807693  97.1226738 107.9018638 108.4661493  99.1720033
 108.1433030 107.5777561  99.7555818 108.5615470 109.2829482  99.4648474
 106.4120272 108.8769348  99.4380599 106.1251545 109.6018703  98.6763032
 105.7968571 107.9827132  99.3378826 106.1985539 109.5000853 100.8572335
 106.7178947 108.8585787 101.5691699 106.6664277 110.4845133 100.8474906
 104.7359832 109.6366055 101.2691159 104.6063034 110.2621141 102.1523049
 104.1071425 110.0131300 100.4623397 104.3618917 108.2991072 101.5766655
 104.9441847 107.9501698 102.3245139 103.3943136 108.2781246 101.8655468
 104.4815760 107.7194162 100.7582932 109.5884375 107.8395907  97.3945038
 109.9622579 106.7167507  97.3915788 110.3387739 108.8236275  96.8458865
 109.9333821 109.7469571  96.7891481 111.7077870 108.6271033  96.3283845
 112.3461442 109.4150986  96.7279626 112.0716135 107.6577432  96.6690759
 111.7624862 108.6706682  94.7732606 112.7559029 109.0130418  94.1307526
 110.6464548 108.4924002  94.0843829 109.8626262 108.0780661  94.5681592
 110.4939316 108.8131795  92.6347439 111.4393745 108.6927303  92.1058498
 109.4792038 107.8453653  92.0434537 108.5619369 108.0892993  92.5793800
 109.3938294 108.1767729  91.0085719 109.7022613 106.3312160  92.0772654
 109.4712328 106.0341865  93.1002513 108.9657324 105.9001386  91.3991823
 111.1162311 105.8192267  91.6974282 111.6618818 105.0188335  92.5237043
 111.6816472 106.1734802  90.6724711 110.0601597 110.2646834  92.3293056
 109.0981900 110.8283820  92.8669467 110.7287448 110.9100465  91.3779242
 111.6507966 110.5965791  91.1102343 110.2380927 112.1835510  90.8283100
 109.4895481 112.6350030  91.4794407 111.4464754 113.1369401  90.7314674
 111.1324226 114.1167139  90.3715877 111.9272995 113.2445568  91.7037466
 112.3423787 112.5803306  89.8324885 113.1090799 113.1520385  89.7493070
 109.4415057 112.0563847  89.5561434 109.0470309 113.0870586  89.0321463
 109.1241775 110.8647590  89.0389353 109.5756719 110.0467780  89.4225486
 108.2891417 110.7023772  87.8147641 107.4863042 111.4372908  87.8735276
 109.0255242 110.8843134  86.4751354 108.3268727 110.7513572  85.6491160
 109.4600518 111.8827315  86.4256673 110.1519503 109.8256940  86.3737299
 110.8654376 110.0515486  87.1662111 109.6895303 108.8577295  86.5668994
 110.8761454 109.7834682  85.0369021 110.1471738 109.4795619  84.2856762
 111.2163618 110.7967386  84.8232782 112.0944129 108.8080917  85.0037665
 112.4357873 108.7460599  83.9704630 112.8802297 109.2451451  85.6198634
 111.7792949 107.4631946  85.4956239 111.0514600 107.0578656  84.9246034
 112.6060206 106.8849737  85.4478196 111.4633566 107.5204065  86.4532296
 107.5508391 109.3705534  87.9510122 108.0616690 108.4485323  88.5735184
 106.3439959 109.2665561  87.4531085 105.9177027 110.1448962  87.1944736
 105.4812388 108.0380983  87.4829495 105.3660363 107.7020437  88.5134324
 104.0903219 108.3184006  86.9004309 104.1188276 108.3993465  85.8138148
 103.6447736 107.3641845  87.1816039 103.2486642 109.4651355  87.4765917
 102.1041759 109.5619916  87.0406862 103.6220222 110.1652041  88.4980748
 106.1258257 106.7637326  86.9675711 106.8447026 106.7692323  85.9725722
 105.8115668 105.6698391  87.6243452 105.4945923 105.8335526  88.5692390
 105.9148832 104.2974151  87.1608591 106.5857597 104.2455579  86.3033425
 106.4703496 103.3990795  88.2726276 105.6213576 103.3523956  88.9546338
 106.6759825 102.4030347  87.8805691 107.7167651 103.9222372  89.0340661
 107.5557417 104.9456021  89.3730303 107.9309340 103.0031636  90.2564328
 108.0924951 101.9796358  89.9182202 108.8018005 103.3414804  90.8178899
 107.0498890 103.0387331  90.8972096 108.9544423 104.0683714  88.2435620
 108.7848721 104.7724488  87.4289330 109.7536743 104.4406748  88.8844362
 109.2401840 103.1000736  87.8326482 104.6428011 103.6530571  86.6667177
 103.5663870 103.9776027  87.1301611 104.8172950 102.7078415  85.8056316
 105.7796578 102.4210752  85.6973619 103.8372139 102.1127309  84.9630894
 102.8670017 102.5837058  85.1211086 104.2507844 102.3059516  83.4564785
 104.2726653 103.3874333  83.3222481 105.2575118 101.9052185  83.3381024
 103.3261626 101.6803789  82.4080958 103.3567251 100.5953007  82.5069498
 101.9061103 102.1649992  82.6071930 101.8746672 103.2500221  82.5080194
 101.2586958 101.7130700  81.8557176 101.5608938 101.8813910  83.6014225
 103.8044195 102.0143208  80.9738604 104.8119642 101.6254294  80.8264949
 103.1297288 101.5576315  80.2497550 103.8087337 103.0953282  80.8342060
 103.4925270 100.6808622  85.1553627 104.4515858  99.8938184  85.0672206
 102.3157433 100.3369451  85.6408637 101.7117762 101.0891036  85.9401641
 101.8710340  98.9791662  85.8463749 102.7378779  98.3252245  85.7512905
 101.2147817  98.7287070  87.2121905 101.9947989  98.8964669  87.9548405
 100.4016905  99.4364216  87.3738162 100.6539913  97.3617778  87.4795114
 101.5918075  96.3169860  87.6644276 102.6506294  96.5198017  87.5036118
 101.1666058  95.0120158  88.0561179 101.8713986  94.2222732  88.3162610
  99.8038127  94.7660932  88.0991401  99.4424118  93.7820781  88.3978100
  98.8726478  95.7955725  87.7541356  97.8117362  95.5520431  87.6970369
  99.3107602  97.1135778  87.4889458  98.5825981  97.9019995  87.2984959
 100.9311078  98.5152736  84.7897873  99.8866388  99.1614212  84.6071187
 101.2139575  97.3477839  84.2882916 102.0630164  96.9554502  84.6694381
 100.5228171  96.6117795  83.2588104  99.4936543  96.9678205  83.2123582
 101.1755836  96.7657523  81.8901230 102.2087124  96.4225487  81.9444976
 100.4156397  95.9349498  80.8500411  99.3824754  96.2779023  80.7947624
 100.8891142  96.0510470  79.8751340 100.4341544  94.8842669  81.1395613
 101.1657579  98.2569018  81.4732445 100.1302201  98.5929285  81.5266148
 101.7603459  98.7951173  82.2114102 101.7235556  98.5343943  80.0634982
 101.1291496  97.9968453  79.3247003 101.6772828  99.6038271  79.8578977
 102.7592754  98.1990317  80.0094951 100.4733235  95.1143741  83.6995023
 101.4767876  94.5118312  84.0074115  99.3310507  94.4703994  83.6077232
  98.5667245  95.1109474  83.4477134  99.0370043  93.0531423  83.6748724
  99.9580626  92.4799591  83.7807583  98.1478655  92.7755637  84.8845009
  98.7741540  92.9816991  85.7524699  97.3499766  93.5160792  84.8287321
  97.5522138  91.4104564  85.0131374  98.1114570  90.6969115  84.4079915
  97.6254046  91.0005213  86.4776965  97.0659642  91.7133867  87.0834589
  97.1962971  90.0059116  86.5990187  98.6664235  90.9883859  86.8005475
  96.0817020  91.2367699  84.5894513  95.9722982  91.5018524  83.5378518
  95.7811634  90.1992136  84.7352411  95.4494531  91.8861480  85.1949829
  98.2761168  92.7089131  82.3651527  97.5330831  93.5240138  81.8021059
  98.3877517  91.4386255  81.9689569  98.8872251  90.8075145  82.5791410
  97.8370231  90.9029494  80.7050016  97.2946528  91.6887432  80.1792053
  99.0073544  90.3914976  79.7786180  98.6002348  90.1128155  78.8066663
 100.0851005  91.5310095  79.5905702 100.4930344  91.8099131  80.5621166
 100.8891826  91.1691623  78.9497756  99.6178007  92.4013518  79.1298798
  99.6271738  89.2584643  80.3941157 100.3408460  88.9415016  79.8357189
  96.8868491  89.7386471  81.0129151  96.6068294  89.4468655  82.1421562
  96.1906713  89.1283775  80.0582563  96.4763501  89.3088084  79.1064519
  95.0261657  88.2731810  80.2821305  94.4567108  88.7368047  81.0876573
  94.1759685  88.2765827  79.0217519  94.7292928  87.8072247  78.2083421
  93.2555468  87.7212908  79.2022373  93.9326509  89.3036742  78.7497617
  95.3114510  86.8326254  80.6680851  94.4154386  86.1836928  81.1835697
  96.5591018  86.3288512  80.4797982  97.1587055  86.8764952  79.8792478
  97.0909055  85.0869789  81.0462928  96.3147267  84.3571522  81.2765070
  97.9936590  84.5133123  79.9070138  97.6875953  84.9085101  78.9383844
  99.0403588  84.7598632  80.0851493  97.8188306  82.9870156  79.9154055
  98.2997739  82.5661932  80.7984134  96.7577084  82.7380353  79.9268396
  98.4849675  82.3873476  78.6185845  97.9142990  82.6687321  77.7335652
  99.5098756  82.7445166  78.5181194  98.4876881  80.8828128  78.7583830
  99.1004803  80.6322511  79.6242959  97.4603164  80.5654126  78.9368866
  99.0188199  80.1875107  77.5587047  99.9709426  80.4811576  77.3933760
  98.9958980  79.1892395  77.7104581  98.4508774  80.4192151  76.7562999
  97.8878595  85.2677231  82.3129564  98.5398508  84.2943313  82.7591008
  97.8182833  86.4460863  82.9514455  97.4562821  87.0775207  82.2511989
  98.2465736  87.0066846  84.2401747  97.8683643  88.0214940  84.3635394
  97.6853695  86.1370785  85.3625485  98.2475471  85.2035154  85.3852524
  97.9296951  86.7292659  86.2444324  96.1804577  85.8281556  85.3544016
  95.2155130  86.8796411  85.6046454  95.6199305  87.8523488  85.8846201
  93.8570138  86.7033578  85.5058723  93.1730456  87.5254080  85.7168767
  93.3628138  85.4873996  85.0643297  92.0017593  85.4804434  84.9743218
  91.6046325  86.3161196  85.2303201  94.1761849  84.3715058  84.8150859
  93.7975803  83.4050531  84.4823275  95.5924233  84.5587955  85.0245073
  96.2733158  83.7124246  84.9342754  99.7411258  87.3079612  84.4195969
 100.1973059  87.6468711  85.4951069 100.5058037  87.2803642  83.2911369
 100.1557683  86.8629032  82.4406659 101.8293045  87.9190317  83.2604691
 102.4819411  87.5005748  84.0266665 102.4505510  87.6568186  81.8963426
 101.8584674  88.2188692  81.1740993 103.4751397  88.0287180  81.8933681
 102.4638008  86.1411016  81.4658577 101.7251295  85.6988175  80.6479803
 103.3170991  85.3679499  82.0839683 103.3684270  84.3873025  81.8477568
 103.9212379  85.7546974  82.7949841 101.6349246  89.4435238  83.4115888
 100.7757141  90.1152828  82.8507981 102.4991148  90.0412634  84.2594588
 103.2510216  89.4996808  84.6612346 102.3961617  91.4485417  84.6149215
 101.9480877  92.0831112  83.8502971 101.5013526  91.5155945  85.9142327
 101.9421676  90.8922191  86.6921693 101.4444963  92.5463629  86.2640672
 100.4988384  91.1545525  85.6846394 103.7530548  91.9758960  84.8801563
 104.8042383  91.3015011  85.0092244 103.8170772  93.3417804  84.9086148
 102.9790707  93.9025563  84.8505221 105.1430348  94.0484111  85.0217280
 105.8112688  93.4873597  85.6750149 105.8167024  94.1687674  83.5899052
 106.5900668  94.9364922  83.6145086 106.2629980  93.2128632  83.3157386
 104.7074115  94.6157147  82.2257836 105.6404028  94.6029556  81.2780164
 104.9201355  95.4573723  85.6069102 103.8533841  96.1034847  85.5165427
 105.9684900  96.0024194  86.1633835 106.6997799  95.3305253  86.3474286
 106.2042294  97.3943304  86.5199334 105.4045118  98.1033158  86.3057123
 106.6131490  97.5129854  88.0057435 107.2880905  96.6780994  88.1942102
 107.3051357  98.8557374  88.4450937 106.6305723  99.6910914  88.2573478
 107.5416689  98.8122672  89.5082320 108.2233037  98.9955309  87.8745462
 105.4522430  97.1314384  88.9861950 104.7569061  97.9682976  89.0515705
 104.9323441  96.2575713  88.5935617 106.0032343  96.8136573  90.3842088
 106.5229047  97.6872685  90.7777134 105.1800383  96.5513173  91.0487578
 106.6983449  95.9765430  90.3197041 107.3341315  97.9381622  85.6605951
 108.4277165  97.2981009  85.5979647 106.9949183  98.8891476  84.7821988
 106.0296805  99.1746164  84.8654028 107.8025819  99.4852964  83.7276471
 108.6864831  98.8895992  83.4996936 106.8805235  99.5198127  82.4590330
 106.0389772 100.1124875  82.8176912 107.3803825 100.0520559  81.6497381
 106.3843358  98.2045040  81.9572117 106.0894246  97.5819916  82.8019640
 105.1869467  98.4243131  81.0481328 105.4812139  99.0464019  80.2028452
 104.8261359  97.4628380  80.6827811 104.3932570  98.9216168  81.6056686
 107.5223046  97.4153722  81.2826245 108.3200794  97.2388409  82.0040756
 107.1395803  96.4598991  80.9238844 107.9136470  97.9881790  80.4418853
 108.3075591 100.8412884  84.1340555 107.6469648 101.5257844  84.8406398
 109.3396745 101.2801900  83.4624656 109.8120368 100.5994273  82.8849404
 109.9336536 102.5948660  83.6001201 109.1599114 103.3357767  83.8013004
 110.9250840 102.5989887  84.7583687 110.3487060 102.4783525  85.6756116
 111.5792306 101.7373667  84.6249529 111.7803919 103.8863022  84.8522109
 112.3869089 104.0163249  83.9559230 110.9919054 104.6387021  84.8690205
 112.6984377 104.0513202  86.1422942 112.9142163 103.0541348  86.8315915
 113.2388080 105.1393959  86.2833233 110.5505770 103.1691640  82.3050196
 111.1622457 102.4342370  81.6184356 110.3393161 104.4380825  81.9603580
 109.4663691 104.8658456  82.2343681 111.1595523 105.1179290  80.9683094
 111.2762257 104.4851297  80.0885074 110.5006320 106.4356335  80.5405153
 109.5727977 106.0405276  80.1268560 110.2733438 107.0858073  81.3853314
 111.2295784 107.2272344  79.4772410 112.0453275 108.3066066  79.9378740
 112.2236316 108.3989380  81.0092200 112.5922949 109.2029816  79.0797193
 113.3119600 109.9386731  79.4388042 112.3922361 109.0248775  77.6746864
 112.8703096 109.9365338  76.7582812 113.3330960 110.6716823  77.1669193
 111.5095665 108.0288795  77.2146794 111.2373699 108.0251275  76.1592197
 110.9762957 107.0443867  78.0893463 110.4081860 106.2065227  77.6851985
 112.6507826 105.2201151  81.2191388 113.1413886 105.4926838  82.2897816
 113.4080275 104.9018344  80.1435722 112.9952108 104.4342828  79.3491685
 114.8354889 105.1688957  80.1200483 115.0413705 105.9050521  80.8970847
 115.7407189 103.9403150  80.3522165 115.4361657 103.4900124  81.2969780
 115.5490655 103.2408887  79.5384770 117.1733108 104.2542237  80.3997207
 117.4135973 104.6596666  79.4168783 117.2731067 105.0385479  81.1500395
 118.1446610 103.0975180  80.7313228 119.0592614 103.5238627  81.1434336
 117.6746575 102.4569097  81.4775245 118.4815427 102.2725825  79.4929782
 117.5533485 101.8552256  79.1026332 118.9191954 102.9406128  78.7511596
 119.4301821 101.1745721  79.7886763 119.0246572 100.5552064  80.4757247
 119.6223607 100.6585569  78.9419793 120.2904925 101.5611183  80.1499893
 115.2986880 105.8207934  78.7704672 114.8431807 105.4359702  77.7157303
 116.0807137 106.8838900  78.8832170 116.0910169 107.3098605  79.7989365
 116.7533452 107.5882571  77.7775172 116.7544767 106.9413544  76.9002403
 116.0688442 108.9004302  77.4140973 116.5103679 109.2973042  76.4999600
 115.0054162 108.7214614  77.2553803 116.2524258 109.9132127  78.5518559
 115.5400534 109.5485985  79.2919119 117.2520527 109.9264192  78.9862218
 115.8705409 111.3336272  78.1687053 114.8239598 111.5950987  77.5895449
 116.7951800 112.2448478  78.3458141 116.6025595 113.2078628  78.1100157
 117.6962637 111.9800164  78.7173161 118.2133509 107.6674702  78.1078845
 118.5414595 107.8751530  79.2829992 119.1326408 107.3877455  77.1353948
 118.7790543 107.4322841  76.1903593 120.5666536 107.0564829  77.3358431
 120.9434323 107.6962947  78.1338266 120.8519503 105.5677264  77.7129847
 120.5963649 104.9244187  76.8710046 121.9088691 105.4497743  77.9519620
 120.0598728 105.2006343  78.8531407 120.2360575 104.2855974  79.0839357
 121.5236398 107.2574676  76.1028031 121.3814642 106.4584502  75.1573517
 122.3284353 108.3489571  75.9896007 122.4058456 108.9498921  76.7976749
 123.0790888 108.7037540  74.7887579 123.3884159 109.7420747  74.9083656
 123.9603339 108.0625510  74.7696479 122.3506423 108.5618486  73.5035666
 122.8394049 107.9134514  72.6009116 121.1685109 109.1342209  73.4271584
 120.7895185 109.2838858  74.3513145 120.2894934 109.2484531  72.3087903
 119.5229229 109.9789847  72.5672327 120.9677934 109.6888385  70.9836673
 121.8046440 109.0071127  70.8319107 120.2268492 109.5339820  70.1993707
 121.4572157 111.0936853  70.9330186 121.6857615 111.3371825  69.8954364
 120.6302437 111.7145012  71.2776983 122.6885742 111.3572359  71.8013609
 122.7702836 112.2150116  72.7462569 123.6883669 110.6322686  71.5556458
 119.2313600 108.1878098  72.0813912 118.2249515 108.4022094  71.4015113
 119.4265147 107.0139871  72.7097382 120.3104357 106.9873232  73.1976644
 118.6705095 105.8494905  72.6520065 118.1686511 105.7668309  71.6879501
 119.6286216 104.6038285  72.8315181 120.0714686 104.6013765  73.8274999
 119.0816560 103.6740194  72.6753652 120.6386156 104.7158892  71.8736212
 121.2405667 103.9724802  71.9548476 117.4645876 105.8920962  73.6422075
 117.6215863 106.2123177  74.8100117 116.3210490 105.3495588  73.1719645
 116.3365617 105.1815683  72.1761543 115.0550062 105.1551151  73.8914645
 115.1295344 105.6645165  74.8522220 113.8322931 105.7534444  73.0677917
 113.7707734 105.2459595  72.1051003 112.5482130 105.5582131  73.8185813
 112.6088049 106.0658413  74.7812561 111.7222700 105.9732226  73.2409256
 112.3792754 104.4935268  73.9798337 114.2179433 107.3124155  72.9429200
 115.1218262 107.3243470  72.3338599 113.3957315 107.7550901  72.3806866
 114.4554956 108.1245094  74.2292090 115.2779281 107.6826785  74.7917836
 114.7051413 109.1531770  73.9691721 113.5518335 108.1134195  74.8386117
 114.8210151 103.6676257  74.3618776 115.0660936 102.7374908  73.6288867
 114.4389870 103.4364789  75.6367199 114.2800735 104.2382338  76.2300452
 114.2606802 102.1141839  76.2052966 113.9479375 101.4295456  75.4169048
 115.5010877 101.5963722  76.8149862 115.8678459 102.4915665  77.3171961
 115.2983543 100.8223876  77.5552206 116.5706526 101.0894558  75.8191867
 116.2817230 100.0988676  75.0849268 117.7034074 101.6187832  75.9200435
 113.1408389 102.1449716  77.3118740 112.7889135 103.1224160  77.9448321
 112.5373516 101.0148517  77.5039733 112.7830498 100.2977931  76.8364715
 111.4493270 100.7333048  78.4681682 111.2913334 101.4014216  79.3147834
 110.0245215 100.4383031  77.7366436 110.1447665  99.5897967  77.0630871
 108.9047664 100.1120170  78.7977539 108.7836164 100.9603019  79.4714273
 107.9626548  99.9186443  78.2847885 109.1928647  99.2312306  79.3716126
 109.6814168 101.4509063  76.5951026 110.5716401 101.5565650  75.9750708
 108.8768802 101.0142342  76.0033782 109.2378017 102.8645538  77.1194197
 110.0420606 103.3020830  77.7108888 109.0159419 103.5136362  76.2723250
 108.3473014 102.7597516  77.7391985 111.9105056  99.6304093  79.4190267
 111.8231049  98.4723750  79.0043366 112.3913833  99.9969456  80.6294137
 112.2911709 100.9515483  80.9437231 113.1059126  99.0294089  81.5178031
 113.4559520  98.0982905  81.0721686 114.3080147  99.7873945  82.1433696
 113.9620702 100.7651491  82.4786588 114.8927886  99.0329692  83.3124085
 115.2393979  98.0552228  82.9777825 115.7317042  99.5938200  83.7244374
 114.1302025  98.9042240  84.0805142 115.3269307 100.1720173  81.0950775
 114.7374580 100.7837860  80.4121705 116.0086290 100.8101352  81.6573874
 116.1277538  99.1521554  80.2991422 115.4467067  98.5139271  79.7361686
 116.7932037  99.6705935  79.6088542 116.7178763  98.5402744  80.9813863
 112.1959422  98.4976802  82.5765218 111.3395196  99.2596608  83.0433387
 112.1922733  97.2053063  82.8307622 112.8647419  96.6438938  82.3280681
 111.2261682  96.5215890  83.7016156 110.3550825  97.1479451  83.8939355
 110.7694334  95.2633335  82.9545222 111.6463825  94.6477794  82.7541387
 109.7211715  94.4292057  83.7908802 108.8436857  95.0439928  83.9912680
 109.4240305  93.5462960  83.2249502 110.1712701  94.1208050  84.7344907
 110.1677323  95.5211787  81.7698747 109.9078698  94.6946814  81.3563846
 111.8365208  96.2792175  84.9962436 112.7252483  95.4216395  85.1047445
 111.4382973  97.0294626  86.0480954 110.7915406  97.7866911  85.8795425
 111.9655060  96.8438566  87.4324662 113.0357451  97.0504461  87.4296019
 111.2833617  97.7796743  88.4618492 110.2031025  97.6605700  88.3784614
 111.6041981  97.4896003  89.4623596 111.6579736  99.2513879  88.2097522
 112.7154397  99.2559695  87.9454698 111.0681354  99.5735524  87.3516130
 111.4252664 100.1907718  89.3576243 110.3555927 100.1904047  89.5671405
 111.9636424  99.7933830  90.2180503 111.8563555 101.5649331  89.1308033
 112.0713831 101.8045602  88.1734939 111.8816532 102.5176318  90.0370038
 111.3986087 102.3517196  91.2400745 110.9879024 101.4658669  91.4983097
 111.4382922 103.1101371  91.9059031 112.5228127 103.5479266  89.6514496
 112.9426317 103.5632807  88.7329638 112.6085026 104.3448835  90.2659541
 111.8120897  95.3889748  87.8541101 112.8015020  94.7277885  88.2770215
 110.5532180  94.8884587  87.7869347 109.8567699  95.4989071  87.3839307
 110.1226221  93.6022917  88.3100912 110.8698974  92.8155021  88.2069361
 109.8734407  93.8575609  89.8302317 109.1206493  94.6367442  89.9497249
 109.5227105  92.9390137  90.3007204 110.8027667  94.1753764  90.3029322
 108.9022630  93.1032125  87.5329589 108.1656964  93.8794305  86.9037886
 108.7762676  91.7716545  87.6399517 109.3660618  91.2578457  88.2788904
 107.8667813  91.0088317  86.7576603 106.9099150  91.5198544  86.6510687
 108.5110709  90.8981429  85.3916790 107.7728392  90.7742297  84.5993668
 109.0164238  91.8562345  85.2701107 109.5921939  89.7915001  85.1724076
 110.9573495  89.9100109  85.4870859 111.4858626  88.7010484  85.0824743
 112.5369201  88.5508446  85.3290828 110.6064324  87.9064757  84.4469471
 110.7404774  87.0159042  83.9897664 109.3900844  88.5828724  84.5402361
 108.4826873  88.1301757  84.1404893 107.5508174  89.6983630  87.4027592
 108.3482755  89.0875190  88.0989346 106.3986422  89.2444762  87.0552740
 105.7625484  89.8720145  86.5844452 105.9552929  87.8549097  87.3075581
 106.6270321  87.1788663  86.7785673 106.0178404  87.6637716  88.3788439
 104.5280737  87.6005724  86.8413136 103.7262880  88.5410959  86.8312969
 104.1655298  86.3124148  86.5851326 104.8594105  85.5989275  86.4131881
 102.7371296  85.9322673  86.5186586 102.1242519  86.6121435  85.9268407
 102.8109795  84.5716436  85.7888467 103.4719919  84.4747056  84.9275890
 103.2037873  83.9804195  86.6160445 101.4379678  84.0298140  85.4121325
 100.4752911  84.1196729  86.1473827 101.2047211  83.6822225  84.1762906
 100.2968506  83.3221552  83.9189535 101.9331374  83.7748629  83.4828007
 102.1527593  85.8654870  87.9983209 102.8622432  85.5304085  88.9915399
 100.8690861  86.1394628  88.1876396 100.3846602  86.4318114  87.3510016
 100.1440309  86.1695556  89.4526199 100.6477116  85.5603929  90.2031702
 100.0783050  87.6430815  89.9676457  99.5253189  87.6401894  90.9069525
 101.4495190  88.2601717  90.1892870 102.0029639  88.2638356  89.2502523
 101.3345410  89.2834824  90.5466604 101.9958110  87.6763672  90.9301236
  99.3213951  88.5976387  88.9675046  98.2994861  88.2441831  88.8301254
  99.3039785  89.6093202  89.3728401  99.8365406  88.6004654  88.0069225
  98.7505966  85.4823810  89.2409504  97.7773670  85.6324737  90.0542168
  98.6094163  84.5345399  88.3588670  99.3008807  84.4735346  87.6252085
  97.4416071  83.6137619  88.3059955  96.5236919  84.1387243  88.0415235
  97.7487059  82.5929765  87.2189976  96.8023617  82.0938053  87.0107667
  98.0512292  83.1748733  86.3483796  98.8397991  81.5261430  87.5349913
  99.7002180  81.9170823  88.0780812  98.2522565  80.8891729  88.1961758
  99.3357533  80.6950629  86.3820879  98.7365167  80.5995020  85.3026878
 100.5888425  80.1642544  86.3948845 100.9066900  79.6088299  85.6134896
 101.1953314  80.3281318  87.1857174  96.9933038  82.8941335  89.6169803
  97.8592214  82.7931835  90.5292466  95.8320656  82.2411520  89.7404433
  95.1168003  82.5004813  89.0761819  95.4909136  81.2248272  90.7950186
  96.3764961  81.0474666  91.4052531  94.3286053  81.6813495  91.7255716
  93.6122708  82.1346789  91.0404027  93.8399071  80.8848429  92.2866877
  94.8506358  82.7490267  92.7009420  95.8843782  82.5408428  93.4302610
  94.2194702  83.8231916  92.9300400  95.1131742  79.8253457  90.1294110
  94.6813315  79.7679196  88.9727127  95.1724143  78.7697976  90.9645558
  95.4830131  78.9636438  91.9058589  94.9319224  77.3888262  90.5902650
  95.6770622  77.0916688  89.8523197  95.0151802  76.4287596  91.7856714
  94.3090433  76.7931949  92.5317659  94.6921947  75.4513121  91.4273746
  96.4623024  76.3022267  92.4414700  96.7392802  77.2941369  92.7985390
  96.3706656  75.6237899  93.2896612  97.5556446  75.7770229  91.4758237
  98.3446830  75.3315002  92.0816511  97.1016251  75.0090343  90.8495975
  98.1355535  76.7752286  90.6294738  97.6402797  76.9918099  89.7763057
  99.2839157  77.4478104  90.9007817 100.0389574  77.3197080  91.9423472
  99.7904440  76.6584313  92.6641881 100.8737718  77.8815120  92.0293004
  99.7204694  78.3465816  90.0031670  99.1955018  78.5045159  89.1548947
 100.5717210  78.8603943  90.1805536  93.5933988  77.1717589  89.8464255
  93.4402049  76.1731750  89.1171519  92.6177238  78.0542289  90.0782399
  92.7941886  78.8114042  90.7229454  91.2897143  77.9087957  89.5438974
  91.3131207  77.8857527  88.4543928  90.5090500  76.7350878  90.0512101
  91.1394751  75.8473235  90.0008224  90.0600290  76.9584553  91.4921962
  89.4291374  77.8458470  91.5433086  89.4955345  76.0916763  91.8359125
  90.9341787  77.0976442  92.1282684  89.2080853  76.1598104  89.2626069
  88.8652230  75.2741894  89.7976038  88.4356310  76.9279394  89.2999121
  89.4903172  75.8006333  87.8255074  90.2623992  75.0321686  87.7874113
  88.5800426  75.4238186  87.3591276  89.8328097  76.6859188  87.2897200
  90.5649802  79.2397999  89.7930832  91.0679576  80.0741743  90.5678625
  89.4791311  79.5063337  89.0479789  89.1515025  78.8139501  88.3896751
  88.7348853  80.7852717  89.1521977  88.1313135  80.7552439  90.0593353
  89.4595939  81.5961698  89.2252804  87.8406686  81.0362112  87.9811123
  88.2608042  80.7263656  86.8899521  86.7194763  81.6958309  88.1329240
  86.4476772  81.9521927  89.0712753  85.7950262  82.0489696  87.0017291
  85.8018476  81.3015209  86.2083987  84.3323621  82.0843353  87.6602646
  84.2731356  81.2665806  88.3785046  84.2280232  83.0349162  88.1833414
  83.2403363  81.9462756  86.6617516  83.2401517  82.8732789  86.0883706
  83.5300622  81.1189877  86.0138661  81.8015467  81.6842533  87.2327637
  81.1543790  81.3716928  86.4132645  81.8616281  80.8858615  87.9723989
  81.1961192  82.9111095  87.8896885  81.0870481  82.8929976  88.8936182
  80.7682372  84.0125238  87.2082947  80.6303294  84.0576753  85.9492487
  80.8430177  83.2429696  85.3914689  80.3084069  84.9081455  85.5097420
  80.5184181  85.0446003  87.8126410  80.6298501  85.0783173  88.8159087
  80.2017235  85.8588767  87.3059288  86.1771822  83.3974270  86.3363949
  86.5756594  84.2669791  87.0854403  86.0059856  83.6401762  85.0545671
  85.6085788  82.6479060  84.1157030  84.7457300  82.1312451  84.5360049
  86.4372042  81.9470440  84.0143551  85.2771875  83.3753542  82.7752364
  84.1965704  83.4202475  82.6397728  85.7249300  82.8323132  81.9429297
  85.8807665  84.7698475  82.9028880  85.2423684  85.5536146  82.4951431
  86.8566188  84.8082909  82.4188073  86.0443059  84.9672576  84.4620138
  87.0270207  85.3798551  84.6903410  84.9682316  85.9268584  84.9438099
  83.7904437  85.5485846  84.6982298  85.1658684  87.1418043  85.3809734
  86.1202283  87.4380550  85.2342357  84.2123706  88.1128339  85.9362432
  83.6780928  87.6814466  86.7827368  84.9791200  89.3495417  86.4195382
  85.4569071  89.8169529  85.5585240  84.2664125  90.0459054  86.8613815
  85.9692658  89.0084166  87.3842376  86.4294160  89.8027522  87.6651157
  83.3185123  88.5895445  84.8250266  83.8183339  89.0954538  83.8275637
  81.9922246  88.6586446  84.9433950  81.5525030  87.9783183  85.5466367
  81.1308195  89.5210141  84.1208720  81.1143596  89.1187480  83.1079504
  79.6679886  89.6203455  84.6400434  79.7339219  89.7891593  85.7148708
  79.2305867  90.4964819  84.1613319  78.7656438  88.3682396  84.3623155
  77.7051911  88.5479074  84.5391214  78.9436189  88.2715535  83.2912993
  79.1951275  87.0579748  85.0787504  79.6018979  86.1037043  84.3294437
  79.3020144  87.0528020  86.3248191  81.6787046  90.9642237  83.7985260
  81.5371730  91.2829444  82.6143318  82.3230209  91.7069371  84.7388304
  82.1024225  91.5010691  85.7027049  82.9745846  92.9978619  84.4290177
  82.6597939  93.2880414  83.4266197  82.5787763  94.1148392  85.4115611
  82.8069968  95.0708988  84.9404287  81.0941407  94.0727287  85.7876914
  80.8652490  93.1170800  86.2593307  80.8716764  94.8826814  86.4823751
  80.4877754  94.1884215  84.8893391  83.2708870  93.9864448  86.5936421
  83.0124250  94.6897431  87.1937830  84.4597590  92.8386676  84.0188565
  85.2185697  93.8019194  84.0740034  85.0038464  91.6786919  83.7180656
  84.3220268  90.9359005  83.6590541  86.4167770  91.3502025  83.4696387
  86.4314063  90.2692568  83.3302056  86.6554359  91.8409941  82.5261002
  87.4832452  91.7366114  84.5220544  87.2422279  91.9446752  85.7372392
  88.7638248  91.7247334  84.1391120  88.9345166  91.5494964  83.1591857
  89.9480885  91.8640786  85.0552569  89.8887121  91.3975998  86.0386038
  91.2193665  91.3352981  84.3016202  91.2010669  91.7858819  83.3092796
  92.5895297  91.6533349  84.9944588  92.6087611  91.2026535  85.9867375
  93.4036047  91.2458066  84.3950397  92.7100721  92.7329480  85.0839256
  91.1009721  89.8023108  83.9129987  91.2762044  89.2190156  84.8169684
  90.0839093  89.6294578  83.5611401  92.1035958  89.3713407  82.8202455
  93.1209603  89.5434756  83.1715842  91.9698064  88.3120239  82.6010480
  91.9286664  89.9539199  81.9157562  90.1036794  93.2977114  85.5266436
  89.7979156  94.2062900  84.7809416  90.4753528  93.5719519  86.7659079
  90.6063905  92.7633250  87.3567132  90.7075999  94.9102238  87.3483087
  90.8631693  95.8095093  86.7523364  89.5509284  95.1505164  88.3542668
  89.3527219  94.1950321  88.8399254  89.8373235  96.2190280  89.4232602
  90.0351819  97.1749635  88.9383479  88.9730286  96.3174033  90.0800839
  90.7069765  95.9228971  90.0098685  88.1452983  95.2520384  87.7606524
  88.1102217  96.1867005  87.2009407  88.0360483  94.4131920  87.0732656
  87.0070649  95.2262327  88.7803856  87.1153853  96.0651111  89.4678808
  86.0517115  95.3035540  88.2613283  87.0412135  94.2916028  89.3402076
  92.0867231  94.8539530  88.0367320  92.3637130  93.8727164  88.7492847
  92.9141324  95.9065211  87.8203077  92.8127130  96.4855029  86.9989713
  93.9745111  96.2313789  88.7693242  93.7918455  95.7094496  89.7086443
  94.9348158  95.9171485  88.3604556  94.0156148  97.7273511  89.0346370
  93.8733777  98.6110407  88.1282098  94.2216633  98.0177429  90.2878128
  94.4571458  97.1731065  90.7890480  94.0511601  99.2639577  91.0586458
  94.2083933 100.2022177  90.5266262  92.6838442  99.3199350  91.8230014
  92.7502144 100.0733428  92.6079040  91.5360959  99.6788545  90.8640318
  91.4688015  98.9255988  90.0790618  90.5971309  99.7118999  91.4166197
  91.7278305 100.6537789  90.4158585  92.4167668  98.1551074  92.7105292
  91.8781012  97.4201049  92.1124395  93.3865643  97.7487448  92.9976908
  91.5862247  98.4892794  94.0017088  90.6160476  98.8952850  93.7153251
  91.4411128  97.5807891  94.5862489  92.1245101  99.2239271  94.6005756
  95.2473425  99.4701984  91.9639775  95.9044529  98.4215956  92.3258479
  95.6599124 100.7124682  92.1892281  95.1940670 101.5015131  91.7643805
  96.8687600 100.9722343  93.0337599  97.1550740 100.1512072  93.6910560
  98.0867958 101.3495184  92.1021144  97.9133013 102.2779654  91.5580682
  99.2715870 101.5389629  93.0810269  99.4459939 100.6107269  93.6251416
 100.1677950 101.8047980  92.5204525  99.0361355 102.3349027  93.7875266
  98.2782174 100.3121786  90.9752453  98.2390030  99.3424046  91.4713313
  97.4056395 100.4262312  90.3320507  99.5375067 100.3999829  90.1376292
 100.4105579 100.2855459  90.7801132  99.5321007  99.6082955  89.3884289
  99.5771954 101.3693741  89.6408341  96.5964894 102.0848294  94.0571107
  96.3289394 103.2862284  93.6876970  96.8026891 101.7543034  95.3369326
  97.0752217 100.7917131  95.4756597  96.6059384 102.5758325  96.4900380
  95.5546603 102.7625023  96.7092823  97.2165293 101.7229433  97.6543510
  96.5652073 100.8858042  97.9055025  98.1822088 101.3437231  97.3200529
  97.4192009 102.6232032  98.9182771  96.5291918 103.4116962  99.3178851
  98.4529384 102.5094408  99.5203736  97.2603026 103.9747273  96.2608767
  98.4243933 103.9831998  95.8840346  96.6724702 105.1329000  96.6429580
  95.2443968 105.3514904  97.0357245  95.1464078 105.1112152  98.0943870
  94.6266188 104.6704180  96.4504129  94.9400989 106.8124695  96.7374078
  94.1199495 107.2175042  97.3301986  94.7577691 107.0122656  95.6815012
  96.2716200 107.3840143  97.1731520  96.4472877 107.4848714  98.2441645
  96.3720104 108.3587010  96.6956510  97.2908316 106.3896254  96.5638356
  97.3991500 106.5593873  95.4925998  98.6382022 106.6383558  97.2600078
  99.3747313 107.4216107  96.7785322  98.9549835 105.9506360  98.3768136
  98.1672210 105.5005206  98.8205767 100.2157465 105.9166130  99.0418940
 100.7276669 106.8624058  98.8643756 100.0880526 105.7067247 100.5463102
  99.7226953 104.6893285 100.6860175 101.0946484 105.7902176 100.9560588
  99.1653503 106.6800923 101.2659581  98.2286143 106.5083615 100.7357364
  99.0521890 106.3819996 102.3082798  99.5202463 108.1453221 101.1978292
 100.5188891 108.5875431 100.6144751  98.8234962 108.9090461 101.8530940
 101.2387377 104.9019812  98.4416295 102.3554634 104.7588081  98.9282793
 100.9293750 104.1548291  97.4235733  99.9928903 104.2418632  97.0554418
 101.7992034 103.0903496  96.8812866 101.2079937 102.4392943  96.2373167
 102.9415759 103.6557649  96.0762774 103.6629514 104.2031829  96.6829487
 103.4622753 102.9027163  95.4847624 102.2787295 104.8396201  94.9023795
 103.4474148 105.1627775  94.3558977 102.2955690 102.1013831  97.9215488
 103.3629626 101.4761886  97.8665339 101.4793286 101.7055920  98.9207810
 100.7140956 102.3249277  99.1464826 101.7029947 100.5202753  99.7843895
 102.7629674 100.4734917 100.0341259 100.8971712 100.5526967 101.0810095
  99.8686291 100.4055376 100.7515484 101.2357600  99.6676375 101.6196446
 100.9672907 101.7749334 102.0095092 101.8951027 101.7196049 102.5788988
 100.9731706 102.6736128 101.3927087  99.8007849 101.8251527 102.9565315
  99.4153529 100.8236008 103.1474114 100.0893218 102.2887567 103.8998857
  98.7169314 102.6446543 102.3316421  98.4718094 102.3312021 101.4033306
  98.0332141 103.6992184 102.8648570  98.1986729 104.2875210 104.0136361
  98.9183949 103.9641398 104.6441318  97.6066012 105.0647752 104.2694227
  97.0892814 104.2321682 102.1179503  96.9040422 103.8561087 101.1990566
  96.5546785 105.0146561 102.4672512 101.4710355  99.2570883  99.0137251
 101.9773977  98.2353739  99.4459729 100.6264222  99.2961123  97.9540773
 100.1495517 100.1506083  97.7040164 100.2328352  98.0204975  97.2424383
 101.1305242  97.5480197  96.8436673  99.5188886  97.0131911  98.1860459
  99.1335120  96.2098976  97.5581098 100.2793951  96.6153994  98.8579771
  98.3839190  97.6065134  99.0014756  98.7992946  98.3769086  99.6511333
  97.6710118  98.0588887  98.3121121  97.5020896  96.3285210 100.0480463
  98.9988180  95.7596199 100.9446409  99.4378309  96.5966224 101.4875899
  98.7245285  94.9741774 101.6488752  99.7243595  95.3696733 100.2307555
  99.4070595  98.2924484  95.9025117  98.5815696  99.1487616  95.8137186
  99.6875567  97.4764327  94.8702745 100.6237921  97.0975453  94.8676622
  98.7751716  97.0967174  93.7719177  98.2122089  97.9317706  93.3549544
  99.5911820  96.4170066  92.6525455 100.0702142  95.5047245  93.0080309
  98.5484489  96.0577409  91.5239858  98.0693073  96.9696347  91.1676524
  99.0624333  95.5703832  90.6954913  97.7923039  95.3846872  91.9281425
 100.7774743  97.2226347  92.1263315 100.3748502  98.0530524  91.5463305
 101.3156907  97.6111977  92.9908785 101.7266773  96.4152963  91.2611638
 101.1892490  96.0267651  90.3961122 102.5436874  97.0532968  90.9241933
 102.1300880  95.5849086  91.8406600  97.7287076  96.1159013  94.3708451
  98.1847860  95.1572769  95.0489163  96.4491147  96.3492607  94.2445822
  96.2309871  97.2994312  93.9805828  95.3492611  95.4175158  94.4376432
  95.7561311  94.5141416  94.8920340  94.6393243  95.8803297  95.1231302
  94.6339089  95.0472873  93.1693068  94.5826978  95.8291980  92.1866150
  94.1747056  93.8230571  92.9795654  94.0628546  93.3520522  93.8659868
  93.7569886  93.1033938  91.7363610  93.5361755  93.7921347  90.9208999
  94.9739866  92.2144448  91.3234548  95.1149981  91.4215612  92.0579959
  94.4836689  91.8069622  90.4393470  96.3203508  92.7868841  90.9346235
  96.7572079  93.3199590  91.7790688  97.2471135  91.6207609  90.5273627
  96.8111162  91.0874590  89.6826176  98.2233058  92.0139013  90.2434790
  97.3620143  90.9366291  91.3681136  96.3078226  93.5444558  89.6275920
  95.6103240  94.3791454  89.6975094  97.3077921  93.9238849  89.4173644
  95.9962991  92.8776950  88.8235509  92.5474503  92.1181213  91.9384799
  92.5678624  91.3592343  92.8817847  91.5668769  92.2608581  91.1128504
  91.4827191  93.1187920  90.5865746  90.5549811  91.1959700  90.8904581
  90.6649773  90.4453735  91.6731489  89.1322971  91.7147358  90.9139189
  89.0242238  92.2816682  91.8385848  89.0335688  92.3876369  90.0621226
  88.0252740  90.6224322  90.8429372  88.2525742  90.0095423  89.9706979
  88.1278247  90.0206114  91.7459307  86.5648617  91.1545381  90.7369932
  85.8601302  90.4464581  91.1729693  86.4650296  92.1189981  91.2349390
  86.2512824  91.3191949  89.3538948  86.7959233  90.7476153  88.7240039
  85.3609958  92.1796975  88.8314591  84.4406207  92.7763370  89.5194125
  84.3638039  92.6031739  90.5114880  83.8038148  93.4121083  89.0607484
  85.3356094  92.4264710  87.5818210  85.9940623  91.9703187  86.9666260
  84.6571548  93.0770736  87.2123424  90.7091746  90.5112762  89.5401346
  90.4622679  91.1298075  88.4801486  91.3211665  89.3742204  89.5000977
  91.5673556  89.0594528  90.4276815  91.7084973  88.5140204  88.3291943
  91.8570870  89.1004018  87.4224544  93.0783730  87.8393395  88.7231479
  92.9379902  87.2416745  89.6238079  93.3281371  87.1844250  87.8883994
  94.2075044  88.8296867  88.9443231  94.0805674  89.3836095  89.8744614
  95.5212945  87.9435210  89.0318103  95.6491624  87.3896172  88.1017893
  96.3852853  88.5885560  89.1916558  95.4329949  87.2429280  89.8621554
  94.4160835  89.8580770  87.7783122  93.5066401  90.4433246  87.6423075
  95.2429028  90.5243575  88.0243640  94.6438473  89.3221560  86.8568941
  90.6566669  87.4474970  88.0124381  90.4454857  87.0224743  86.8379274
  89.9512814  86.8505871  88.9966219  90.2884274  87.0657237  89.9240636
  88.7429882  85.9912190  88.8667642  88.4489805  85.8299255  87.8296320
  89.1640627  84.6601158  89.4644343  89.2909330  84.8399227  90.5319889
  88.3537048  83.9476108  89.3103026  90.4565489  84.0919996  88.8878397
  90.4453987  83.4717876  87.6429322  89.5231058  83.4862215  87.0621853
  91.5386251  82.8639048  87.1525186  91.4574108  82.3000437  86.2232357
  92.7365316  82.9238581  87.8150500  93.8557447  82.3434258  87.3635744
  93.7298631  81.8832345  86.5305213  92.8367816  83.6662689  89.0557503
  93.7998167  83.8358307  89.5373233  91.6307294  84.1846011  89.6529536
  91.6609548  84.6210533  90.6513002  87.5135978  86.4890698  89.6633285
  87.7055555  87.2911075  90.6129768  86.3279474  86.1061231  89.3130329
  86.2172954  85.5137899  88.5024795  85.1236703  86.5157089  90.0451178
  84.9583153  87.5873020  89.9335603  83.9010760  85.7669920  89.4784423
  83.8626273  86.0706136  88.4322899  84.0366394  84.6870997  89.5380673
  82.5613450  86.1647413  90.1869234  81.7023723  85.2572555  90.3516668
  82.3186513  87.3503039  90.4990758  85.1580275  86.2435178  91.5974066
  85.5517818  85.1935183  92.1214607  84.8412600  87.2960049  92.3807427
  84.6968953  88.1074617  91.7969653  84.6878081  87.4419279  93.7921438
  84.0672229  88.3300096  93.9116601  84.1243599  86.5613603  94.1007312
  85.9153827  87.5756711  94.6722639  85.7049179  87.4782614  95.8973728
  87.1004377  87.6405861  94.0304317  87.1526722  87.8569096  93.0452540
  88.3176298  87.3638969  94.7295808  88.1402212  87.1703317  95.7874834
  88.9032079  86.1143684  94.0997294  88.7865640  86.3170671  93.0351136
  89.9636752  86.0429439  94.3414062  88.2012985  84.7747333  94.4511067
  87.1365185  84.9061270  94.2585449  88.7274049  83.5617620  93.6395035
  89.7920956  83.4294453  93.8319218  88.1899059  82.6623181  93.9398305
  88.5703817  83.7400781  92.5757143  88.1598421  84.2752118  95.8820607
  87.6462649  85.0053251  96.5075784  87.6264913  83.3253932  95.9205698
  89.1769245  84.1353001  96.2482122  89.3406055  88.5373970  94.6709007
  89.4774309  89.1132058  93.5909039  89.9748063  88.9795326  95.7142375
  89.8483665  88.4964177  96.5921397  90.7876584  90.1757994  95.7007437
  90.8961348  90.5037952  94.6669396  90.1696068  91.3760248  96.5549334
  89.1789025  91.6706209  96.2087871  90.1004570  91.0007682  97.5759627
  90.9840519  92.6131121  96.6120664  91.2689309  93.3752098  95.4236371
  90.8726979  93.0315168  94.4681402  92.0401847  94.5388298  95.4822112
  92.3337316  95.0382986  94.5589226  92.4519111  95.0849287  96.7684096
  93.0008255  96.0224088  96.8574254  92.1042858  94.3303569  97.9608705
  92.3860975  94.7161255  98.9405974  91.4065525  93.1056508  97.8576173
  91.1876581  92.5258392  98.7542798  92.2366737  89.8163750  96.2093280
  92.4338321  89.5053233  97.3810388  93.2364690  90.0565141  95.3888863
  93.0370876  90.1790796  94.4063772  94.6322894  90.0081997  95.8106208
  94.7251538  89.7304554  96.8605415  95.3402537  88.8942585  94.9262528
  96.1038326  88.5163064  95.6061048  94.5491232  88.1519531  94.8204459
  95.9614175  89.1669608  93.5705880  95.1587566  89.3739213  92.8627718
  96.6023059  90.0441958  93.6590343  96.7883197  87.9796576  93.0709353
  97.2139618  88.2503285  92.1046718  97.5925743  87.8064719  93.7859741
  95.9452154  86.6889783  92.9200603  95.2978027  86.6090966  93.7933164
  95.3339906  86.7923420  92.0235005  96.8018495  85.4363560  92.8078807
  97.3679870  85.3401588  93.6387441  96.2045901  84.6275461  92.7119236
  97.4015270  85.5099874  91.9985202  95.3361578  91.3303724  95.7914501
  94.8686598  92.2426294  95.1080258  96.4646310  91.3902310  96.5616384
  96.5346731  90.7193466  97.3133748  97.4839924  92.4786466  96.4869723
  97.4397418  93.0980769  95.5911781  97.2595288  93.3934032  97.7401607
  98.1037498  94.0828857  97.7421511  95.9403524  94.1943413  97.8288900
  95.0956351  93.5054644  97.8274164  95.9305415  94.7784836  98.7490976
  95.8633762  94.8646387  96.9728072  97.3828493  92.6309360  99.0510768
  98.3802078  92.1979161  99.1277050  97.2182445  93.3127430  99.8854293
  96.6385668  91.8351497  99.0805486  98.9078622  92.0803373  96.2836509
  99.4017191  91.1760409  96.9291301  99.6434264  92.8008419  95.4622909
  99.1373377  93.4932501  94.9288638 101.0934163  92.7560825  95.3356587
 101.5241951  91.8282312  95.7119843 101.4517921  92.9192674  93.7724403
 101.0387190  93.8299559  93.3387153 103.0033179  93.0079375  93.7819406
 103.4171575  92.0973424  94.2151312 103.3675005  93.1220300  92.7609338
 103.3150493  93.8667184  94.3764303 100.8988554  91.7672695  92.9055449
 101.4239547  90.8465670  93.1598647  99.8350554  91.6466071  93.1101656
 101.1061332  92.0840826  91.3787789 102.1698014  92.2044273  91.1732872
 100.7115307  91.2631990  90.7799981 100.5809036  93.0044693  91.1235886
 101.5768292  94.0185137  96.0813934 101.4754280  95.1460695  95.5656282
 102.0530140  93.8512169  97.3091649 101.8802631  92.6120021  98.1509206
 102.0265247  91.7422689  97.5103959 100.8636071  92.6062768  98.5439561
 102.9368504  92.7111453  99.2613606 103.8428101  92.1631566  99.0024309
 102.5517774  92.3462759 100.2135635 103.1965127  94.2425434  99.3181087
 104.2637829  94.3395919  99.5171434 102.6329850  94.7160408 100.1220592
 102.8510889  94.9103582  97.9677962 102.2219903  95.7791671  98.1614566
 104.0114512  95.3143781  97.0383808 104.6286309  94.4949017  96.3694326
 104.2270840  96.6507451  97.0457908 103.6730255  97.2503833  97.6403936
 105.1631961  97.2836759  96.0857065 105.2901571  96.6932760  95.1782882
 104.4952840  98.6499776  95.7050555 104.0727268  99.0373181  96.6321542
 105.2912568  99.3122520  95.3645854 103.4042402  98.5772988  94.6404565
 102.7121500  97.7665143  94.8679220 102.6536882  99.8972426  94.6379477
 103.3450793 100.7085105  94.4100845 101.8678345  99.8675134  93.8831956
 102.2085985 100.0645786  95.6187608 104.0761785  98.2995243  93.2375979
 104.6182601  97.3545993  93.2745272 103.3050653  98.2456408  92.4691045
 104.7693973  99.1064412  93.0000437 106.6489290  97.3777697  96.6460796
 107.3229496  98.3346364  96.1840110 107.0874829  96.5786774  97.5770962
 106.4111620  95.9712923  98.0172923 108.4938034  96.5591496  98.0844525
 108.7064745  97.4567881  98.6650689 108.6740146  95.3177685  99.0044389
 108.8023956  94.4998482  98.2954792 109.5823099  95.4308071  99.5963189
 107.5331730  95.0181785  99.9028325 106.8060592  95.9279057 100.3075757
 107.4080174  93.8166023 100.2830322 109.5893837  96.5662452  97.0065501
 109.5464174  95.7369287  96.0950914 110.4925290  97.5332138  97.1464008
 110.4764050  98.2929188  97.8117487 111.5361876  97.5285508  96.1271830
 111.0824814  97.5552123  95.1364565 112.4182207  98.7094182  96.2758430
 112.9977173  98.6051012  97.1931221 113.0948218  98.7554751  95.4225027
 111.5905400  99.9935725  96.3395103 111.0253665 100.1409120  95.4192002
 110.9054527  99.9759720  97.1871233 112.5903057 101.1430656  96.5145651
 112.1144886 102.0783130  96.8095384 113.3908120 100.9064169  97.2154834
 113.1654822 101.3106170  95.1898597 113.1557077 100.4992642  94.5884360
 113.6475832 102.3861902  94.7415260 113.5096293 103.5445334  95.2543142
 112.9704826 103.6577490  96.1008384 113.9400912 104.3438834  94.8117740
 114.3737508 102.3697982  93.6796123 114.5549421 101.4947601  93.2088914
 114.7591796 103.2320446  93.3217374 112.4456530  96.3136391  95.9597336
 113.0390570  96.1991502  94.8900870 112.4341171  95.3151459  96.8759062
 112.0928494  95.6542440  97.7639649 112.9705134  93.9303848  96.8092912
 113.6953959  93.8275110  96.0017879 113.6721954  93.6392693  98.1355258
 114.2512189  92.7251230  98.0045004 114.3439737  94.4625756  98.3783850
 112.6515479  93.4446783  99.2930054 111.3899832  93.5860900  99.1851440
 113.1169434  93.1572159 100.3797314 111.8927085  92.8787167  96.3763040
 112.2143117  91.7206538  96.5079736 110.6581283  93.2769832  95.9581791
 110.3198897  94.1909256  96.2235152 109.7012342  92.3197749  95.3780594
 109.9731062  91.2951060  95.6315122 108.3867552  92.6016101  95.9302323
 108.5889644  92.5789336  97.0010715 107.9547726  93.5659935  95.6629204
 107.4017142  91.5344487  95.6099031 107.6828000  90.5128586  94.9561865
 106.1494900  91.7138777  95.8604499 105.4843980  90.9861220  95.6410778
 105.8397785  92.5813113  96.2748633 109.9263018  92.2722952  93.8802806
 109.1737465  92.8204235  93.0847601 110.9564934  91.5643582  93.4771239
 111.5262804  91.2482284  94.2488131 111.4348568  91.3282595  92.1256640
 111.4675791  92.2716835  91.5807055 112.8429552  90.7204181  92.1382143
 112.7580586  89.6801831  92.4525436 113.2367253  90.7615813  91.1226598
 113.8132304  91.4802414  93.1052979 113.6959528  92.5396175  92.8771116
 113.4476191  91.2835508  94.1131388 115.3114941  91.0957414  93.0155848
 115.3267077  90.0065811  93.0555500 115.6296499  91.4270076  92.0270814
 116.2827047  91.6687978  94.0931141 116.3003693  92.7554467  94.0095517
 115.9190119  91.3867577  95.0811830 117.6343957  91.1435467  93.9032834
 117.9717533  91.4051480  92.9879396 118.2465176  91.5261047  94.6097225
 117.6183198  90.1366777  93.9811007 110.4422528  90.5486864  91.3380556
 110.3769889  90.7230790  90.1141039 109.6729887  89.6218253  91.9623412
 109.7003760  89.6383292  92.9718346 108.8805415  88.5269725  91.2845782
 109.0400243  88.5260696  90.2063095 109.3849659  87.1868448  91.8586400
 109.1287035  87.1480051  92.9173752 108.8804372  86.3759739  91.3332457
 110.8673808  87.0393567  91.6981933 111.1231294  87.0236487  90.6387374
 111.3241280  87.9099859  92.1688162 111.3898518  85.7635216  92.3686178
 112.4006554  85.7647905  93.0675174 110.6997206  84.7313053  92.1855842
 107.3667823  88.6823093  91.4115893 106.6638383  87.7115048  91.2739145
 106.8727291  89.8547494  91.8690557 107.5674895  90.5089012  92.1999525
 105.4328999  90.1932946  92.0640378 105.3549614  91.1741769  92.5329670
 104.6726995  90.2255121  90.7287777 104.7907608  89.2679827  90.2215320
 103.6212305  90.3808904  90.9703780 105.1650528  91.3702690  89.7964291
 106.1703200  91.1408061  89.4430379 104.1897806  91.5095198  88.5577817
 103.1843440  91.7394553  88.9103802 104.5388930  92.3122128  87.9082394
 104.1734626  90.5729308  88.0004351 105.2361793  92.8371675  90.3558224
 105.9162530  92.8693961  91.2070336 105.5989896  93.5067620  89.5760063
 104.2426977  93.1542065  90.6729651 104.7515097  89.2770416  93.1149317
 103.6109032  88.7514130  92.8881953 105.4630182  88.9432254  94.2283351
 106.3498970  89.3968371  94.3950142 104.9757038  87.9214612  95.2401911
 104.5479337  87.0556320  94.7347688 106.1864818  87.4471064  96.1038248
 106.6227978  88.3247871  96.5806939 105.8078652  86.7691380  96.8687486
 107.2670317  86.7258139  95.2654363 106.7875548  85.9342162  94.6896101
 107.7167043  87.4484010  94.5844337 108.3332191  86.1323330  96.1402288
 109.1313204  85.7954468  95.4786844 108.7035667  86.9374747  96.7748065
 107.8830037  84.9984927  96.9906858 108.7284335  84.6347574  97.5746769
 107.1005256  85.3482372  97.6641144 107.3677724  83.9258427  96.1696074
 108.0928077  83.6013277  95.5458177 107.0664909  83.1643285  96.7607298
 106.5841009  84.2625651  95.6287044 103.9227872  88.7241011  96.0784994
 104.1434495  89.8698822  96.4269385 102.8152179  88.0178758  96.2493941
 102.8552005  87.0283912  96.0508469 101.4989672  88.6192428  96.5535504
 101.5827455  89.6732293  96.8184898 100.6841823  88.5026436  95.2656622
 100.5838674  87.4522279  94.9924156  99.6949310  88.9332710  95.4207179
 101.1918613  89.0391603  94.4640943 100.9384434  87.9736038  97.8123805
 101.5903673  87.1433287  98.4122342  99.6707385  88.3750112  98.0577364
  99.2728742  89.1531552  97.5514803  98.8310577  87.6818312  99.0376969
  99.0955256  86.6256148  99.0883213  99.0516723  88.3063120 100.4128253
  98.8213881  89.3676487 100.5057384  98.3601246  87.7298580 101.0272865
 100.3977967  88.1126966 100.9953544 100.6923756  86.8903818 101.6324955
  99.9257395  86.1156397 101.6444796 101.9475944  86.6550275 102.2477971
 102.0994855  85.7982045 102.9042147 103.0050644  87.5467446 102.0003726
 104.0276921  87.3449269 102.3191234 102.7012605  88.7492109 101.3065664
 103.4939454  89.4891945 101.1962257 101.4328116  88.9984950 100.7731240
 101.2581138  89.8954451 100.1789345  97.3704691  87.8970592  98.5814525
  97.0022452  89.0032197  98.0703654  96.4989494  86.9005223  98.7987553
  96.8970948  86.1263015  99.3107725  95.0780749  86.8101163  98.3787417
  94.9031201  87.5764444  97.6236051  94.6805240  85.4615726  97.8030610
  94.8593095  84.6187249  98.4707007  93.6082721  85.5793046  97.6464878
  95.3394212  85.1676968  96.4604492  96.3935896  85.7095307  96.1592018
  94.8164829  84.1966208  95.6993901  95.2329661  83.9806786  94.8049571
  94.0082368  83.6850731  96.0236711  94.2725014  87.0954634  99.6597875
  94.4244242  86.3974959 100.6743648  93.4164523  88.1377142  99.6469374
  93.3203681  88.5569446  98.7330922  92.7039604  88.7419339 100.7607407
  92.8818714  88.4108786 101.7838972  92.9161684  90.2610575 100.6701035
  92.4862179  90.6234135  99.7363257  92.2461624  90.9674193 101.8464444
  92.6759449  90.6058960 102.7806224  92.4072365  92.0423723 101.7650084
  91.1763533  90.7589305 101.8346097  94.4256769  90.6893897 100.3619448
  94.7291402  90.2941881  99.3924983  94.5042609  91.7765010 100.3513064
  95.3353604  90.1249280 101.4479562  95.2576613  89.0377559 101.4588946
  96.3667712  90.4129290 101.2446182  95.0327803  90.5200674 102.4177035
  91.2298714  88.3632721 100.7607447  90.5232070  88.6582512  99.8041603
  90.7847002  87.5637515 101.7787424  91.3598575  87.5278432 102.6082026
  89.6189690  86.7426662 101.7278841  89.5733389  86.2069718 100.7797024
  89.6692074  85.7148563 102.8711986  90.0107871  86.2090472 103.7807029
  88.6698959  85.3101875 103.0315723  90.6446258  84.5587564 102.5124370
  90.2886431  84.1048572 101.5875842  91.6275474  84.9993175 102.3454844
  90.7444043  83.4869214 103.6011294  89.7778743  82.9887971 103.6772269
  91.5021318  82.7643062 103.2981846  91.0966824  84.0093846 104.8942022
  90.3146677  84.3237752 105.4507190  92.3334962  84.1636263 105.3850159
  93.3837482  83.8775299 104.6445271  93.2559100  83.5399175 103.7012481
  94.3124411  83.9969815 105.0231566  92.4940911  84.5305413 106.5873568
  91.6883275  84.7052055 107.1707413  93.4270691  84.6465305 106.9564061
  88.2777879  87.5982436 101.8005097  88.0163826  88.2387271 102.7888386
  87.3490626  87.3871050 100.8611525  87.7275885  87.0689847  99.9804613
  85.9064595  87.7279012 100.9246765  85.8062719  88.6335295 101.5229232
  85.2405159  87.9660706  99.5552622  85.5858461  87.1208030  98.9599734
  84.1566589  87.9173341  99.6600426  85.6242874  89.2631090  98.8629748
  85.6012713  89.9998592  99.6659506  86.9719795  89.3820035  98.0873614
  86.9955401  88.6458250  97.2838784  87.0617167  90.3828917  97.6651400
  87.8019914  89.2005125  98.7701803  84.5505064  89.6876824  97.8881492
  83.6127559  89.8387347  98.4228516  84.8460595  90.6184309  97.4039418
  84.4170744  88.9125653  97.1335047  85.1248741  86.7174714 101.7788456
  85.3958473  85.5420272 101.7108342  84.1065016  87.0600856 102.5756322
  83.9068600  88.0211359 102.8135922  83.2521643  86.0464008 103.0908757
  83.7951137  85.1178544 103.2672468  82.7044205  86.5594192 104.4360281
  83.5531140  86.8859992 105.0369974  82.0579867  87.4119342 104.2276018
  81.9006231  85.4774196 105.2177445  81.6834227  85.8726537 106.2100725
  80.9662563  85.3021927 104.6844966  82.6563025  84.1772749 105.3486694
  83.8050785  84.2991646 105.8455411  82.2691469  83.0369975 105.0247189
  82.0124107  85.7236679 102.1562162  81.4423031  84.6129734 102.1809553
  81.6286242  86.6686406 101.3424192  82.1818773  87.5118148 101.3978036
  80.5417229  86.6337531 100.4237949  80.1143657  85.6328931 100.3626061
  79.4645362  87.5949568 100.9262112  79.1372328  87.2228814 101.8970519
  79.9422235  88.5665646 101.0522797  78.2729628  87.7359943 100.0150827
  77.6465004  88.5584748 100.3602951  78.6733495  87.9737788  99.0295634
  77.4405495  86.4659661  99.9307827  76.9390666  85.9314749 100.9535105
  77.2224122  85.9655727  98.7634046  81.2024835  87.0850126  99.0725354
  81.7652512  88.1397796  98.9930676  81.3962507  86.1115798  98.1513466
  80.9014086  85.2333993  98.2148267  82.3528247  86.2847963  97.0773279
  83.2182315  86.8394664  97.4399728  82.8279866  84.9210992  96.5538852
  81.9238494  84.5572756  96.0657586  83.6037307  85.0840672  95.8057124
  83.3078004  83.8903376  97.5653689  82.4411457  83.4740378  98.0788911
  84.0497226  82.8101467  96.9039219  84.9168412  83.2256417  96.3905333
  84.3813243  82.0871171  97.6491530  83.4027000  82.3144444  96.1802221
  84.0934185  84.4478649  98.6457801  83.4959639  85.1789626  99.1904299
  84.3974551  83.6503405  99.3237313  84.9792568  84.9347133  98.2378975
  81.5886820  87.1107472  96.0315569  81.0549207  86.6169363  95.0358708
  81.6242740  88.4342164  96.2848123  82.1045958  88.7339855  97.1211907
  80.9216153  89.4558199  95.4740429  80.9980574  89.2060236  94.4158097
  79.4431763  89.5130033  95.8567558  78.9557536  88.7412642  96.4525218
  79.5130320  90.4313564  96.4397205  78.4965899  89.8160670  94.6610436
  78.4447027  91.0872491  94.0810143  77.3153960  90.9742368  93.3489572
  77.0164361  91.8746733  92.8123605  76.7555448  89.7668153  93.4102845
  75.9591190  89.4286456  92.8892787  77.4656218  89.0319804  94.3317504
  77.1205030  88.0389354  94.6195972  81.5291636  90.8130680  95.5504399
  81.6906786  91.3404808  96.6716351  81.9040981  91.2823270  94.3728049
  81.8338860  90.6590217  93.5811862  82.5613091  92.6172932  94.1716083
  81.9691697  93.4331968  94.5860615  83.9763944  92.6429047  94.8308251
  83.8298011  92.5937728  95.9098041  84.8949724  91.4933789  94.3859940
  85.0424162  91.5421269  93.3071126  85.8582878  91.5822452  94.8882157
  84.4364735  90.5395094  94.6467879  84.6379162  93.9666131  94.5339380
  84.0308133  94.7758750  94.9396761  85.6267151  93.9900617  94.9920061
  84.7346442  94.0912390  93.4554145  82.5453794  92.9652969  92.6614131
  83.3203063  92.7566556  91.8416600  81.5124320  93.7570324  92.3361879
  80.9212308  94.1000333  93.0797811  81.2069060  94.1585360  90.9706603
  81.2471124  93.3807866  90.2080407  79.8210231  94.8492432  90.9306557
  79.8055118  95.6354488  91.6854673  79.5383380  95.4507311  89.5698735
  79.5532254  94.6650053  88.8145498  78.5577806  95.9266768  89.5790202
  80.3002550  96.1940497  89.3352268  78.7218588  93.8584017  91.4818844
  78.7600962  92.9484361  90.8830511  78.9714278  93.6226787  92.5164130
  77.2991552  94.4560839  91.4192394  77.0486817  94.6916471  90.3848928
  76.5832460  93.7331399  91.8102958  77.2600140  95.3658917  92.0182533
  82.2815972  95.1629007  90.4669625  82.7733413  95.0026704  89.3582390
  82.7357204  96.0214917  91.3784929  82.3265254  96.0278152  92.3018664
  83.7413481  97.0117186  91.0679954  84.4590614  96.5602739  90.3830250
  83.1778785  98.2999012  90.4165619  82.6031875  97.9161366  89.5736181
  82.5140838  98.8379332  91.0933175  84.2316781  99.2232521  89.9182772
  84.0937446 100.4326283  89.7691042  85.3118526  98.7129080  89.5258323
  84.5198460  97.3426922  92.3692204  84.0488049  97.0851008  93.4827822
  85.7295593  97.8714110  92.2717567  86.1289182  98.0330302  91.3582519
  86.5742305  98.1773632  93.4875181  85.9434597  98.6550487  94.2372140
  87.1513816  96.8671978  94.0868405  86.2977259  96.2582610  94.3844430
  88.0869102  96.0269563  93.1037558  88.9410886  96.6351188  92.8060672
  88.4398143  95.1310564  93.6145615  87.5196050  95.7400802  92.2183358
  88.0530319  97.0535727  95.3053691  87.4908148  97.5388398  96.1031972
  88.4053691  96.0811616  95.6494257  88.9073328  97.6739251  95.0343824
  87.7526293  99.1727011  93.2517537  88.3874496  99.2033196  92.2018681
  88.0055141  99.9965002  94.2619686  87.5270055  99.7491307  95.1163322
  88.8769929 101.1438295  94.2747434  89.6799128 100.9916501  93.5534527
  88.1095139 102.4612898  93.9005677  87.2755061 102.5317273  94.5988290
  88.8072228 103.2781310  94.0851557  87.5768197 102.5558325  92.4495082
  87.0011080 101.6390729  92.3221944  86.8991865 103.4092189  92.4749425
  88.5275605 102.7091433  91.3072273  89.2661687 103.4759385  91.5408551
  89.0343752 101.7628690  91.1180098  87.7418899 103.1216731  90.0666343
  87.2292316 104.0620448  90.2690772  88.4360921 103.2580933  89.2374347
  86.7565286 102.0939638  89.7148022  86.1129086 101.9677067  90.4828596
  86.2467290 102.3838516  88.8925070  87.2313992 101.2226219  89.5267589
  89.5127504 101.4432956  95.6329372  88.8724304 101.2128784  96.6445177
  90.6796733 102.0710116  95.6818208  91.1811609 102.2450268  94.8225604
  91.3272511 102.4598703  96.9712888  91.0207932 101.7679057  97.7557426
  92.8759992 102.4216463  96.8527259  93.1348067 102.8271967  95.8746426
  93.3663613 103.0078811  97.6298834  93.4800075 101.0151416  96.9178297
  93.4486897 100.3092272  98.1321085  92.9571745 100.7707159  98.9885785
  94.0230099  99.0567545  98.2562356  93.9327597  98.5242247  99.2030025
  94.6996389  98.4831960  97.2074150  95.1852570  97.5120304  97.3028740
  94.7574288  99.1900791  95.9719869  95.3019974  98.7583297  95.1322622
  94.1237811 100.4261912  95.8316245  94.1309135 100.9360047  94.8682247
  90.8531682 103.8209271  97.4202141  90.4956716 104.6394683  96.5640269
  90.8159967 104.1250488  98.7099762  90.9952522 103.3487759  99.3307557
  90.4939475 105.4630491  99.3161787  90.0408345 106.0980739  98.5549091
  89.4884921 105.3378784 100.5356182  90.0354273 104.5605077 101.0691496
  89.4522670 106.2401303 101.1461339  88.0352689 104.8465431 100.2472071
  88.0952207 104.0079962  99.5534163  87.3025877 104.4056466 101.5186604
  87.2418315 105.2438517 102.2127928  86.2966662 104.0732855 101.2622259
  87.8473177 103.5857159 101.9867238  87.2060647 105.8415528  99.3466156
  87.7063147 105.9660604  98.3862265  86.2060314 105.4390401  99.1853140
  87.1321020 106.8080294  99.8451649  91.7055768 106.2618717  99.8200753
  92.6831510 105.7457063 100.3672033  91.6533394 107.5725518  99.5569826
  90.8002836 107.9214002  99.1438242  92.7458888 108.5385675  99.8381138
  93.7102501 108.1045849  99.5739820  92.5306352 109.8413725  98.9848366
  91.6286459 110.4097196  99.2117643  93.3985698 110.3608387  99.3909700
  92.6810122 109.7069326  97.4629698  91.6237102 109.4333073  96.5721147
  90.6277758 109.3420737  97.0055780  91.8051495 109.2779069  95.1784306
  90.9931625 108.8938259  94.5609674  93.0982844 109.5085501  94.6009327
  93.3713071 109.3241555  93.2714263  92.6091112 109.0256925  92.7698519
  94.1031259 110.0821432  95.4785879  95.0423903 110.4663508  95.0807597
  93.8508908 110.1373678  96.8553379  94.6041954 110.5413928  97.5316485
  92.7572703 108.9320762 101.3284914  91.7648959 108.8067134 102.0343018
  93.8098343 109.5791634 101.8852616  94.6140567 109.8257252 101.3262152
  93.8145141 109.9421187 103.3179540  94.8138693 110.3374384 103.4999177
  93.0849248 110.7475953 103.4016574  93.5026539 108.8787870 104.3667551
  92.9593764 109.2237537 105.4229357  93.9244560 107.5961001 104.1610970
  94.2970236 107.3881909 103.2456373  93.8577284 106.4879116 105.1704031
  93.3158169 106.8179225 106.0567010  93.1259413 105.2873256 104.5690198
  93.5603605 104.9417567 103.6309573  93.0345572 104.4474002 105.2576955
  91.3873924 105.8176515 104.1682405  90.9921614 104.6437813 103.6837618
  95.2695026 106.1042974 105.5681905  96.2621147 106.2370768 104.8361135
  95.4378348 105.6718439 106.8113133  94.5896752 105.5757882 107.3512188
  96.7185864 105.3438382 107.4592003  97.5118872 106.0501057 107.2143344
  96.4055989 105.4533281 108.9926137  96.0930389 106.4761480 109.2029587
  95.5880920 104.7697451 109.2217355  97.6367034 105.0986608 109.8680690
  97.1637776 105.2789597 110.8334364  97.9386571 104.0534327 109.8015537
  98.8390681 105.9431348 109.7680201  99.4600799 106.2442753 108.7889881
  99.4460176 106.2547080 110.8494731 100.2734580 106.8326728 110.8120518
  99.0950941 105.9213621 111.7359462  97.0832240 103.9297847 106.9918075
  98.2264869 103.5668926 106.9510481  96.0427096 103.1119012 106.4867427
  95.0993654 103.4697995 106.5326756  96.2421361 101.7056512 106.0503244
  97.3027488 101.6080400 105.8186523  95.8805648 100.6851652 107.2078547
  94.8195882 100.7646644 107.4447272  96.1041812  99.6697501 106.8807032
  96.4689076 100.9182665 108.0953319  95.4862250 101.4329007 104.7047157
  94.5793763 102.2019679 104.4107035  95.8911827 100.4650703 103.7912846
  96.7288192  99.3077656 104.1768244  96.1257194  98.6043080 104.7508614
  97.5610546  99.6557425 104.7887028  97.1962497  98.7228409 102.8229386
  97.2008519  97.6341636 102.8764135  98.2013649  99.0792763 102.5975530
  96.1914383  99.2273917 101.7832994  95.5957137  98.3185971 101.6978387
  96.5281299  99.5349451 100.7932745  95.3775053 100.3097273 102.4019462
  95.3627332 101.2431789 101.8393201  93.9488441  99.8501319 102.6587986
  93.6483511  98.9203618 103.4330418  92.9290695 100.4588223 102.0185941
  93.2487758 100.9697066 101.2081100  91.4813826 100.4291822 102.3003566
  91.2819921  99.4746827 102.7874637  91.1303014 101.5762372 103.2916072
  91.3159070 102.5387322 102.8148954  89.6586874 101.4779028 103.6821704
  89.4724005 100.5157939 104.1593950  89.4120658 102.2811133 104.3765261
  89.0387622 101.5664481 102.7900084  91.8187211 101.4502461 104.5050187
  91.5760169 102.1739214 105.0872464  90.7439020 100.7028054 100.9593411
  91.0104708 101.6847680 100.1887157  89.8680363  99.7665310 100.6413228
  89.7917315  98.9643061 101.2501841  89.0894594  99.7897069  99.4643080
  89.3399269 100.5527987  98.7273846  89.0624425  98.4049900  98.7819451
  88.2846546  98.3817588  98.0186583  90.3818946  98.1638714  98.1500575
  91.1601931  98.1864953  98.9128421  90.3793565  97.1886884  97.6631157
  90.5775108  98.9389205  97.4090228  88.5321781  97.2509933  99.6988543
  89.2874692  97.0353753 100.4545956  87.6176745  97.5892701 100.1860415
  88.2374025  95.9662089  98.8818149  89.1516052  95.6270468  98.3946780
  87.8713151  95.1863523  99.5495745  87.4818116  96.1809426  98.1261219
  87.6503828 100.2696363  99.7096877  87.1442425 100.1400519 100.8498626
  87.0677650 100.9305490  98.7224749  87.7061173 101.4287349  98.1188057
  85.6445364 101.1261163  98.5286952  85.0805257 100.7075329  99.3622293
  85.3646993 102.6240478  98.4540415  84.2936148 102.8258063  98.4671112
  85.8441106 103.1557743  99.2759489  85.9932129 103.3683529  96.9455769
  85.5866742 104.6044667  97.2206170  85.2121300 100.2621489  97.3145868
  86.0216071  99.9727936  96.4430793  83.9343056  99.9304211  97.1820561
  83.2372759 100.3783797  97.7596218  83.5088048  98.8941330  96.2797728
  83.8315627  99.1280777  95.2652796  84.1394201  97.5132033  96.7030498
  83.6096969  96.8885308  95.9838302  85.2139373  97.4056618  96.5549019
  83.8394721  96.9623069  98.0445181  84.7673857  97.1774064  99.1059763
  85.6019173  97.8703956  98.9990976  84.5850897  96.4606969 100.3306500
  85.2528745  96.6636083 101.1679021  83.5632079  95.5069785 100.4628950
  83.4006488  94.9422020 101.3808830  82.7019166  95.2856052  99.3095450
  81.9526958  94.4985353  99.3949234  82.8046070  96.0414786  98.1112370
  82.0903755  95.8820736  97.3034230  81.9664571  98.8060455  96.2329440
  81.2401043  99.3982327  96.9868028  81.4904781  98.0760465  95.2050504
  82.1264302  97.9316418  94.4338101  80.1134798  97.6388814  95.0533482
  79.5419563  97.9964410  95.9098592  79.4094325  98.0860356  93.7767858
  79.8111912  97.5214121  92.9354241  77.8658111  97.8387587  93.8817863
  77.4632306  98.4034624  94.7227023  77.3817003  98.1643760  92.9610742
  77.6771148  96.7761665  94.0347343  79.6849301  99.5426653  93.5260427
  80.7585681  99.6965199  93.4177269  79.1794579  99.8566216  92.6127908
  79.3167785 100.1323717  94.3655732  79.9719947  96.1595995  95.2478550
  80.6948156  95.4025151  94.6119091  78.9500076  95.6641541  95.9467435
  78.4552280  96.3743757  96.4672028  78.5196851  94.2227737  96.1122945
  78.7469711  93.6361372  95.2221833  79.3253806  93.6297009  97.3236769
  79.3688735  92.6231009  96.9077877  80.3353125  93.9745585  97.5455123
  78.4905234  93.6140009  98.6221318  78.3593120  94.8010105  99.3252454
  78.7857102  95.7063617  98.8932464  77.6995791  94.8574540 100.5605671
  77.4104652  95.8136749 100.9966364  77.4163501  93.6613613 101.2401991
  76.9574347  93.6938187 102.5132436  76.8620768  94.5858554 102.8549701
  77.6076814  92.4102637 100.5858537  77.3446135  91.4610313 101.0526017
  78.1531567  92.4287753  99.3018295  78.3380619  91.4928062  98.7746938
  77.0139983  94.1124430  96.2856593  76.2948521  95.0895606  96.2185761
  76.5056694  92.8863353  96.5048544  77.1077922  92.0876577  96.3646342
  75.0893543  92.6505955  96.7272218  74.6375987  93.5098647  97.2228756
  74.3839001  92.4343254  95.3793629  74.7295771  93.2330331  94.7231064
  74.7375514  91.4752340  95.0009790  72.8527924  92.4337315  95.4195487
  72.5920828  91.4827808  95.8841176  72.4579583  93.2520216  96.0217192
  72.2217368  92.4917427  94.0585530  72.7238423  92.9418825  93.0412520
  70.9689505  92.1156943  93.8825163  70.5563537  92.1596477  92.9616833
  70.4286314  91.7857025  94.6694484  74.8463246  91.5519735  97.8039150
  75.6509323  90.5812076  97.9118267  73.7782539  91.6791435  98.6113733
  73.3084152  92.5651533  98.7311127  73.3852068  90.5543641  99.4846271
  73.7268352  89.6084240  99.0644051  74.0436602  90.7429722 100.8947576
  73.5552674  89.8786299 101.3447398  75.1184463  90.5680455 100.8464303
  73.7574782  92.0277661 101.7745357  74.7057014  92.5019104 102.4470243
  72.5571585  92.4297387 101.9581105  71.8645154  90.4948334  99.3936337
  71.2692590  91.3534709  98.7578724  71.1687872  89.5140666 100.0920317
  71.7446693  88.3418415 100.7415224  71.9468957  88.6145159 101.7773087
  72.6839750  88.1214190 100.2343560  70.7618107  87.2296631 100.6245173
  70.8914933  86.5063845 101.4295946  70.8564174  86.7238448  99.6636329
  69.4243019  87.9460632 100.7315836  69.1424571  88.2329514 101.7446767
  68.6014736  87.4036602 100.2659097  69.7633125  89.2161488  99.8967373
  69.5927436  88.8641655  98.8793326  68.9801302  90.4723338 100.1277325
  67.9100213  90.6296681  99.5930794  69.3560462  91.3595010 101.1076516
  70.0740604  91.0832771 101.7620638  68.6896908  92.6429709 101.3118882
  67.6137900  92.5085719 101.4235734  69.2453796  93.2781642 102.6074145
  69.3466884  92.4439910 103.3016700  70.2348084  93.6436451 102.3325428
  68.4387555  94.4252468 103.2881531  68.9409064  94.8515129 104.1566245
  68.3783636  95.1753041 102.4995665  67.0062457  94.0217616 103.6956237
  66.6089603  92.8456335 103.7551900  66.2745831  95.0169701 104.1125839
  65.3210219  94.8522553 104.4018788  66.6647398  95.9480282 104.1443643
  68.7289285  93.6989830 100.1772707  67.9340258  94.5812277 100.1968886
  69.7563523  93.7196259  99.3571961  70.4175651  92.9688016  99.4956149
  70.0207423  94.6804238  98.3131255  69.4687988  94.3451681  97.4350246
  69.6140491  95.6318571  98.6558712  71.5128045  94.8779296  97.9274500
  72.3021898  94.2678245  98.5615908  71.7608363  95.6321083  96.8339131
  70.8829315  95.8399469  96.3798366  73.0078758  96.0983800  96.1940020
  73.7594577  95.3267484  96.3607607  72.9226022  96.3932306  94.6455946
  72.3860515  95.5674915  94.1782965  72.3565192  97.3151822  94.5127209
  74.3116522  96.5428021  93.9866065  74.6774491  97.4951885  94.3703430
  74.8920365  95.7292791  94.4218495  74.4613042  96.5159534  92.4426125
  73.8258844  97.2753303  91.9868852  75.4987730  96.6931783  92.1591532
  74.0590515  95.2126249  91.9444913  73.8250370  94.4985661  92.6193666
  74.0107863  94.9088368  90.6702683  74.4914026  95.6496804  89.7675209
  74.9376910  96.5205291  90.0176193  74.4271727  95.3677573  88.7997949
  73.4338012  93.8376512  90.3192605  73.0220881  93.2367691  91.0189269
  73.3881032  93.5893357  89.3413291  73.5028534  97.3557000  96.9494389
  72.7924064  98.3439285  97.0225515  74.7298918  97.3447824  97.3729333
  75.3652515  96.6957167  96.9311967  75.2466897  98.2218578  98.3788417
  74.6017408  99.0895462  98.5176113  75.2963327  97.4327057  99.6934342
  76.0789048  96.6968205  99.8782400  75.4615466  98.3047163 100.3262073
  73.9542513  96.7860449 100.1649385  72.6137172  97.2837239 100.0599908
  71.7818020  96.5143326 100.7903806  70.7064518  96.6916796 100.8067783
  72.5599844  95.5558139 101.4357248  72.2370322  94.8340403 102.0640914
  73.9042075  95.7603659 101.0613605  74.6896345  95.1360848 101.4873638
  76.6564038  98.6509998  98.0486504  77.4840133  97.7937222  97.7146013
  77.0162198  99.9439317  98.2048476  76.2807670 100.5523113  97.8745705
  78.3954194 100.5424554  98.4430573  79.1242187 100.0203955  97.8230539
  78.5522177 102.0460226  98.2197975  78.2040141 102.2801156  97.2137886
  77.7709509 102.8425163  99.2151874  78.1189268 102.6092891 100.2214771
  77.9104839 103.9058524  99.0203867  76.7130806 102.5938811  99.1303780
  80.0747245 102.3052794  98.2780014  80.5719227 101.7297827  97.4971689
  80.2691107 103.3669476  98.1257701  80.4584404 102.0022094  99.2521737
  79.0521810  99.9346974  99.7401253  78.3869393 100.1189398 100.7617741
  80.3066810  99.4722647  99.7427362  80.8240177  99.3895252  98.8792455
  80.9114499  98.9210175 100.9808610  80.5390989  99.4814635 101.8383889
  80.5625261  97.4109379 101.1815072  79.4835662  97.3077225 101.0662197
  81.0667459  96.8524392 100.3928745  80.9923749  96.8500502 102.5714180
  82.0536286  96.6022776 102.5501987  80.8108608  97.6029985 103.3383753
  80.1719617  95.5772559 102.8938444  79.1198693  95.8607147 102.9230280
  80.3336979  94.8657811 102.0840640  80.5636514  94.9310539 104.2268839
  81.4005254  94.2540447 104.0554171  80.8675303  95.7151985 104.9203346
  79.4265327  94.1744535 104.8043153  79.1450766  93.4475215 104.1620910
  79.7089540  93.7588541 105.6804519  78.6511077  94.8016853 104.9636747
  82.4848088  99.2428746 100.9588634  83.0358735  99.4559256  99.8960003
  83.0874205  99.2272138 102.1962170  82.5241737  99.0929639 103.0237612
  84.5431964  99.4948312 102.3682588  85.0384181  99.3436574 101.4090919
  84.8468819 100.9055004 102.8558219  85.9287424 100.9469723 102.9821475
  84.4112230 102.0153652 101.9939645  83.3293382 101.9748246 101.8675470
  84.6873869 102.9638296 102.4546683  84.8937053 101.9309058 101.0202201
  84.1962795 101.0480807 104.0950275  84.3602887 101.9275492 104.4432176
  85.1966780  98.4940956 103.2991455  84.5946043  97.9158802 104.1907486
  86.4796296  98.2731192 103.1400517  86.8852340  98.7410755 102.3421787
  87.3481158  97.4963666 103.9923339  87.0211908  97.5438672 105.0310653
  87.2908157  96.0974844 103.5454689  87.4414028  96.2646546 102.4789433
  88.1812470  95.6330648 103.9691982  86.0758273  95.1660933 103.7539200
  85.2859314  95.2832994 104.9275934  85.5732352  96.0003157 105.6966471
  84.1570820  94.4953409 105.1006868  83.4579097  94.7105364 105.9087405
  83.8239532  93.5711959 104.1244956  82.7921688  92.7124475 104.3306368
  82.3670564  92.8345175 105.1826802  84.6404127  93.3458693 102.9973232
  84.4165371  92.5887244 102.2458502  85.8066644  94.1638545 102.8633894
  86.5001552  93.9935647 102.0398775  88.8014932  97.8958053 103.9152043
  89.3244461  98.2180605 102.8729851  89.4910863  97.6563517 105.0605359
  88.9138496  97.4582409 105.8653025  90.9531090  97.7402002 105.2511768
  91.4155906  98.4011515 104.5181329  91.1932853  98.3373360 106.6901063
  90.8268539  99.3633490 106.6565720  90.5717635  97.7520738 107.3678074
  92.6220092  98.3288323 107.1832654  92.8546912  97.2667761 107.1058287
  93.2956791  98.8956413 106.5406180  92.8002907  98.7926055 108.6589023
  92.3913894  99.9380294 109.0331025  93.5212835  98.0036097 109.3905039
  91.5662514  96.3383467 105.0263566  91.0907706  95.3569384 105.5371254
  92.6745062  96.2453432 104.3283510  92.9589574  97.0756082 103.8285042
  93.4083950  95.0270759 104.1019815  92.6399875  94.2617026 103.9931109
  94.2893590  95.0359137 102.8141130  95.0590888  95.8023098 102.9049545
  94.9578301  93.6529418 102.6378028  94.1886730  92.8860337 102.5464228
  95.5734252  93.6583901 101.7382955  95.5833226  93.4380433 103.5042204
  93.3269457  95.2341250 101.6580931  92.7985542  96.1793345 101.7825252
  93.8827205  95.2498409 100.7205607  92.6071516  94.4158027 101.6394977
  94.2454080  94.5929007 105.3545925  95.2477000  95.2163931 105.6797401
  93.8236856  93.5084556 106.0493053  92.9092208  93.2175297 105.7343203
  94.3949941  92.8404505 107.1555172  94.9215035  93.5712064 107.7694249
  93.3389104  92.1217745 108.0363578  92.5492506  92.8411065 108.2533788
  92.9291614  91.2989153 107.4506031  93.8535762  91.6315815 109.2216168
  93.1552588  91.2003355 109.7195923  95.4959516  91.8885028 106.6882901
  95.2766349  90.6699127 106.7062976  96.6379752  92.3357372 106.1785759
  96.8124020  93.2840277 106.4792749  97.4987937  91.7718467 105.2447109
  96.9086684  91.3748659 104.4187221  98.4668609  92.7458309 104.7068758
  97.8129551  93.5318375 104.3291193  99.0549048  93.1320376 105.5394315
  99.4232109  92.2752672 103.5700876  99.8766481  91.3379291 103.8924115
  98.7126620  92.0638642 102.2114883  98.2593437  93.0009502 101.8882683
  99.4393765  91.7368808 101.4678023  97.9381326  91.3046643 102.3202090
 100.6113875  93.1612265 103.3034894 101.2215416  93.2323412 104.2039083
 101.2066002  92.7379555 102.4943759 100.2672643  94.1555661 103.0189425
  98.2416677  90.5009593 105.6770806  98.3378626  89.5384534 104.8763048
  98.7135926  90.5146852 106.8925388  98.7063461  91.4045654 107.3701999
  99.2842472  89.3673478 107.5806465 100.1449551  88.9866016 107.0308161
  99.7401260  89.7832036 108.9684388 100.2258110  90.7553294 108.8836990
  98.8550728  89.8734773 109.5982256 100.7290237  88.7630440 109.6064708
 100.2481523  87.7901245 109.7079166 101.6181416  88.6651189 108.9835888
 101.1322289  89.2828092 110.9969713 101.9909616  88.7132145 111.3522725
 101.4033191  90.3354716 110.9162772 100.0360276  89.1499760 111.9802022
  99.2309683  88.6895144 111.5802599  99.9769214  89.5341466 113.2030536
 101.0051503  90.1462027 113.7329608 101.8326156  90.3102228 113.1775342
 100.9664344  90.4516853 114.6948761  98.8956129  89.2875168 113.8801759
  98.1268845  88.8029319 113.4393422  98.8289710  89.5815680 114.8441216
  98.3543934  88.1721409 107.7200430  98.6895461  87.0061274 107.4853641
  97.1756249  88.4105138 108.2170099  96.9339672  89.3357384 108.5420641
  96.1678785  87.3554250 108.3167243  96.6234257  86.4168984 108.6325465
  95.1232617  87.7689823 109.3608939  94.9625649  88.8421955 109.2584768
  94.1988798  87.2399566 109.1290534  95.5534156  87.4458569 110.8229293
  94.8429704  88.0581557 111.3783200  95.4148285  86.3979297 111.0889015
  97.0023274  87.8830109 111.1781221  97.8750940  87.0054986 111.2034133
  97.1198828  89.0819159 111.5678868  95.4324828  87.0948531 106.9911108
  94.5997910  86.1445100 106.9049806  95.6736987  87.8648515 105.9293903
  96.1725785  88.7214661 106.1228578  95.0232666  87.7172675 104.6173754
  95.1551178  88.6167883 104.0160629  95.6894845  86.5097560 103.8666406
  95.3415770  85.6237743 104.3977679  95.2549451  86.5275857 102.8671620
  97.2338440  86.4723433 103.7571376  97.4505618  86.1969731 102.7250013
  97.5679825  87.4940024 103.9378755  97.9787286  85.5078168 104.7164741
  98.8475294  86.0044520 105.1484901  97.3118577  85.1832781 105.5152590
  98.4429376  84.2736375 103.8968757  98.9303588  84.5832428 102.9723945
  99.1275879  83.6568683 104.4790688  97.2946917  83.5357582 103.5935020
  96.6603330  84.1069512 103.0536620  97.5512276  82.7189324 103.0576989
  96.8431188  83.2484102 104.4500137  93.4893659  87.7858023 104.4986921
  92.8697831  87.0449520 103.7833383  92.8576077  88.7206444 105.2904256
  93.4439121  89.2169125 105.9462185  91.3892776  88.8990320 105.3859428
  90.9389502  88.6382103 104.4281972  90.7757945  88.0331960 106.4590348
  89.7042550  88.0779914 106.2643669  91.1425123  87.0301314 106.2411370
  91.0411881  88.3648619 107.9297574  92.1294301  88.4166361 107.8958523
  90.6427589  89.3218248 108.2667669  90.6278487  87.3010070 108.8692942
  89.9324005  87.6452596 109.8124235  91.1707678  86.1600722 108.7638058
  91.0664849  90.4017989 105.4777987  91.9736604  91.2488930 105.3415917
  89.7441086  90.8165851 105.5680997  88.9915000  90.1440467 105.6051365
  89.4056732  92.2380699 105.6056830  90.2204508  92.8533242 105.2239778
  88.2093421  92.4264569 104.7231094  87.5689114  91.5699897 104.9338502
  87.6535035  93.3472954 104.8997444  88.5239118  92.3823598 103.2053574
  89.3401599  93.4252075 102.6751228  89.8371090  94.1802682 103.2842408
  89.4782560  93.4419075 101.3464680  89.9972060  94.2915599 100.9027537
  88.9786369  92.4069491 100.5194222  89.2778598  92.3104815  99.4757462
  88.0581242  91.4738679 101.0877777  87.4963744  90.8136173 100.4270157
  87.8761972  91.4018698 102.4471731  87.2565187  90.6127466 102.8730638
  89.0896516  92.6670669 107.0421275  88.8131659  91.9598961 107.9944920
  89.1415936  93.9838476 107.2168149  89.4988721  94.5230726 106.4411295
  88.7592201  94.7091507 108.4686459  88.2250465  94.0311698 109.1343031
  89.9868379  95.2308251 109.1913101  90.7611450  95.2667262 108.4249819
  89.8394620  96.2283648 109.6051880  90.4470386  94.3095430 110.3013716
  89.6736879  93.8827643 111.1436890  91.6869623  94.0210292 110.4544177
  91.9701603  93.4040591 111.2022457  92.3745423  94.4121114 109.8264136
  87.8010184  95.8825943 108.1360641  87.6411100  96.2293796 106.9540314
  87.2159046  96.6157064 109.0867799  87.2505648  96.2288383 110.0191055
  86.4344606  97.8635695 108.8692478  85.5538755  97.6633715 108.2588464
  85.9646964  98.4171291 110.2612360  85.5346932  97.5792506 110.8100130
  86.8544726  98.7727591 110.7807798  84.9647003  99.5208312 110.1758047
  85.2963372 100.2419064 109.4286980  84.0028204  99.1045875 109.8764217
  84.8216425 100.2052950 111.5011895  83.8745108 100.7446207 111.5141643
  84.8189171  99.4483771 112.2855154  85.9964081 101.2088713 111.7493558
  86.0764763 101.2924199 112.8331958  86.8839138 100.7122377 111.3571978
  85.8888726 102.5252427 111.1730926  85.0667870 102.9857688 111.5366731
  86.7093630 103.0644864 111.4099717  85.8150992 102.4480692 110.1687516
  87.2336438  98.8671341 108.0502666  88.3824714  98.9802046 108.4349277
  86.6740488  99.6271605 107.0984434  85.7673349  99.3288329 106.7683375
  87.2591252 100.8218624 106.5173567  88.3465533 100.7559137 106.5527134
  86.9354448 100.9260710 105.4817549  86.8030079 102.0700652 107.3166606
  86.7207485 102.0676611 108.5314563  86.5512587 103.1905056 106.6458120
  86.7499959 103.4782612 105.2469824  85.9246709 103.0067671 104.7134731
  87.6868585 102.9995291 104.9620209  86.7858110 104.9625239 105.0544863
  85.8768895 105.2910795 104.5504903  87.6530049 105.2355127 104.4531933
  86.8868829 105.5409121 106.4313554  86.4021066 106.4958465 106.6343113
  87.9461616 105.6120476 106.6782725  86.2447598 104.4618248 107.2442155
  86.7516616 104.4446795 108.2090237  84.7719842 104.8412084 107.4477275
  84.4579026 105.5836205 108.3987637  83.8796461 104.4192563 106.4755577
  84.1830074 104.0453013 105.5877351  82.4355572 104.6539808 106.6799808
  82.2142775 104.8304220 107.7325980  82.0359560 105.9024418 105.8782564
  80.9620700 105.9328890 105.6940255  82.3152478 106.7277270 106.5332377
  82.7153122 106.1596216 104.5392557  83.6380471 107.1102476 104.3157730
  83.8473503 107.7872193 105.1440249  84.1204212 107.0145914 103.0699058
  84.9246845 107.5392374 102.7568456  83.4404238 106.0912470 102.3311436
  83.4144333 105.6512155 100.9879672  84.0109968 106.2722910 100.3197787
  82.6888341 104.5263411 100.5729799  82.6951097 104.1364810  99.5551049
  81.9130660 103.8774802 101.5449415  81.2840947 103.0250360 101.2883609
  81.9249526 104.3089562 102.8792928  81.3178536 103.6951781 103.5447309
  82.6389180 105.4632191 103.3217749  81.4861616 103.4907304 106.3896066
  81.8578053 102.5704469 105.5790708  80.3394508 103.5069089 107.0105209
  80.1644932 104.2997325 107.6112870  79.3050679 102.4068249 106.9567691
  79.7164632 101.4626057 107.3135646  78.1048802 102.8253731 107.9019547
  78.5381998 103.3336681 108.7633313  77.4852864 103.5254001 107.3414498
  77.2580411 101.6719825 108.3735168  76.9902742 101.0840162 107.4956231
  77.8726397 101.0680088 109.0410394  75.9549099 102.1152631 109.1221397
  75.3816166 102.6812388 108.3879018  75.4303197 101.1889431 109.3563102
  76.1177282 102.9697422 110.4306845  76.6032413 102.3669819 111.1981854
  76.7295417 103.8460759 110.2166224  74.7951308 103.4005861 110.9097311
  74.2282000 102.5887000 111.1085531  74.9039990 103.9493363 111.7506360
  74.3452511 103.9594889 110.1988618  78.8403038 102.1338816 105.5069521
  78.6580489 103.0572032 104.6895131  78.4515885 100.8842196 105.2173174
  78.8109180 100.1741876 105.8392790  77.7562962 100.4574876 104.0102262
  78.3079385 100.8000729 103.1347690  77.6269332  98.8236583 103.9419913
  77.1761234  98.5744096 102.9813952  78.6372347  98.4168026 103.9851126
  76.7662177  98.2077441 105.0982230  77.3390071  98.3448381 106.0154026
  75.7997242  98.7019948 105.1967551  76.5377528  96.7560922 104.8944773
  77.2841361  95.8972970 105.2469426  75.4759347  96.3601810 104.2228727
  75.3119065  95.3740249 104.0790244  74.8307643  97.0446179 103.8549015
  76.4508294 101.1736812 103.7507092  75.6001854 101.4279378 104.5877584
  76.1708389 101.4845142 102.4577679  76.9057686 101.2874047 101.7935950
  74.9704206 102.2369837 101.9833024  74.1982447 102.1574852 102.7484975
  75.2340463 103.7197476 101.7063666  75.7013369 104.1325384 102.6004262
  75.9365983 103.7683420 100.8744054  73.9900567 104.5259843 101.3666884
  74.1930992 105.4993635 100.9201378  73.5471275 103.8687861 100.6183546
  73.0250948 104.6933536 102.5278904  72.0873872 103.8789287 102.5123855
  73.3053643 105.4569865 103.4676844  74.2582578 101.5240556 100.7576847
  74.9412740 101.1385995  99.8103466  72.9819204 101.3592275 100.7742858
  72.5146567 101.6387472 101.6249518  72.1961788 100.7516243  99.7318533
  72.6456967  99.8084861  99.4211715  70.7750930 100.4707930 100.2548467
  70.7971553  99.8935786 101.1792038  70.3562332 101.4573813 100.4530886
  69.9023739  99.7726149  99.2811538  69.0239526 100.3501319  98.6305333
  70.1358582  98.4890301  99.0396542  69.5565093  97.9887741  98.3807167
  70.8918667  98.0181031  99.5158682  72.1702433 101.6112151  98.4935193
  71.9529363 102.8455702  98.5642597  72.4428336 101.0251407  97.3569489
  72.7612345 100.0677960  97.4039722  72.4379897 101.7000625  96.0373098
  72.0576035 102.7200326  96.0926866  73.9216210 101.7421377  95.4786857
  73.8668333 102.2104427  94.4959406  74.9227320 102.4875569  96.3379330
  74.9784160 102.0195182  97.3207555  75.9040047 102.4550812  95.8644887
  74.6069205 103.5250332  96.4475123  74.5507125 100.3759243  95.2408499
  73.9560566  99.8231679  94.5135626  75.5638357 100.5032774  94.8594548
  74.5831843  99.8220035  96.1790494  71.4527036 101.0705440  95.0596750
  70.9166682  99.9509405  95.3190473  71.1959110 101.7731983  93.8874769
  71.6593844 102.6567732  93.7306741  70.2715127 101.2903302  92.8743268
  69.2365637 101.4149167  93.1928517  70.4989989 102.1279428  91.5984642
  70.3894495 103.1717489  91.8926869  71.5280714 101.9440966  91.2897404
  69.5240559 101.8152386  90.3940460  69.7103602 100.8153799  90.0020332
  68.4999691 101.8755084  90.7624385  69.7268207 102.8459132  89.2798713
  69.7727121 102.3571272  88.1398992  69.8052453 104.0694886  89.5394201
  70.5633859  99.7838457  92.6224609  71.7410090  99.2876401  92.6412992
  69.5044335  98.9703972  92.3703218  68.5762912  99.3626613  92.3011828
  69.6569017  97.5314262  92.2287700  70.0812778  97.0679368  93.1193775
  68.1645843  97.0306732  92.0601251  67.7290040  97.4791769  91.1672565
  68.1538614  95.9450657  91.9629567  67.5819316  97.3225073  92.9338801
  70.5617025  97.0992156  91.0227378  70.9062300  95.9699820  90.9379834
  70.8776113  98.0184412  90.1139689  70.5630206  98.9600113  90.2999200
  71.6485508  97.7780464  88.9166475  71.8591734  96.7141794  88.8074491
  70.8742180  98.2309537  87.7372028  70.7753546  99.3099007  87.8563606
  71.5099036  98.0175753  86.8778580  69.4847300  97.6108122  87.5131640
  69.0611189  97.9690741  88.4514085  68.9130706  98.0167212  86.6785727
  69.4226384  96.0527026  87.4764742  70.4195353  95.4688002  87.0215791
  68.2801966  95.5588834  87.6603530  72.9751778  98.4780519  88.7744948
  73.6453415  98.2501150  87.7726089  73.3037116  99.2935418  89.7659163
  72.5853280  99.4632664  90.4552769  74.6055274 100.0522168  89.8858539
  74.6615181 100.8050554  89.0995980  74.6132427 100.7610113  91.2435725
  74.5668021 100.0196792  92.0413006  75.5280416 101.3451163  91.3438948
  73.7503829 101.4233802  91.3131399  75.7955017  99.1454373  89.6824275
  75.9166735  97.9804207  90.0980987  76.8007144  99.6726152  88.9688192
  76.8068357 100.6511211  88.7186433  77.9451764  98.7942647  88.4779952
  77.9622512  97.8807748  89.0724224  77.8112485  98.4120126  86.9918186
  77.8540887  99.3296578  86.4051404  78.6573849  97.7757175  86.7324315
  76.5945463  97.7234194  86.7087087  76.5588242  97.5080533  85.7738605
  79.3387877  99.4341700  88.6479563  80.3262179  98.7829251  88.2587450
  79.5047203 100.6412825  89.0810601  78.7059472 101.1761306  89.3908963
  80.8454623 101.2802886  89.1375223  81.5808363 100.5015838  89.3398658
  81.2467885 102.0108938  87.8490467  80.4750184 102.7617181  87.6795386
  82.1924840 102.5060303  88.0695005  81.4012164 101.1594889  86.6106757
  82.2858651 100.5414448  86.7640347  80.5184379 100.5223907  86.5567316
  81.5746343 102.0746468  85.0480339  79.8159042 102.3270986  84.8469110
  79.4292101 102.8881017  85.6977002  79.6311129 102.8860196  83.9295452
  79.3137690 101.3612812  84.7907119  80.9580698 102.3533096  90.2753529
  79.9585343 102.9701195  90.5558229  82.1515772 102.5857259  90.8111476
  82.8640041 102.0651670  90.3196542  82.5301185 103.3034592  92.0100513
  81.9044275 104.1906504  92.1075277  82.3413250 102.4192101  93.2789207
  81.2834408 102.1704820  93.3632694  83.1504190 101.1527797  93.2175770
  84.2085256 101.4007170  93.1336816  82.9848898 100.5709774  94.1243331
  82.8450254 100.5675583  92.3501945  82.8246697 103.3060425  94.4506443
  82.2198800 104.2117834  94.4949703  82.7254665 102.7573392  95.3872248
  83.8697209 103.5747736  94.2965260  83.9059107 103.8915946  91.8586850
  84.7769190 103.3987129  91.1988965  84.0993746 105.1467217  92.2873594
  83.2959980 105.4613965  92.8123977  85.1507493 106.1065280  91.9955647
  86.1251327 105.6505112  91.8202795  84.7510478 106.9705379  90.7587881
  83.7586329 107.3947185  90.9113789  85.7470299 108.0774653  90.5947590
  86.7396840 107.6540311  90.4416511  85.4754335 108.6864886  89.7325370
  85.7516911 108.6984323  91.4905700  84.5718407 106.1910638  89.4450803
  84.9762584 106.8042967  88.6397900  85.1503633 105.2708052  89.5259201
  83.1338259 105.8552458  89.1464675  82.5547264 106.7750880  89.0650188
  83.0760568 105.3057469  88.2068862  82.7288306 105.2415981  89.9511507
  85.4576675 106.8623441  93.3411342  84.5098883 107.3869868  93.9041577
  86.6854962 106.7936162  93.8409394  87.3566121 106.3151372  93.2571924
  87.1295851 107.2782539  95.1718280  86.3189251 107.3087351  95.8998393
  88.1726092 106.3613159  95.6663482  88.9954263 106.3271895  94.9522702
  88.5419129 106.7154876  96.6287813  87.7527889 105.3623308  95.7841563
  87.5980350 108.7116714  95.0165184  88.4981030 109.0321729  94.2520530
  86.8611712 109.6290215  95.6543792  86.0472836 109.3062370  96.1578636
  87.1062575 111.0671352  95.5835007  87.4741974 111.3014859  94.5846017
  85.8226484 111.8621956  95.8307147  85.4985298 111.6605929  96.8516960
  86.0033488 113.3210640  95.6494157  86.3270409 113.5235019  94.6284635
  85.0586808 113.8309653  95.8383691  86.7574965 113.6838529  96.3478046
  84.7453956 111.4722790  94.8737212  84.5219311 110.4117654  94.9898097
  83.8482139 112.0565960  95.0780204  85.0783261 111.6633548  93.8535505
  88.2193580 111.6182511  96.5246598  88.1409825 111.3581127  97.7559174
  89.1869042 112.4487048  96.0712801  89.4651606 112.9402351  94.6962538
  88.8832569 113.8490060  94.5425533  89.1342950 112.1745359  93.9945903
  90.9400324 113.1828193  94.6223898  91.1738916 113.9021257  93.8375285
  91.4746781 112.2521041  94.4325885  91.2772089 113.7289860  95.9891382
  91.1937907 114.8090042  96.1103861  92.2897872 113.4128783  96.2398587
  90.2213488 112.9901829  96.9435236  90.7626734 112.1357138  97.3496623
  89.7172717 113.8647552  98.0904741  88.7559817 114.6148345  97.9336026
  90.4437431 113.8642620  99.2466199  91.2127978 113.2099779  99.2704198
  90.3086090 114.8539955 100.3829422  89.3339089 114.7989234 100.8677371
  91.4372948 114.4283651 101.4478141  92.3854576 114.6011424 100.9386632
  91.3321771 115.1370654 102.2692726  91.4072915 112.9992265 101.9996715
  91.2696864 112.3394682 101.1430008  92.3413619 112.7500393 102.5031766
  90.2310643 112.8194366 102.9806833  89.4247149 111.8433672 102.9963728
  89.9875461 113.7286196 103.8227090  90.7510928 116.3337268  99.9528477
  91.6503519 116.4087191  99.1149412  90.1371266 117.3910382 100.5974190
  90.5917370 118.7266208 100.1670116  90.6748721 118.7411456  99.0802836
  91.5674978 118.9297776 100.6082793  89.5070809 119.6748035 100.6866228
  88.7243345 119.8075841  99.9397785  89.9355114 120.6446384 100.9395439
  88.9663735 118.9612829 101.9529627  87.9137447 119.1876708 102.1227278
  89.5485534 119.2703657 102.8210836  89.1405031 117.4856773 101.7171257
  89.6088231 117.0875020 102.6172540  87.8915251 116.7334559 101.4356687
  87.3326151 116.1829355 102.3855460  87.3170570 116.6557121 100.2540870
  87.7605760 117.0390413  99.4316219  85.9889046 116.0408604 100.1076301
  85.3069492 116.5772962 100.7673821  85.4046890 116.0604105  98.6671375
  86.3583924 115.7425012  98.2458503  84.6298464 115.3449962  98.3916355
  85.0428298 117.3833614  97.9838689  84.6647904 118.4793491  98.7238062
  84.7338110 118.4311127  99.8105487  84.1958481 119.6474076  98.1012137
  83.9275175 120.5316284  98.6793598  84.0710191 119.6607076  96.6470487
  83.8307422 120.5676253  96.0921909  84.2666026 118.4834110  95.9806487
  84.0644700 118.4930274  94.9095978  84.7039162 117.3002323  96.6032922
  84.7707253 116.3754132  96.0302772  85.8153301 114.4770798 100.5458175
  85.0990282 114.2117467 101.4956839  86.6526740 113.5799314  99.9572482
  87.3129898 113.8331218  99.2361538  86.5969668 112.1940171 100.3830701
  87.4251246 111.6527476  99.9255975  86.6939907 112.1560624 101.4680794
  85.2570775 111.5143931  99.9697278  84.4204951 111.9674087  99.1978723
  85.2350306 110.2565210 100.4085565  85.9343466 109.9023374 101.0454320
  84.1682912 109.3420451  99.9631253  84.1742196 108.5095242 100.6666685
  83.2357634 109.8970161 100.0655870  84.2679293 108.7798542  98.5098419
  85.3879066 108.7166516  97.9761058  83.1490808 108.3824516  97.9098634
  82.2802285 108.5026611  98.4106077  83.1010152 107.8208569  96.5810078
  83.9649506 108.1605396  96.0097545  83.1155031 106.2878181  96.6265192
  82.2512722 105.9322799  97.1875875  83.0762464 105.8932789  95.6111878
  84.0293003 105.9468743  97.1131722  81.7784535 108.2273450  95.8207402
  80.6877425 108.1751301  96.3646392  81.9724808 108.5539251  94.5606351
  82.9367957 108.7178990  94.3090229  80.9824914 108.6000435  93.5247456
  80.1305178 109.1925395  93.8581952  81.6249368 109.2728080  92.2701664
  82.5251583 108.7288673  91.9841067  80.5912379 109.2435611  91.0769158
  79.6908741 109.7877378  91.3620778  81.0356906 109.7122843  90.1989288
  80.3325581 108.2104437  90.8448547  81.9495991 110.7121754  92.6476596
  81.0067410 111.2533897  92.7264402  82.4407200 110.6954367  93.6206034
  82.8467909 111.4047363  91.6409764  82.3561100 111.4222750  90.6678245
  83.0402062 112.4262964  91.9682451  83.7900887 110.8643202  91.5619861
  80.6873102 107.1569535  93.1700342  81.5367935 106.3022566  93.1276988
  79.4137078 106.8842177  92.9690337  78.7818383 107.5894223  93.3204974
  78.8390616 105.6126600  92.4669014  79.4781073 104.9980960  91.8328425
  78.2115390 104.7304864  93.5777025  77.2815232 105.1861272  93.9176474
  77.9264314 103.3485612  93.0354161  78.8561061 102.8920704  92.6956782
  77.4858085 102.7335458  93.8200869  77.2315067 103.4221871  92.1989008
  78.9132051 104.7402140  95.0083374  79.1341692 103.7094229  95.2853667
  79.8440512 105.3013801  94.9263750  78.0319731 105.3735064  96.0741140
  77.1010689 104.8125698  96.1569824  78.5514898 105.3579015  97.0322153
  77.8109489 106.4045269  95.7979892  77.8694717 105.8638677  91.2585090
  77.3066702 106.9170927  91.1470972  77.6879816 104.9397764  90.3402031
  78.0634965 104.0246422  90.5442066  77.0483991 105.1669819  88.9902795
  76.5129324 106.1156799  88.9535807  78.0593146 105.1153159  87.8666940
  78.7719717 104.3304241  88.1200023  77.4571376 104.8340723  86.4620966
  76.7446786 105.6188496  86.2078775  78.2560475 104.8153081  85.7208195
  76.9476810 103.8704981  86.4709207  78.9007471 106.5045310  87.8606935
  78.1619245 107.2619902  87.5989733  79.2035612 106.6366990  88.8994113
  80.1411098 106.6509499  86.9375783  79.8389812 106.5193585  85.8985875
  80.5754906 107.6423302  87.0663326  80.8806173 105.8940653  87.1990243
  75.9359959 104.0764913  88.9046088  76.2422355 102.8928114  88.8936014
  74.6869752 104.5123390  88.7122185  74.5920458 105.5178676  88.7124347
  73.4832289 103.7005495  88.5080063  73.5653287 102.7949879  89.1091027
  72.6148757 104.2739285  88.8325040  73.3054946 103.3183810  87.0753274
  74.2007128 103.0094021  86.2659841  72.0049847 103.1429890  86.7136124
  71.2453467 103.0591942  87.3739364  71.6739792 103.1004484  85.2119281
  72.4947655 103.4824031  84.6048698  71.4525916 101.6344982  84.8639933
  72.4045396 101.1194046  84.9927285  70.7256415 101.2355913  85.5714655
  70.9352684 101.4149288  83.4073372  70.5935277 100.4042417  83.1841208
  70.0931168 102.1043033  83.3469586  71.9810845 101.8234301  82.3563608
  72.9350939 101.1258653  81.9980447  71.7918003 102.9404241  81.6575791
  72.4710380 103.2199977  80.9643431  70.9698063 103.5032717  81.8238016
  70.3864061 103.9065564  84.9618572  70.2675588 104.3699857  83.8464440
  69.6431538 104.2256225  86.0069347  69.7315613 103.7247641  86.8795310
  68.7414058 105.3923143  85.9583764  68.5364053 105.7170963  84.9382830
  67.4233533 104.9075181  86.5954599  67.6760100 104.6419463  87.6219760
  66.7637552 105.7752899  86.5970575  66.7404271 103.7730214  85.9488016
  66.5066632 104.0786427  84.9289728  67.3858383 102.8949550  85.9255016
  65.4540072 103.4362045  86.6836528  65.2452217 102.2487227  87.0835599
  64.5991069 104.2840949  86.8585224  69.2161020 106.5639747  86.8185039
  68.4589225 107.5388908  86.9627773  70.3805496 106.5814760  87.4192912
  70.9782567 105.7922637  87.2193175  70.8043547 107.5458855  88.5089794
  70.6458395 108.5693090  88.1690140  69.9620951 107.3160362  89.8444382
  70.0044139 108.2060393  90.4722940  68.9234941 107.0940883  89.5991892
  70.5302922 106.2134320  90.5452307  70.0360636 106.0591041  91.3536371
  72.3312368 107.6019170  88.7549419  73.1074514 106.7797150  88.2599634
  72.7541705 108.6566923  89.5068636  72.1072507 109.4264200  89.6023276
  74.1265435 108.8344552  90.0018530  74.6387506 107.8875973  90.1727423
  75.0723357 109.8078161  89.1115588  74.5012497 110.7152755  88.9153993
  76.4554814 110.1903555  89.8027026  77.0273670 109.2833782  89.9987630
  77.0250659 110.8423796  89.1404800  76.2618686 110.7074579  90.7424995
  75.3252563 109.3342528  87.6622259  75.7527093 108.3365391  87.7619867
  74.3350801 109.2614246  87.2123964  76.2275317 110.1879969  86.7716080
  77.2180891 110.2609014  87.2205856  76.3084072 109.7270065  85.7872065
  75.8004606 111.1857883  86.6709971  74.1309251 109.2086233  91.4955387
  73.2369414 109.9487598  91.9761395  75.1203724 108.6789040  92.2113330
  75.8513820 108.1327644  91.7783712  75.1223287 108.8092952  93.6721411
  74.4005534 109.6138684  93.8128589  74.5872602 107.5419042  94.3633211
  75.2047973 106.7222592  93.9959926  74.5906959 107.5363710  95.9337072
  73.9729484 108.3555149  96.3017980  74.1902480 106.5891983  96.2950996
  75.6112803 107.6605558  96.2957654  73.1922909 107.6237518  94.0584232
  72.7360006 106.8718546  94.4431959  76.4932137 109.1402204  94.1824959
  77.4389903 108.6306099  93.6381277  76.5991888 109.8735675  95.2471988
  75.7966012 110.4057297  95.5517573  77.8136289 109.9814588  96.0034030
  78.5714579 109.3033849  95.6109616  78.3441854 111.4333959  95.8946209
  78.8292062 111.3541109  94.9217037  77.5104415 112.1323941  95.8284945
  79.3319406 111.9291601  96.9056280  80.6932508 111.8079510  96.6854899
  81.0423786 111.3060701  95.7830904  81.6564525 112.3414689  97.6424805
  82.7056864 112.4341157  97.3620758  81.2182352 112.8113774  98.8963121
  82.1000704 113.2141522  99.8653324  83.0173918 113.1385932  99.5925468
  79.7572866 112.7798675  99.1835180  79.3807213 113.0683248 100.1648902
  78.8485284 112.3684246  98.1633801  77.7746423 112.3906598  98.3487834
  77.5537720 109.6131990  97.4929711  76.5617221 110.0345197  98.0269148
  78.6094760 109.0246185  98.1423770  79.4290767 108.8283994  97.5857334
  78.6085753 108.5963462  99.5935496  77.9508491 109.2277991 100.1908457
  78.0843316 107.1417477  99.6517643  77.0679732 107.1209509  99.2584674
  78.7119147 106.4655606  99.0712383  78.0182681 106.5778357 101.0456595
  77.2565293 107.1988677 102.1317844  77.5660647 106.3930945 103.1666884
  77.1228366 106.6604632 104.1259390  78.3749149 105.3927018 102.8274276
  78.7686945 104.6979315 103.4457574  78.5986812 105.4580477 101.4433093
  79.1568575 104.6663863 100.9434965  79.9630032 108.6967277 100.2925172
  80.9857262 108.5390192  99.6806196  79.9422953 109.0196640 101.6255455
  79.0137206 109.0898067 102.0166060  81.0738708 109.4353129 102.4498141
  81.9370875 108.7787441 102.3408475  81.4562944 110.8662823 101.9034912
  81.5280672 110.8267143 100.8165771  80.6922060 111.5886725 102.1905823
  82.8077032 111.3304575 102.4681978  83.6289730 110.5780771 102.9694848
  83.0155842 112.6044826 102.3812977  83.8790959 112.9969847 102.7282694
  82.3133727 113.2005292 101.9668966  80.7152434 109.2585214 103.9405080
  81.1330649 110.0682446 104.7721626  79.8184613 108.3537747 104.2927639
  79.4078018 107.8075767 103.5490396  79.3833552 108.0910245 105.6728723
  79.2272706 107.0136503 105.7276585  80.2298538 108.3674193 106.3014784
  78.1615482 108.7842427 106.1721690  77.0197030 108.5473015 105.6675441
  78.3520808 109.8044342 107.0327169  79.2398754 109.8546962 107.5116676
  77.2876061 110.7127038 107.4505555  76.3240095 110.2405182 107.2591883
  77.3758714 111.0637457 108.9532803  77.9773395 111.9452462 109.1752988
  76.3231556 111.2911197 109.1211808  77.7936524 109.9328721 109.8521784
  76.9084966 109.1352628 110.2372275  79.0114519 109.6927130 110.0322310
  77.1908902 111.9302392 106.5363939  76.8030644 113.0002241 106.9681768
  77.3545461 111.6796656 105.2112721  77.7742157 110.7788906 105.0307699
  77.1801718 112.5824996 104.1087540  76.1552864 112.9464717 104.1810965
  78.1008370 113.7608761 104.0065906  77.9442976 114.2215038 103.0311846
  77.8251342 114.4670734 104.7897722  79.5794974 113.3786528 104.1601604
  79.6577976 112.4124213 103.6617964  80.1108615 114.1313780 103.5777867
  80.2221039 113.2801102 105.6094102  79.8975303 114.1668967 106.1538004
  79.7979249 112.3916915 106.0772603  81.8068261 113.1897650 105.6425221
  82.1354713 112.8968727 106.6396715  82.1460142 112.4504275 104.9169666
  82.3696209 114.4902422 105.3089432  82.0557893 115.1753883 105.9813897
  83.3779554 114.4359152 105.3291920  82.0655583 114.7616344 104.3848267
  77.1188122 111.8273749 102.7859325  77.8857244 110.8755977 102.5572146
  76.1878770 112.1884329 101.9418390  75.8239935 113.1209953 102.0760605
  75.6957371 111.4235013 100.8484278  76.5175001 111.1054472 100.2068311
  74.9555684 110.1323064 101.4026542  75.7986509 109.4911149 101.6599175
  74.3699824 110.3385689 102.2985587  74.0734527 109.4251392 100.3677086
  72.8778395 110.0117610  99.8996051  72.5892600 110.9598289 100.3534649
  72.0679792 109.4331155  98.8965395  71.2791301 110.0233942  98.4302885
  72.3541523 108.1112617  98.4164369  71.5442173 107.5315780  97.5691689
  70.7908778 108.0789847  97.3358770  73.4474792 107.4456947  98.9659048
  73.6294808 106.4190404  98.6481677  74.3267809 108.0711973  99.9264463
  75.1826824 107.5227293 100.3197853  74.6753306 112.3415953 100.1546035
  73.9937074 113.1212450 100.7164309  74.6809486 112.2999100  98.8472486
  75.3591466 111.6290124  98.5155211  73.9389607 113.1210968  97.8347111
  72.9782838 113.4050026  98.2643581  74.6888942 114.4062476  97.4072803
  75.5561625 114.1051815  96.8196544  73.9514036 114.8716604  96.7533701
  75.1217091 115.4049850  98.4776185  74.3726587 115.3617170  99.2682842
  76.5268742 115.1462081  99.0822197  77.2765598 115.1897798  98.2921742
  76.7457629 115.9060874  99.8324010  76.5469293 114.1606889  99.5474615
  75.2531330 116.7457325  97.8533327  74.2936498 117.0469699  97.4329194
  75.5621045 117.4695385  98.6074831  76.0002611 116.7063442  97.0606492
  73.6057747 112.2639834  96.6372560  74.4000412 111.4367202  96.2684738
  72.4588025 112.4716610  96.0066677  71.7269514 113.0408580  96.4073024
  72.2208340 111.8533849  94.7087814  73.1715572 111.8862428  94.1766678
  71.8401262 110.3513774  94.9637289  70.8856969 110.3018539  95.4878588
  71.7578294 109.8299636  94.0100753  72.6122194 109.8782617  95.5704684
  71.1060391 112.4533850  93.7982704  70.2993519 113.2803114  94.2467182
  71.2004049 112.1256284  92.4813753  71.8852187 111.4047179  92.3041252
  70.5272481 112.7621708  91.3151799  69.5361476 113.1720326  91.5096847
  71.4650834 113.9052324  90.6849768  70.8528430 114.5319891  90.0365649
  72.1140989 114.7747229  91.7730495  72.7269119 114.1486928  92.4216228
  72.7399462 115.5351289  91.3059321  71.3364794 115.2580045  92.3645273
  72.4654716 113.3062649  89.6929403  72.9515845 112.4576249  90.1741941
  71.9105042 112.9599416  88.8210625  73.4760718 114.2717693  89.2738194
  74.0317973 114.6182219  90.1451629  74.1616933 113.7988066  88.5707342
  72.9907163 115.1205401  88.7920332  70.1187360 111.6513382  90.3186390
  70.8643783 110.7602496  90.0288189  68.9805443 111.9248131  89.7388407
  68.3614788 112.5683188  90.2108128  68.4595058 111.1832365  88.5494274
  69.3067763 110.8329380  87.9599166  67.7285277 109.9753014  89.1153300
  66.8720297 110.3096875  89.7007333  67.3841545 109.3423656  88.2974671
  68.4048366 109.4070183  89.7538906  67.7170080 112.0975352  87.5907778
  66.5492429 111.9242861  87.2476969  68.2708361 113.1939678  87.1039072
  69.7329520 113.5125724  87.1869259  70.2365559 112.5600227  87.0222063
  69.8917102 113.8336528  88.2163929  70.1382473 114.5543273  86.1966853
  70.4795886 114.1455588  85.2456367  70.8816090 115.2541166  86.5785355
  68.7589306 115.2375038  86.0549056  68.7437667 115.7120066  85.0737247
  68.5507162 115.9834490  86.8219207  67.6558507 114.0668869  86.1135985
  66.6669618 114.3424118  86.4800450  67.5232264 113.4016430  84.7319827
  68.4776611 112.8024849  84.3223449  66.4401371 113.5010665  83.9779034
  65.2528207 114.2964707  84.2606928  65.5877405 115.2485970  84.6722561
  64.6717014 113.7610028  85.0114748  64.4885209 114.4616987  82.9350463
  64.8957938 115.2866369  82.3504912  63.4276509 114.6344308  83.1162089
  64.7110123 113.1230582  82.2392847  64.6369593 113.1130052  81.1518500
  64.0232596 112.3875648  82.6565918  66.1763694 112.7913745  82.6755959
  66.1002294 111.7238198  82.8820608  67.3052094 113.0384426  81.6252075
  67.5212133 112.1474271  80.7528849  68.1448717 114.0545938  81.7604773
  68.0491917 114.7342635  82.5014185  69.2142442 114.2344823  80.7954677
  68.8055058 114.2377809  79.7850118  70.0398829 115.5393485  81.0267895
  69.3513675 116.3837656  81.0585163  70.8455143 115.4745997  82.3629073
  71.5346232 114.6306457  82.3317417  71.4090249 116.3985017  82.4931440
  70.1560456 115.3493895  83.1978052  71.0187983 115.8149922  79.8223003
  71.6435915 116.6730031  80.0703963  71.6486934 114.9373151  79.6773358
  70.2564006 116.0993910  78.5565512  69.6265851 116.9772752  78.7006059
  70.9578809 116.2856143  77.7433196  69.6316849 115.2415875  78.3075466
  70.2102280 113.0338812  80.8016495  70.7770136 112.8060803  79.7671149
  70.3162123 112.3127446  81.8888755  69.8297501 112.5525598  82.7408981
  71.1379384 111.0616959  81.8689182  71.8052686 110.9206743  81.0186932
  71.9181680 110.8848504  83.1588397  72.3354817 109.8788324  83.2021699
  73.1031142 111.9543905  83.1987438  72.6865265 112.9607308  83.1559143
  73.6698037 111.8353033  84.1222058  73.7630516 111.7982859  82.3453897
  71.1195274 110.8000744  84.4777120  70.7467715 111.7997340  84.7009484
  70.2778703 110.1281831  84.3095604  71.9150997 110.3124894  85.6069736
  72.7567404 110.9841724  85.7760380  71.2935335 110.2773536  86.5016915
  72.2878413 109.3126218  85.3846487  70.2240002 109.8083101  81.7475007
  70.7172568 108.7402413  81.5436600  68.8773970 109.8802297  81.8281818
  68.4535493 110.7255818  82.1829103  67.9982892 108.7289593  81.5232098
  68.4577029 107.8127468  81.8941449  66.6188185 108.8916379  82.1876850
  66.2974955 109.9294707  82.0996295  65.8992689 108.2451779  81.6852531
  66.7047359 108.5003976  83.6953664  66.7059268 107.4136536  83.7795504
  67.6303745 108.8975828  84.1119467  65.5420729 109.0560696  84.4482139
  65.4081791 110.1215811  84.2615145  64.6171878 108.5280294  84.2161350
  65.8979083 108.8375735  85.9185233  66.3533654 107.8553217  86.0443831
  66.5977650 109.6065967  86.2454839  64.6642136 108.9164461  86.7309847
  64.0157474 108.2036549  86.4284618  64.8923770 108.7728346  87.7043382
  64.2422498 109.8266961  86.6148357  67.8856743 108.5189943  80.0002513
  66.9795937 108.9587920  79.3069534  68.7632594 107.6919748  79.4340559
  69.2844070 107.0928931  80.0582400  68.9978981 107.5555379  77.9494312
  68.2229037 106.9227190  77.5169697  68.9609574 108.9366305  77.2440613
  69.2064620 108.6935289  76.2102681  67.9107268 109.2207378  77.3103844
  69.8625261 110.1381526  77.7301391  69.7647000 110.4572921  78.7677714
  70.8771122 109.7804799  77.5546758  69.6068267 111.3319543  76.8296135
  68.6632297 111.3854057  76.1119001  70.4342641 112.3635096  77.0680689
  70.3505228 113.2103007  76.5239792  71.1361744 112.2873844  77.7903073
  70.4316938 106.9538181  77.7132825  71.4155854 107.4600285  78.2874831
  70.5553092 105.9791467  76.8011598  69.7179759 105.8664583  76.2477399
  71.6952561 104.9952531  76.5921056  71.3628229 104.0480302  76.1674220
  72.6420385 105.7110086  75.5499712  72.0827256 105.8503822  74.6248532
  72.9187366 106.6836900  75.9567010  73.7992861 104.9690487  75.2877870
  74.3436105 105.4391879  74.6519569  72.2574545 104.6706980  78.0105036
  71.4692957 104.3058490  78.8731049  73.5652919 104.7186825  78.1627822
  74.0957168 104.9229063  77.3278921  74.2778441 104.3667205  79.3476324
  73.7523653 104.8346935  80.1800821  74.2314660 102.8661575  79.5291867
  73.2179017 102.5026095  79.3600112  75.1843751 102.2190002  78.5107404
  76.1982826 102.5817366  78.6795999  75.1621964 101.1356693  78.6290681
  74.8691412 102.4801634  77.5005315  74.7279371 102.5759632  80.7841917
  74.7089594 101.6264035  80.9241080  75.6742994 104.9699465  79.3282142
  76.3590045 105.0944811  78.2945243  76.1581720 105.2560000  80.5347865
  75.4790946 105.2132042  81.2811923  77.5805098 105.6221949  80.8816951
  77.9533006 106.3143161  80.1266491  77.7587384 106.2371624  82.2674973
  77.3581760 105.5265302  82.9904440  79.2441175 106.5654465  82.6280284
  79.6452502 107.2764275  81.9057410  79.2887579 106.9989908  83.6271016
  79.8354474 105.6501323  82.6029668  76.9005126 107.5353086  82.3205241
  77.4595935 108.3597512  81.8780045  75.9759767 107.3835866  81.7634664
  76.5617368 107.8753791  83.8104225  77.4858330 108.0277046  84.3680452
  75.9609202 108.7840348  83.8486746  76.0022178 107.0515383  84.2535079
  78.4275178 104.3224512  80.8294481  78.1246764 103.3787549  81.6067810
  79.4936944 104.2082266  80.0186990  79.6849536 105.0113640  79.4369004
  80.3551671 103.0232273  79.8774212  80.0619600 102.1785280  80.5008087
  80.4223204 102.5587659  78.4289005  81.3092938 101.9345023  78.3208620
  79.1792178 101.7620022  77.9971024  78.2918351 102.3858077  78.1044318
  79.2853811 101.4582406  76.9556809  79.0783924 100.8766134  78.6248145
  80.6953812 103.7372506  77.4579481  81.6469039 104.2046000  77.7115053
  80.7358659 103.3637615  76.4347343  79.8955254 104.4726862  77.5443535
  81.8360319 103.2919412  80.4048985  82.5803255 102.3412828  80.6378657
  82.2744419 104.5346721  80.6745233  81.6591352 105.2936845  80.4187945
  83.6612672 104.8702276  81.1492486  83.9417757 104.2333080  81.9881453
  84.6925881 104.6286335  79.9596181  85.7398935 104.7254476  80.2457609
  84.5483184 103.6910052  79.4228318  84.3785097 105.9363059  78.7706149
  85.3089960 105.5579849  77.8988542  83.7422562 106.2839659  81.8095711
  82.7386561 107.0130826  81.7474383  84.8153704 106.6761685  82.5245076
  85.6049060 106.0479690  82.4787018  84.9177119 107.8640516  83.3883577
  84.4250461 108.7198246  82.9268038  84.2229653 107.5601014  84.7281754
  84.3142374 108.3646073  85.4579281  83.1684955 107.3443918  84.5559466
  84.8057058 106.3516938  85.3547579  85.9109244 106.3011072  86.1745657
  85.9897059 105.0094707  86.5456109  86.7495420 104.7409867  87.2795485
  85.0630555 104.2511543  85.9039418  84.9670608 103.2495467  85.9915035
  84.2947562 105.0307877  85.1369079  83.4968488 104.5904936  84.5389230
  86.3959492 108.2765899  83.5930710  87.3701924 107.5446993  83.6067943
  86.5232340 109.5898833  83.8711233  85.6768285 110.1133698  84.0433408
  87.7923543 110.2971926  83.9169085  88.5851013 109.6698546  84.3244602
  88.1341317 110.6466049  82.5464150  88.3760790 109.6935105  82.0761260
  87.2722979 111.0892008  82.0469640  89.3014770 111.5665226  82.3895342
  89.3553164 112.5629378  81.7596047  90.3669762 111.1630165  82.9639767
  91.2074975 111.7205756  82.9115220  90.3647545 110.2879920  83.4683853
  87.8070900 111.5602448  84.7555431  86.9130294 112.3461202  84.5324459
  88.7291501 111.7359721  85.7098539  89.3748276 110.9723688  85.8516633
  88.8631772 112.9053362  86.5376197  87.8918252 113.2591821  86.8831158
  89.7090231 112.5082242  87.7662453  89.3579208 111.5446763  88.1355713
  90.7513774 112.4212925  87.4595851  89.5890685 113.5621785  88.8857368
  90.1695125 114.4447795  88.6170341  88.5427520 113.8405372  89.0115946
  90.1204510 112.9833855  90.1902291  89.9404650 113.6719547  91.0158056
  89.6453961 112.0263450  90.4058577  91.5870141 112.7688935  90.0594508
  92.0134352 113.1539022  89.2287687  92.3850164 112.2975110  91.0286137
  91.9385612 111.4988626  91.9401708  90.9684035 111.2181566  91.9302619
  92.5616996 111.1588009  92.6586110  93.6590471 112.5217289  90.8555756
  93.9742813 113.0188885  90.0348687  94.3237790 112.1970334  91.5431824
  89.5551998 114.0163668  85.7296242  90.5427315 113.7533481  85.0907945
  89.0678439 115.2419054  85.9062175  88.2104744 115.3406199  86.4308815
  89.6559257 116.4498502  85.2916256  90.4860396 116.3095603  84.5992897
  88.5924846 117.3168088  84.6113361  87.9351380 117.6956902  85.3939238
  89.1711855 118.4997645  83.8093368  89.8283199 118.1216227  83.0262122
  88.3568018 119.0660922  83.3575043  89.7381127 119.1490202  84.4765416
  87.5261372 116.6760116  83.8025115  86.9514117 115.9960744  84.4313819
  86.8651483 117.4429622  83.3988036  87.9774436 116.1176217  82.9823748
  90.4353769 117.2527187  86.2652909  91.4320260 117.7776394  85.7482902
  90.0461462 117.3434112  87.5495465  89.2223619 116.8159547  87.8010787
  90.6117935 118.2206414  88.5236945  91.5037291 118.6635280  88.0805224
  89.6671900 119.3818031  89.0232000  88.7068877 118.9521944  88.7379719
  89.6973414 119.5171357  90.1043457  89.8427556 120.7273015  88.3396273
  88.9150754 121.5572209  88.5014922  90.7223383 121.0467197  87.5103684
  91.1736026 117.3868636  89.7089140  90.3846188 116.7117623  90.3716333
  92.4797286 117.4527334  90.0437527  93.5433482 118.3279831  89.4138023
  93.5298264 119.3121715  89.8820871  93.3455834 118.4311026  88.3468653
  94.7958968 117.5850325  89.6869476  95.6614293 118.2475627  89.6844531
  94.9498747 116.7842435  88.9636709  94.5468094 117.0502685  91.0006142
  94.8202057 117.7526677  91.7880079  95.1705515 116.1595872  91.0763260
  93.0613319 116.6646674  91.1354594  92.9047184 115.6271695  90.8402161
  92.5353970 116.8748724  92.5625531  92.8318988 116.0598373  93.4153710
  91.6858619 117.8719901  92.8561300  91.6636273 118.7088270  92.2910556
  90.8317139 117.8187738  94.0682460  91.2976274 117.2904397  94.9000434
  90.6652818 119.3635597  94.4706029  90.2577667 119.5849859  95.4570111
  91.7290608 119.6007489  94.4559217  89.9666617 120.2266969  93.4574350
  89.0815275 119.7798806  92.7777389  90.1404045 121.5470303  93.5167407
  89.6798387 122.1445718  92.8452327  90.7318127 121.9438118  94.2329122
  89.4784009 117.0891842  93.9480218  88.8982224 116.8480798  94.9911266
  89.0930937 116.5110626  92.7877543  89.6456110 116.5620884  91.9438228
  87.8540547 115.7963287  92.7452846  87.9763246 114.9856202  92.0270220
  87.6906456 115.3791402  93.7389398  86.6229174 116.6408216  92.3457126
  85.5420630 116.1023473  92.3084536  86.7706271 117.9279162  92.0522245
  87.6891324 118.3412041  92.1273277  85.6483739 118.7937353  91.6981878
  84.8122302 118.6079114  92.3723038  86.0458001 120.2522183  91.8099856
  85.2229473 120.8725066  91.4546620  86.2507454 120.4851057  92.8549071
  87.2109880 120.5135709  91.0270309  87.4497820 121.4398628  91.1080291
  85.0102497 118.6047837  90.3233220  83.9028706 119.0395603  90.0670764
  85.7974522 118.0044454  89.3996667  86.7303393 117.7727103  89.7096987
  85.4382116 117.7361897  87.9783595  84.3567924 117.7996798  87.8575263
  86.0944310 118.7534416  87.0454133  87.1643933 118.7344072  87.2525791
  85.9163299 118.4137831  86.0251133  85.5601210 120.2071799  87.2089601
  84.4749018 120.1421833  87.2875445  85.9688589 120.5951521  88.1419730
  85.9442203 121.1756209  86.0239560  85.7582989 120.6546310  85.0847533
  85.3045999 122.0562350  86.0831505  87.3564898 121.6131228  86.0515420
  87.8109256 121.5927883  86.9533036  88.0662867 121.9541501  84.9990304
  87.6383156 121.9840728  83.7871577  86.6813905 121.7309305  83.5863757
  88.2610425 122.2605793  83.0416009  89.2635228 122.3570534  85.1567916
  89.6566429 122.4111740  86.0855691  89.8145246 122.6206579  84.3524232
  85.7670705 116.3282729  87.4551167  86.9066919 115.9078393  87.5082547
  84.8139594 115.6427985  86.8423417  83.8996212 116.0714397  86.8610972
  84.9657374 114.3199452  86.1491032  86.0152793 114.1056435  85.9475204
  84.3887227 113.1838467  87.1046784  83.3569081 113.3798873  87.3962708
  84.4232495 112.3040739  86.4620994  85.2304366 112.9354505  88.3515397
  85.0361790 113.6577017  89.5782092  84.4057391 114.5460803  89.6160038
  85.6988419 113.1837849  90.7842514  85.3714342 113.5434320  91.7597308
  86.6493382 112.1518997  90.6984341  87.4582042 111.9840189  91.7582652
  87.2830983 112.6081470  92.4663624  86.8018175 111.4831104  89.4906697
  87.4814404 110.6310321  89.5039260  86.1381645 111.8448839  88.2855807
  86.3365246 111.2923994  87.3671504  84.2139500 114.2544092  84.7948836
  82.9579117 114.4325872  84.8187480  84.8820746 114.0793066  83.6628846
  85.8760232 114.2575535  83.6430462  84.2375742 113.6851079  82.4439291
  83.4559854 114.4093578  82.2144072  85.1954249 113.6126396  81.2632787
  85.9886998 113.0202799  81.7192660  84.7978410 113.0819035  80.3982086
  85.7552553 114.9522849  80.8211131  85.7160634 115.6438394  81.6627289
  87.2169503 114.8080414  80.3410648  87.2568857 114.1169465  79.4991077
  87.5953786 115.7816274  80.0295795  87.8311137 114.4236570  81.1554066
  84.7320504 115.5695113  79.8387444  83.7754505 115.7006219  80.3445370
  85.0962320 116.5375539  79.4947002  84.6024664 114.9058896  78.9838097
  83.6154070 112.3379558  82.7459742  84.2187583 111.4350362  83.3125794
  82.4901789 112.0998090  82.1304104  81.9952963 112.9147686  81.7971967
  81.8846876 110.7536340  81.8870190  82.5419780 109.9475680  82.2130959
  80.5503289 110.7033805  82.7526803  79.9366215 111.3973157  82.1782968
  80.1506906 109.6945592  82.6493907  80.5344695 111.1008726  84.1966137
  80.8340724 112.1446530  84.2907478  79.1241832 110.9239593  84.7557096
  78.8240421 109.8802658  84.6623393  79.1105405 111.2127773  85.8066610
  78.4300766 111.5524002  84.1976966  81.5360346 110.3630508  84.9656107
  82.5277681 110.5676928  84.5622676  81.4969702 110.6762089  86.0089262
  81.3308995 109.2945659  84.8995908  81.5507483 110.5168850  80.3800020
  81.1162839 111.4836090  79.7037281  81.5165805 109.2317724  80.0090999
  81.4401898 108.5471910  80.7477555  81.5825037 108.7478672  78.6017912
  81.4250022 109.5892504  77.9269825  82.5659470 108.3150018  78.4185802
  80.4962043 107.6696648  78.3282146  80.2665520 106.7483731  79.1181326
  79.8354438 107.7338858  77.1707086  80.2130576 108.3731357  76.4859702
  78.5068240 107.0990016  76.8931468  78.2980666 106.3644690  77.6709523
  77.2866239 108.1922976  76.8643448  77.2169059 108.6881969  77.8324990
  77.6963127 108.8859260  76.1300869  75.8502324 107.7302599  76.4061859
  74.9049585 108.5041278  76.7451234  75.5911168 106.7675841  75.6527422
  78.5301596 106.1734243  75.6393082  79.0608050 106.6147474  74.5900426
  77.8567708 105.0393783  75.6693108  77.4839552 104.7700817  76.5685255
  77.7767057 104.0512209  74.5399754  78.7693418 103.6905399  74.2703792
  76.9230195 102.8491542  75.0005485  77.3468149 102.5153134  75.9476741
  75.9165641 103.2324966  75.1684658  76.8633939 101.6637812  74.0189739
  76.1900975 100.9603346  74.5088062  76.3729780 102.0838988  73.1408534
  78.3505183 100.7982576  73.5068912  77.7027010  99.8475062  72.1285492
  77.3041329 100.5257609  71.3740872  78.5020008  99.2485960  71.6920551
  76.9081110  99.1901276  72.4815102  77.3624452 104.6190376  73.2051191
  77.9525187 104.3111061  72.2093498  76.4716311 105.5857739  73.1850608
  75.9994472 105.7810468  74.0562727  76.0416966 106.3367413  71.9588837
  75.7788768 105.6448059  71.1587272  74.7899612 107.1959480  72.3048667
  74.0699052 106.4960520  72.7288527  75.1220854 107.8880561  73.0786754
  74.0864587 108.0321884  71.0932858  73.2015941 108.5805081  71.4164899
  74.8628899 108.7379515  70.7980702  73.7264636 107.1395001  69.8989441
  73.2762162 105.9597014  70.0444438  73.7321189 107.5086784  68.7002914
  77.0901979 107.1867037  71.3186868  77.0197987 107.6522450  70.1107679
  78.1928993 107.5224197  72.0280684  78.2505929 107.2202710  72.9900856
  79.3272405 108.3145091  71.4654295  80.2680936 108.0093605  71.9234458
  79.3880372 108.1774486  70.3857918  79.0745809 109.8519998  71.7781057
  78.9174065 110.6294464  70.8546410  79.1431717 110.2179125  73.0565009
  79.2771283 109.4745086  73.7269527  78.9498610 111.5676636  73.5549151
  79.5621835 112.2363128  72.9498791  77.4795116 112.0665377  73.5123658
  77.5069719 113.1044630  73.8441132  77.1817695 112.0283171  72.4645162
  76.4789650 111.2949022  74.3501259  76.8349396 110.2649747  74.3752728
  76.5299627 111.7209686  75.3521083  75.0073558 111.3220607  73.8501963
  74.5883959 112.3267888  73.9058112  74.9292719 110.9524905  72.8277383
  74.2268118 110.4344212  74.7349342  74.7514698 109.9001695  75.4127310
  72.9430292 110.2794584  74.6864488  72.2557813 111.0457978  73.9104178
  72.7236738 111.7491362  73.3568008  71.2526990 110.9392431  73.8597066
  72.3197208 109.3863345  75.4187010  72.8466729 108.7941583  76.0445995
  71.3159825 109.2953321  75.3529230  79.5330222 111.6390793  75.0165528
  79.6507340 110.6157976  75.7586980  80.0007567 112.8228117  75.3729950
  79.9267734 113.6314539  74.7723924  80.5820801 113.0075839  76.7531716
  80.7116636 112.0424606  77.2429107  81.9928280 113.7076322  76.6363103
  81.8319484 114.6288901  76.0763989  82.3804766 113.9477683  77.6263422
  83.0147493 112.8176060  75.8835293  82.6915333 112.6654167  74.8537377
  84.3802272 113.5346685  75.8927756  84.7043389 113.6868043  76.9222925
  85.1150914 112.9246742  75.3674355  84.2876357 114.5000125  75.3951429
  83.2342825 111.4237436  76.3746238  82.2958236 110.8709456  76.3320933
  83.9754298 110.9292399  75.7467162  83.5919827 111.4526999  77.4038522
  79.6863962 113.9730179  77.5631083  79.0249658 114.8803055  77.0765890
  79.6655109 113.7122601  78.8724907  80.1454286 112.8519419  79.0952707
  79.1168251 114.4688190  79.9348902  78.5980519 115.3423973  79.5401314
  78.0993134 113.6071636  80.7391599  78.6957917 112.6972562  80.6729661
  77.8566329 113.8067727  81.7828852  76.8223688 113.3255727  80.0552098
  75.6093863 113.7437146  80.6308753  75.6697786 114.4106794  81.4908815
  74.3196166 113.3262742  80.1291487  73.4263288 113.7964474  80.5403360
  74.2048679 112.3771262  79.1732299  73.2530603 111.9663796  78.8364072
  75.3997835 111.9234728  78.6098738  75.3125959 111.2096071  77.7907924
  76.6894443 112.3471624  79.0535923  77.5870731 111.9112163  78.6150568
  80.2549968 114.9149263  80.9587453  81.3815993 114.3903143  80.8945958
  79.9695202 115.9715559  81.7877730  79.1405886 116.5017654  81.5600675
  80.7975875 116.4115263  82.9687000  81.7323288 115.8526251  83.0132795
  81.1229349 117.8941563  82.8125136  81.4093706 118.0819728  81.7777292
  80.2324082 118.4746447  83.0535438  82.2407522 118.2972642  83.7196523
  82.2936771 119.3737749  83.5570963  81.8209174 118.0994735  84.7059178
  83.8791046 117.6119334  83.6336759  84.2505377 118.2433516  81.9877225
  84.1904180 119.3316771  81.9933963  85.2559240 117.9370203  81.6988279
  83.5303104 117.8439158  81.2737023  79.9707663 116.1271406  84.2196103
  78.8998445 116.6799255  84.3640589  80.4901205 115.2445753  85.0814564
  81.2314901 114.6158128  84.8073614  79.9540242 115.1400893  86.4576350
  78.8798749 115.3252615  86.4539321  80.2130187 113.7025146  87.0305894
  79.8377428 112.9790512  86.3068021  81.2760757 113.5297865  87.1984432
  79.4401416 113.5391421  88.3782512  79.7605480 114.3582370  89.0220866
  77.9227711 113.5515374  88.2592466  77.6015581 112.7323855  87.6158873
  77.4792883 113.4318670  89.2477317  77.5992938 114.4992494  87.8287762
  80.0455647 112.1863443  88.7929871  81.1267292 112.2858113  88.8893674
  79.6230977 111.8763596  89.7487759  79.8162624 111.4373943  88.0349677
  80.6771398 116.2393987  87.2435795  81.7923126 116.4710343  87.1036344
  80.0286791 116.8774794  88.2437543  79.1337087 116.4991502  88.5194251
  80.5347137 118.0336161  88.9561018  81.6027809 118.1587534  88.7781346
  79.8169934 119.2593340  88.4570686  78.8165418 119.1814280  88.8826581
  80.3380414 120.1042299  88.9073572  79.7115619 119.4740672  86.9290294
  79.6513302 118.4703004  86.5084046  78.5559657 120.3216530  86.3927022
  78.6157964 121.3257668  86.8125528  78.6200723 120.3783387  85.3060662
  77.6076857 119.8654770  86.6769008  80.9787947 120.1361709  86.5191141
  81.8226463 119.4929394  86.7686478  80.9645398 120.3152162  85.4440137
  81.0791901 121.0862591  87.0438543  80.3073637 117.9713101  90.4308177
  79.2510797 117.5772258  90.8516960  81.2376046 118.4295037  91.2222945
  82.1431306 118.5836830  90.8023532  81.1117350 118.5644868  92.7118335
  80.0732838 118.4452142  93.0208520  81.9591568 117.4609760  93.3893519
  82.9369430 117.5060402  92.9097660  82.0420832 117.8164240  94.4164254
  81.4572329 116.0145838  93.3892100  80.3842881 116.0053354  93.5810558
  81.7382762 115.3664239  92.0290686  82.8111357 115.3748875  91.8367156
  81.3788750 114.3373981  92.0351727  81.2249740 115.9253754  91.2466400
  82.2157921 115.1970958  94.4617617  82.0444169 115.6378780  95.4438213
  81.8550923 114.1685138  94.4577857  83.2830046 115.2081867  94.2403267
  81.4002753 120.0024794  93.2016446  82.4763793 120.5547713  92.8988278
  80.4610637 120.6330081  93.8432223  79.5759611 120.1690178  93.9895296
  80.6176111 122.0306674  94.3405897  81.4790913 122.4733658  93.8406205
  79.3943517 122.9199573  94.0883953  79.1992882 122.8146508  93.0211746
  78.5928243 122.4430644  94.6525114  79.4602979 124.4407733  94.4593236
  78.4322084 124.7652755  94.6200444  80.0348037 124.5893947  95.3736287
  80.0977337 125.2808824  93.2998059  79.7577658 126.4397141  93.1440500
  80.8714407 124.6858188  92.5903352  80.9122993 122.1178177  95.8587671
  80.0336679 121.8684375  96.7092572  82.0636939 122.7218015  96.2614185
  82.7755385 122.8481816  95.5561493  82.4079014 122.9936458  97.6392500
  82.0659121 122.1562942  98.2475138  83.9363449 123.1888336  97.8747219
  84.0526685 123.3420996  98.9476047  84.4018393 122.2451109  97.5904643
  84.5815696 124.2891811  97.1513066  84.6489667 124.0267098  96.0955286
  83.9765981 125.1889061  97.2635855  86.0395769 124.5566569  97.7244457
  85.9502437 124.7075507  98.8002476  86.6398205 123.6675343  97.5313964
  86.7411360 125.8202772  97.0699899  87.8047529 125.7686045  97.3026906
  86.6023541 125.7566828  95.9907334  86.1791637 127.1282654  97.5731478
  86.3080487 127.1875821  98.5731328  86.6598594 127.8955663  97.1256200
  85.1936921 127.1765325  97.3572428  81.5034080 124.1527172  98.2177543
  81.1973714 125.1409191  97.5171085  81.2731332 123.9852241  99.5362328
  81.2759969 123.0285416  99.8600380  80.7661818 125.0621384 100.4780188
  80.8782682 126.0148686  99.9604854  79.3685220 124.9295892 100.9223698
  78.8829190 124.8181306  99.9529029  79.4284220 123.9576123 101.4120361
  78.5390299 125.9079442 101.8094602  77.4908990 125.6091242 101.7943271
  78.9452094 125.7560300 102.8094799  78.6544972 127.4057015 101.4272948
  77.6766452 128.1455368 101.5702745  79.7383609 127.9010006 101.0398517
  81.8167595 125.2540843 101.5908137  82.3648018 124.2417766 102.0725415
  82.2053132 126.4691281 101.9482609  81.8812381 127.2582671 101.4075815
  83.1473704 126.7149735 103.0337950  83.6635331 125.7827860 103.2633636
  84.1886764 127.7771429 102.6888834  83.6918531 128.5830586 102.1487300
  84.6043422 128.1657796 103.6185519  85.3044602 127.2103993 101.8352899
  85.8909670 126.5382122 102.4616086  84.7810992 126.6324013 101.0736399
  86.2378989 128.2221560 101.1575402  86.3084835 129.4123706 101.5860375
  86.9389562 127.7750194 100.2100052  82.3597972 127.1107863 104.3461188
  81.7929516 128.2002183 104.4417594  82.3051022 126.1975422 105.3392711
  82.7272173 125.3159805 105.0847772  81.5517521 126.2738879 106.6125629
  80.5024253 126.4066738 106.3491615  81.6690101 125.1012743 107.5256987
  82.7140898 124.8515529 107.7088569  81.1702334 125.2941669 108.4754956
  80.9681402 123.9080266 106.8032028  79.9571396 124.2179369 106.5387517
  81.5625291 123.7971079 105.8962844  80.8948714 122.5472994 107.5114218
  81.6031024 122.2409313 108.4159214  79.9394311 121.7517910 107.1064908
  79.8323016 120.8405342 107.5286706  79.3130025 122.0522818 106.3734192
  81.8707239 127.6547451 107.2909966  82.9155916 128.2809613 107.0429201
  81.1036104 128.0050331 108.3042804  80.1750497 127.6131864 108.3700865
  81.4681406 129.0714274 109.2221268  81.4256253 130.0244637 108.6948570
  80.5266192 129.1372068 110.4290566  79.6242182 128.6132373 110.1140523
  81.0255308 128.5632597 111.2099355  80.1468103 130.5338019 110.9784130
  81.0892503 131.0282535 111.2138388  79.6590119 131.0557312 110.1551606
  79.0564516 130.5808749 112.4526731  79.0800124 132.3863361 112.6726128
  78.6810912 132.8669348 111.7793122  78.4683377 132.6560092 113.5335607
  80.1047497 132.7195143 112.8369507  82.9196041 129.1284690 109.6816894
  83.5296355 130.2171236 109.5487915  83.5543592 128.0932609 110.0917969
  82.9707200 127.2763928 110.2022110  84.9681267 128.0008580 110.4941637
  85.3200983 128.9488907 110.9009182  85.0857447 126.9367080 111.5718246
  86.1144678 127.0080720 111.9250031  84.4084627 127.2729055 112.3569108
  84.7731885 125.5002709 111.2180349  84.1374681 125.2766897 110.1850756
  85.1601297 124.5163195 111.9614636  86.0184746 127.7329916 109.3743812
  87.1677169 127.3705730 109.6924394  85.6161345 127.7623499 108.0671370
  84.6536234 127.9522489 107.8271159  86.5824693 127.5159824 106.9638954
  86.3005335 128.1349439 106.1121337  87.5776952 127.8004692 107.3054977
  86.6055544 126.0813560 106.5370943  87.3796974 125.7113686 105.6704820
  85.8851301 125.1551447 107.1920435  85.2628089 125.4989074 107.9094297
  85.8901328 123.7010066 106.9037066  86.9201067 123.3530584 106.8250616
  85.1791686 122.9040026 108.0465953  84.1028663 123.0762201 108.0427618
  85.4587476 121.4376480 107.7539442  86.5349078 121.2645529 107.7580705
  84.9886914 120.8181377 108.5177198  85.0532613 121.1780481 106.7760437
  85.6807790 123.2455999 109.3092146  85.2225709 122.7385909 109.9834456
  85.0944476 123.4268560 105.6332183  83.9090108 123.8746449 105.4335824
  85.6809352 122.6277747 104.7017687  86.5651032 122.2201967 104.9705187
  85.1512276 122.3296951 103.3472486  84.8436209 123.3219915 103.0173619
  86.2495773 121.7817967 102.3468766  86.6747111 120.8627750 102.7503115
  85.6241474 121.4973574 100.9859380  85.1991793 122.4160736 100.5816317
  86.3883081 121.1210671 100.3058170  84.8371521 120.7512762 101.0959507
  87.2157335 122.9094611 102.0296765  87.6884947 123.2531510 102.9497179
  87.9805130 122.5504338 101.3409738  86.6727199 123.7354315 101.5703182
  84.0387247 121.2797288 103.5085653  84.2385026 120.2404186 104.0994021
  82.8606953 121.4951369 102.9484447  82.7089758 122.4074337 102.5424949
  81.8354827 120.5363240 102.8376980  82.1592100 119.5290825 103.0999276
  80.6632408 120.9825004 103.8542119  81.1657093 121.2650906 104.7792895
  79.7625818 122.1150005 103.4025064  79.2593811 121.8329440 102.4776644
  79.0187266 122.3177550 104.1730057  80.3610792 123.0098102 103.2315763
  79.8560705 119.8847128 104.1178228  79.1553306 120.1405138 104.7220824
  81.2927714 120.5731690 101.3820965  81.6168323 121.4585587 100.5956496
  80.4023984 119.6162770 101.0132014  80.2076144 118.9130592 101.7115160
  79.8082277 119.4421925  99.6380964  80.3609198 120.0513311  98.9228476
  79.8751252 117.9956916  99.1952806  80.9147415 117.6684668  99.2101502
  79.3182035 117.4701112  99.9709760  79.2455460 117.6759368  97.7907921
  78.1664744 117.7900472  97.8941558  79.7437946 118.5636333  96.6551772
  80.8227961 118.4497047  96.5508955  79.2565640 118.2719697  95.7247797
  79.5086365 119.6045794  96.8770610  79.6281810 116.2928905  97.3444621
  79.2656507 115.5634858  98.0687825  79.1835097 116.0888442  96.3704324
  80.7133056 116.2217800  97.2699848  78.4126771 119.9934447  99.4926506
  77.4602006 119.5127030 100.0905586  78.2413548 121.1185130  98.7584687
  79.0828187 121.4406354  98.3020971  77.0032427 121.8765866  98.5495720
  76.5113669 122.0338969  99.5094735  77.2892405 123.2868614  97.8907333
  78.2352249 123.6834327  98.2594389  77.3357204 123.1869918  96.8063138
  76.1427688 124.2527700  98.2704244  75.3100833 123.9931954  97.6166992
  75.8835314 124.0116305  99.3013220  76.4320523 125.7421966  98.1556530
  75.5113237 126.2298776  98.4758483  77.2163091 125.9305517  98.8888399
  76.8408787 126.2775138  96.8558475  77.8984128 126.0559407  96.7122244
  76.2573437 125.7788550  96.0819447  76.6274439 127.7384207  96.7693228
  77.1684104 128.2007110  97.4860812  76.9206662 128.0682588  95.8608475
  75.6475051 127.9439148  96.9019548  76.1377185 121.0784493  97.6182274
  75.0004565 120.8197184  97.8888626  76.6199744 120.5863963  96.4831865
  77.6256812 120.5381544  96.4036507  75.8225968 120.1045838  95.3810273
  74.9713695 119.5130283  95.7180336  75.2803611 121.3986612  94.6457524
  75.1853443 122.1390247  95.4400653  76.0820165 121.6937544  93.9687231
  73.9669280 121.3117425  93.8716171  73.6751743 122.2831262  93.1406538
  73.2806745 120.2966237  94.0255785  76.6173022 119.2260329  94.3134016
  77.7208019 119.6003561  93.9823963  75.9627096 118.1801702  93.8301484
  75.0130573 118.0616073  94.1529530  76.4858242 117.2296855  92.9054003
  77.5503131 117.4043159  92.7489817  76.2945411 115.7865631  93.4668112
  76.9867200 115.8092609  94.3085193  75.2721412 115.7237255  93.8394371
  76.5859911 114.6011686  92.6176599  76.1135434 114.7042151  91.6407896
  78.1031695 114.5282046  92.4444207  78.5763215 114.4246784  93.4208983
  78.3577071 113.6682487  91.8249151  78.4587479 115.4395915  91.9637562
  75.9853687 113.3095733  93.2036456  74.9031928 113.4141991  93.2814166
  76.2226797 112.4692999  92.5511693  76.4045793 113.1298836  94.1936320
  75.6837662 117.4375298  91.6214452  74.4457369 117.4027385  91.7720012
  76.2408885 117.7334386  90.4294818  77.2488465 117.7917340  90.4563454
  75.5364634 118.0741095  89.1332428  74.4841372 117.7982101  89.2009797
  75.6315373 119.5795437  88.8504463  76.6819157 119.8629564  88.7835011
  75.1364843 119.7952703  87.9036176  74.9496832 120.3873362  89.9859164
  73.8958810 120.1123223  90.0302913  75.4296687 120.1388413  90.9324714
  75.0761794 121.9204359  89.7257972  74.9502644 122.1245303  88.6625052
  74.3113633 122.4534851  90.2906107  76.4153763 122.4149786  90.1514042
  76.9197299 121.8126661  90.7861848  77.0281261 123.5462241  89.7037546
  76.3629622 124.4280302  89.0921003  75.3744512 124.2923940  88.9354192
  76.8226017 125.2647885  88.7624541  78.2252957 123.8245922  89.9183312
  78.7998806 123.1900864  90.4543858  78.6139455 124.6830714  89.5549256
  76.0553249 117.2539242  87.9461991  77.2199465 116.8412853  88.0107490
  75.2993811 116.9792390  86.9090289  74.3031755 117.1136961  87.0069825
  75.8100598 116.3603785  85.6486682  76.8868498 116.4912648  85.5414709
  75.4882826 114.8198223  85.6490765  75.9701090 114.3663684  86.5152878
  73.9534471 114.5573988  85.7122273  73.4709559 115.0101910  84.8460389
  73.7675938 113.4833610  85.7108735  73.5467360 114.9948358  86.6240039
  76.0493690 114.1137352  84.4170809  77.1324803 114.2332680  84.3909301
  75.8023797 113.0530210  84.4615926  75.6143786 114.5501263  83.5179441
  75.2617116 117.1089273  84.3863200  74.0825684 117.3884994  84.1980632
  76.1811822 117.2771134  83.4184004  77.1356087 116.9609984  83.5145289
  75.8300233 118.0806609  82.2431129  74.7429139 118.1366961  82.1869659
  76.3925236 119.5038560  82.2669487  77.4691919 119.4288638  82.1144343
  75.9445155 120.0429001  81.4321910  76.1237840 120.2296888  83.5207954
  76.5009956 119.6957282  84.3929756  76.6762085 121.1613836  83.3988479
  74.6274597 120.5420412  83.7175785  74.1308282 120.7888138  84.8255670
  73.8872189 120.6515098  82.7032840  76.1860941 117.4032744  80.9047131
  77.0307936 116.5066112  80.9243046  75.4997098 117.6938549  79.7307503
  74.6591016 118.2496685  79.7981923  75.8202072 117.0494409  78.4200695
  76.4916867 116.2077450  78.5896648  74.5589634 116.5358024  77.7161593
  74.2633465 115.6858785  78.3312521  73.8038680 117.3182682  77.7915134
  74.6885922 116.0841426  76.2398010  75.1261539 116.9071063  75.6746715
  75.5859706 114.7994229  76.0760592  75.1487673 113.9758479  76.6405735
  75.6426705 114.5271125  75.0221461  76.5881530 115.0052908  76.4520235
  73.3535121 115.8248064  75.6294511  72.7561661 116.7360302  75.6602460
  73.4818531 115.5099388  74.5938411  72.8449252 115.0385559  76.1873475
  76.7260411 117.9941176  77.5976469  76.3590696 119.1355678  77.3653555
  77.8664221 117.5154395  77.0884825  78.1513934 116.5723956  77.3111007
  78.7620182 118.3391723  76.2365003  78.6585123 119.4108345  76.4065765
  80.1977384 117.8914868  76.7051570  80.4786844 117.0060065  76.1349876
  80.8198164 118.7325721  76.3990612  80.4051299 117.6190424  78.2185472
  79.6426852 116.8952124  78.5063823  81.7854984 117.0902078  78.6146779
  82.5484792 117.8137562  78.3275597  81.8200187 116.9351511  79.6930408
  81.9725647 116.1445172  78.1059778  80.2800198 118.9586051  78.9141564
  79.2911867 119.3761355  78.7244801  80.4180009 118.8256765  79.9871860
  81.0407050 119.6394199  78.5321248  78.7149769 118.2953386  74.6930111
  78.7353819 119.3125593  74.0453542  78.5117875 117.1171423  74.1191814
  78.4871856 116.2862380  74.6928470  78.3209947 116.9704774  72.6835918
  77.2632013 117.1108783  72.4611959  78.9032981 117.7413349  72.1788137
  78.7558852 115.6109101  72.1740470  79.3529121 114.8149767  72.9688494
  78.5945871 115.2829755  70.9157772  78.1285712 115.9839115  70.3575504
  78.9780400 113.9867227  70.2576544  78.6202323 113.1455297  70.8513438
  78.3705779 113.9059324  68.9068300  78.5500398 112.8600727  68.6576913
  77.3156070 114.0470558  69.1418206  78.7475559 114.7823186  67.7193348
  78.4644707 115.7963795  68.0015476  79.8298000 114.7271508  67.6018464
  78.0594639 114.4071167  66.3725947  77.3848382 113.3590966  66.2378914
  78.2088312 115.1895781  65.3577624  80.5039405 113.7394000  70.1142979
  81.2728148 114.6835688  69.7916980  80.9454397 112.4827559  70.3555880
  80.2525778 111.8558324  70.7390051  82.3454099 111.9357992  70.0835808
  82.9424368 112.3892852  69.2923738  83.1654890 112.0008041  71.4368219
  84.1092046 111.5259906  71.1683944  83.4486983 113.3305296  72.1692888
  82.5053914 113.8057310  72.4384638  84.0259707 113.1326489  73.0724493
  84.0149104 113.9930895  71.5146753  82.6300642 111.0616694  72.3644416
  83.1280334 111.1021154  73.1841923  82.2474232 110.4630501  69.6220768
  81.1683323 110.0078444  69.3652996  83.3381763 109.7395909  69.5286770
  84.1885294 110.2832401  69.5666843  83.4464621 108.2977560  69.3137718
  82.7671193 108.0343751  68.5030789  84.8658017 107.7964872  68.9523530
  85.2436766 108.4822295  68.1940211  85.4608447 107.8958212  69.8601838
  84.9560070 106.4563164  68.4689213  85.8727430 106.2468690  68.2757201
  82.9694698 107.4610302  70.5082099  82.7416272 107.9667609  71.6545555
  82.6939664 106.1771971  70.2396089  82.7534425 105.8558323  69.2839486
  82.1822974 105.2396896  71.2647940  81.4172906 105.7448875  71.8544030
  81.5771351 104.0172965  70.5898335  82.3093713 103.5286457  69.9470654
  81.1515209 103.0482567  71.7137216  80.4188939 103.5360746  72.3566773
  80.7103013 102.1533767  71.2748416  82.0244335 102.7701542  72.3042991
  80.3105785 104.3189812  69.7062545  79.5120058 104.5857795  70.3984980
  80.5644700 105.1845013  69.0942793  79.8349587 103.1597126  68.7902648
  79.5804288 102.2939322  69.4016065  78.9570742 103.4772927  68.2276273
  80.6328945 102.8926524  68.0973889  83.2618751 104.8844138  72.2815866
  84.2068600 104.1370160  71.9837374  83.2256385 105.3682521  73.5502999
  82.3609762 105.7364875  73.9202474  84.4105734 105.4569798  74.3660036
  85.3077438 105.6678197  73.7839976  84.1561268 106.6591475  75.3522185
  83.2659754 106.4585068  75.9484348  85.0157829 106.7767477  76.0119622
  84.0103464 107.5750209  74.7794855  84.6810256 104.0985625  75.0620345
  84.0193855 103.6909064  76.0103946  85.6626711 103.3140665  74.5795242
  85.9470299 103.5360435  73.6361443  86.3497791 102.2046372  75.2764964
  85.6120565 101.4583913  75.5714230  87.3783153 101.5440175  74.4040580
  86.9698545 101.4930849  73.3947687  88.2657803 102.1768724  74.4047913
  87.7525293 100.1470036  74.8696984  88.6004617  99.7996820  74.2793771
  88.0632008 100.2835496  75.9055254  86.6183252  99.1003401  74.8064084
  86.6300899  98.1702813  75.6580921  85.6518222  99.1731173  73.9654925
  87.0870070 102.7023360  76.5307695  87.2855164 101.9707768  77.5170575
  87.4754870 103.9646509  76.4056875  87.3176955 104.4048805  75.5104785
  88.3115789 104.6490031  77.3691678  87.8103331 104.7253146  78.3340660
  89.6082788 103.8328307  77.5503881  90.3563895 104.4156021  78.0877959
  89.4077282 102.9099025  78.0945232  90.3757428 103.3423868  76.0050073
  91.4007083 102.6990731  76.5568146  88.4412174 106.1416384  77.0611033
  87.9382818 106.6062978  76.0512536  88.9195487 106.8926972  78.0659546
  89.4543240 106.4733782  78.8131401  88.7232529 108.3284862  78.0834700
  88.8699105 108.7865125  77.1053071  87.2582025 108.5050351  78.4916706
  86.6888822 108.1396068  77.6370152  87.1610337 107.8025989  79.3194638
  86.7356919 109.8273226  78.9031699  87.3367425 110.2277758  79.7195498
  86.8096373 110.7605037  77.7199835  86.2084152 110.3609230  76.9033036
  86.4281544 111.7408658  78.0053983  87.8458425 110.8548747  77.3952168
  85.3011650 109.8511247  79.3477811  85.1756134 109.1924775  80.2071531
  85.0233323 110.8677011  79.6261384  84.6620591 109.5104923  78.5331572
  89.6553855 108.8970304  79.1371761  89.9209018 108.2785087  80.1725108
  90.3440564 109.9676859  78.7906690  90.1743532 110.2841153  77.8466497
  91.3629091 110.7312485  79.6396669  91.1367799 110.8558655  80.6986454
  92.7151266 110.0843985  79.5096562  92.5583345 109.0908526  79.9296361
  93.4267797 109.9575317  78.1242217  93.5843395 110.9507701  77.7038030
  94.3887120 109.4614391  78.2533633  92.8043835 109.3717689  77.4477562
  93.5245021 110.6621834  80.4078170  94.3987207 110.2697785  80.3498465
  91.4487972 112.2065293  79.2104178  91.3370437 112.4685041  78.0228815
  91.6464036 113.1273627  80.1576831  91.7884230 112.7387558  81.0790487
  91.7753959 114.5552890  79.9898696  91.2610342 114.8760893  79.0839897
  91.1415853 115.2820909  81.2029949  90.0654910 115.1109613  81.1740996
  91.5442577 114.9023827  82.1420245  91.4248837 116.7976901  81.0967777
  92.2193477 117.5329694  82.0286898  92.5620493 117.0353798  82.9359162
  92.5537508 118.8492473  81.7966421  93.1848798 119.3912392  82.5009309
  92.0499629 119.5076539  80.6405519  92.4101539 120.7970031  80.3588370
  93.0108546 121.1691656  81.0086473  91.2163038 118.8567886  79.7806607
  90.8328560 119.3519558  78.8885410  90.8531833 117.5311576  80.0574726
  90.0967740 117.0349597  79.4494161  93.2688669 114.8298828  80.0388163
  94.0275447 114.3930393  80.9580228  93.8004102 115.6417923  79.1024970
  93.2073391 115.8264693  78.3060924  95.1987475 116.0928231  79.0497160
  95.7671322 115.4825337  79.7515599  95.8756154 115.9929869  77.6347462
  95.0837919 116.3530203  76.9778667  96.7687884 116.6016373  77.4937261
  96.1977577 114.5176577  77.2935376  96.6907145 114.0593171  78.1508697
  94.8780267 113.7144993  76.9530093  94.3847239 114.1720032  76.0954305
  95.1317184 112.6810605  76.7169043  94.2070448 113.7362693  77.8117350
  97.3137003 114.4929520  76.1997590  98.2064566 114.9898122  76.5795163
  97.5530052 113.4599277  75.9473802  96.9610872 115.0118608  75.3084135
  95.2723152 117.4734253  79.7149298  95.0138840 117.6093792  80.9281366
  95.5282564 118.4992798  78.9544315  95.6898951 118.3538519  77.9681136
  95.5357094 119.8857323  79.4692138  94.9931425 120.0172670  80.4053863
  97.0411722 120.0992077  79.7372809  97.4100830 119.3102125  80.3926363
  97.5734316 120.0598872  78.7868842  97.2756686 121.4645877  80.3985873
  96.2624638 122.0097482  81.0383476  98.3686110 122.0780228  80.3721850
  95.0201852 120.8407906  78.3570337  94.9677099 120.4177709  77.2011623
  94.6583290 122.1007632  78.6719098  94.6979700 122.2849209  79.6641870
  94.2212282 123.1918919  77.7727312  93.8525681 124.0298537  78.3643466
  95.3923670 123.6820964  76.9017458  95.6247406 122.8813628  76.1996578
  95.0383504 124.5546399  76.3527103  96.6685524 124.0609258  77.6495794
  96.7064911 125.0038920  78.4509635  97.7589556 123.3830148  77.4508268
  98.6030579 123.6336869  77.9455534  97.7573736 122.6085404  76.8025307
  93.0709686 122.5525259  76.8971931  93.0637224 122.7281509  75.6665765
  92.0694607 121.8996954  77.4592769  92.2610554 121.7212541  78.4347509
  90.7777452 121.4191142  76.8938286  90.0843298 121.2818915  77.7235540
  90.3988145 122.1952313  76.2288827  90.8906250 120.0794041  76.0989299
  89.9424330 119.4855699  75.7061615  92.0908124 119.5634018  76.0068496
  92.8423285 120.0409943  76.4835341  92.4286191 118.4654014  75.1110685
  91.7304897 118.3995861  74.2765729  93.8281303 118.6016542  74.5598866
  94.5192463 118.7300158  75.3929419  94.2315986 117.3540730  73.7444060
  93.5411654 117.2253134  72.9108450  95.2437918 117.4818929  73.3607038
  94.1950552 116.4730750  74.3851935  94.0348444 119.8307817  73.6923285
  93.8318703 120.7276046  74.2776595  95.0646105 119.8555314  73.3358614
  93.3566324 119.7926936  72.8398740  92.0828046 117.2246598  75.8966133
  92.5188316 117.0716922  77.0364302  91.3311115 116.3370756  75.2179340
  91.0986290 116.5963281  74.2698626  90.8388419 115.0425174  75.7305106
  91.3541860 114.6770952  76.6187596  89.3137974 115.1477602  76.0464985
  88.8311719 115.6108570  75.1858515  88.6348564 113.7438180  76.3413598
  89.1166786 113.2802885  77.2022249  87.5755668 113.8892435  76.5531556
  88.7453802 113.0963515  75.4714902  89.0922023 116.1257530  77.1794083
  89.4692222 117.1072058  76.8918173  88.0263079 116.1958318  77.3963361
  89.6212071 115.7798110  78.0674279  91.1093632 114.0583830  74.5899516
  90.8749183 114.2532053  73.3644501  91.4521838 112.8799556  74.9799720
  91.7379985 112.7873457  75.9442503  91.4957455 111.6617621  74.1049628
  91.4213148 111.9701110  73.0621396  92.8075808 110.8595813  74.2914890
  93.5810086 111.6055627  74.1086762  92.9214320 110.4581860  75.2984745
  93.0710472 109.7316179  73.3497980  93.3265098 109.9900196  71.9964169
  93.4000936 111.0341023  71.6921527  93.4849010 108.9772227  71.0537803
  93.6600915 109.1980899  70.0008669  93.4140282 107.6436991  71.4893087
  93.5651950 106.8240334  70.7868867  93.1520512 107.3761327  72.8109949
  93.1184733 106.3257648  73.1003043  92.9328469 108.3769190  73.7723799
  92.6687691 108.1029623  74.7938057  90.3470680 110.7207952  74.3436327
  89.9975020 110.3547192  75.4923071  89.6605683 110.2588008  73.2920832
  89.9629321 110.5270842  72.3665026  88.4828755 109.3331711  73.4166484
  88.3360033 109.0506608  74.4591050  87.1477665 109.9062215  72.8645288
  87.2107197 109.8818588  71.7766213  85.8688262 109.1110754  73.3348814
  85.8049375 109.1353897  74.4227362  84.9772601 109.5710598  72.9087070
  85.9394381 108.0766466  72.9986187  86.8926080 111.3956631  73.2056838
  87.6934899 112.0066726  72.7893214  85.9390679 111.7082413  72.7800599
  86.8654838 111.5215425  74.2880514  88.6945399 108.0406159  72.6300576
  88.3987696 107.8223497  71.4509148  89.4521910 107.1675586  73.2718214
  89.8001427 107.4733392  74.1693331  89.8197107 105.8308073  72.8042005
  90.4114400 105.9567093  71.8975009  90.4359497 105.3751371  73.5792576
  88.6492997 104.9186125  72.5058101  87.6208894 104.9520778  73.1673592
  88.7387893 104.1392631  71.4554711  89.6202992 104.1790691  70.9640902
  87.6179983 103.3879809  70.8322668  86.9274923 103.0760620  71.6158529
  86.8630495 104.2059421  69.8254398  86.7551002 105.2365272  70.1635826
  87.3648908 104.1922225  68.8579342  85.5883390 103.6162793  69.7017312
  85.0679321 104.1100187  69.0637673  88.0164611 102.0008044  70.2909925
  89.0459298 101.8426868  69.6432156  87.1273437 101.0477903  70.4981915
  86.3826876 101.2331950  71.1548586  87.1718694  99.7090588  69.8376460
  88.1035047  99.5570095  69.2926361  87.0867347  98.6702498  70.9615151
  87.9195349  98.8696787  71.6358823  86.1465765  98.8496522  71.4830680
  87.1436348  97.1975563  70.4943476  86.3551808  97.0870434  69.7498827
  88.1147562  97.0706433  70.0158935  86.9707316  96.1458977  71.5732102
  86.5786932  95.2567297  71.0794642  87.9665306  95.9350848  71.9631357
  86.0871889  96.4885915  72.6977756  85.8590225  97.4704554  72.7608844
  85.4134399  95.6287980  73.4613301  85.5798325  94.3578065  73.3256090
  86.2270886  94.0073391  72.6339934  85.0621635  93.7184126  73.9115218
  84.7762914  96.0801764  74.4969484  84.7987802  97.0673794  74.7091383
  84.2606457  95.4423449  75.0863373  86.0649736  99.5364324  68.8788447
  86.3037413  98.8558602  67.9072021  84.9069157 100.1539044  69.0641453
  84.7459215 100.6840287  69.9086265  83.7945909 100.0309973  68.0867828
  83.8895289  99.0979591  67.5313320  82.4262534 100.0323472  68.8258442
  82.4271752 100.8861580  69.5034175  81.7174074 100.2114865  68.0174220
  82.0198414  98.7823072  69.5875043  81.5906093  98.1007752  68.8530829
  83.1550081  98.0688193  70.3482872  83.5844537  98.7496217  71.0832589
  82.7566138  97.1906567  70.8564341  83.9277400  97.7609777  69.6438589
  81.0040916  99.1158899  70.7061303  80.1115690  99.5609080  70.2662876
  80.7313567  98.2022116  71.2342486  81.4528150  99.8198676  71.4069596
  83.7893948 101.1554443  66.9789290  82.8896213 101.1084488  66.1100901
  84.7828389 102.0696719  66.9927380  85.3465740 102.1417563  67.8276667
  85.0856092 102.9521984  65.8787923  84.7625509 102.4215744  64.9831524
  84.4628994 103.8353155  66.0217466  86.5115218 103.3836237  65.7029331
  87.3936525 103.0044776  66.4465281  86.6937785 104.4182129  64.9724067
  85.9750785 104.6591932  64.3049502  87.9197211 105.2618966  65.0252417
  88.8172108 104.6574432  64.8939118  87.8418370 106.2843511  63.8746445
  86.8222090 106.6605105  63.9580838  88.5444612 107.1027324  64.0317157
  88.0548359 105.6881778  62.4731346  88.1372747 106.5109649  61.4950093
  88.0650512 104.4784902  62.1655430  88.0251714 105.9740189  66.4133379
  87.0703918 106.6017813  66.8150595  89.1778784 105.9752895  67.1171773
  89.9383186 105.3767760  66.8280205  89.3944993 106.8799549  68.2791868
  88.5593846 106.7556221  68.9685517  90.6919376 106.6072093  69.0315337
  91.5495370 106.8310975  68.3971075  90.7393575 107.2165924  69.9340322
  90.7129356 105.2213934  69.3901969  91.5233908 105.0263464  69.8663469
  89.5278477 108.3849492  67.8574627  90.0826937 108.6075290  66.8274768
  89.1471528 109.3776121  68.6899145  88.6747235 109.1644809  69.5567968
  89.3987654 110.7456333  68.3757123  89.8373761 110.8217235  67.3807599
  88.0424616 111.5808286  68.3993493  87.6854393 111.5219232  69.4275343
  88.3319258 112.6072524  68.1740391  86.9097673 111.1382022  67.4319200
  87.1320561 111.3668092  66.3896017  86.7535511 110.0651536  67.5426687
  85.6326521 111.8570730  67.8242029  85.1389106 111.6823007  68.9232156
  85.0377213 112.7136124  67.0426489  84.1887017 113.1669737  67.3488034
  85.4284636 112.9200490  66.1344608  90.3463537 111.3216609  69.3900976
  90.4341342 110.8182094  70.4908451  91.0851450 112.3539042  68.9344418
  91.4997680 112.3459051  68.0135058  91.4340336 113.4698946  69.8558333
  91.3588526 113.1543932  70.8964609  92.9259793 113.8992435  69.5651250
  93.5515631 113.0068861  69.5440932  92.8583753 114.3186800  68.5613308
  93.5271497 114.9045524  70.4829797  92.7872514 115.6533743  70.7656760
  94.0053154 114.1557083  71.7404975  94.7456267 113.4069805  71.4586384
  94.4529389 114.8640595  72.4376148  93.1563633 113.6652099  72.2167244
  94.7422602 115.4999766  69.8419754  94.4601617 115.9841163  68.9070270
  95.1837355 116.2366211  70.5132099  95.4687135 114.7132637  69.6383890
  90.3894716 114.6305473  69.7614852  89.9336931 114.9865313  68.6598158
  90.0074592 115.1771959  70.9372147  90.4429788 114.8884098  71.8015205
  88.8397334 116.1762034  71.0071757  88.6468555 116.8057522  70.1385183
  87.5280844 115.4701325  71.4049215  86.7161527 116.1902612  71.3035270
  87.2353836 114.2542786  70.5460697  88.0467126 113.5334479  70.6473085
  86.3007533 113.7964391  70.8700292  87.1480888 114.5581453  69.5029272
  87.1817287 115.0977135  72.8996516  87.1549643 116.0046089  73.5037430
  86.2084544 114.6083503  72.9365353  87.9423198 114.4227133  73.2920501
  89.1408253 117.3299707  71.9569992  89.4612628 117.0442261  73.1445479
  89.0839572 118.5461691  71.4965901  88.8236071 118.7081714  70.5342635
  89.2579263 119.7393119  72.4000738  89.9829061 119.5184563  73.1834807
  89.7714817 120.9340017  71.5774985  90.4748536 120.6175381  70.8072921
  88.9518558 121.4848557  71.1161164  90.4975504 121.8465684  72.5952844
  89.7872283 122.0415518  73.3987300  91.3367484 121.2702999  72.9848527
  91.0042018 123.1635367  72.0379982  91.4511479 123.7109031  72.8678947
  91.7740837 122.9249735  71.3041938  89.9236688 124.0261828  71.3812729
  90.3932731 124.7960250  70.7689696  89.2886115 123.4008082  70.7538113
  89.1199013 124.6514028  72.4086948  89.7080985 125.2312739  72.9899634
  88.4061160 125.2212247  71.9775179  88.6843251 123.9382187  72.9759169
  87.8986313 120.2241508  72.9324480  87.0685661 120.6400642  72.0847311
  87.7287582 120.1722271  74.2678490  88.3221489 119.4988501  74.7310447
  86.7281394 120.8638476  75.0565524  85.7210036 120.5484793  74.7839361
  86.9820934 120.4903912  76.5775911  88.0104193 120.8271579  76.7088663
  86.3194203 121.1001960  77.1916778  86.8677554 119.0321455  77.0017988
  87.6709167 118.4368032  76.5675173  86.9798604 119.0100076  78.4741019
  86.1767041 119.6047996  78.9091435  86.9036631 117.9823596  78.8293968
  87.9420789 119.4265011  78.7720434  85.6007481 118.3922353  76.4833373
  85.5923072 118.4322179  75.3941038  85.5586997 117.3527395  76.8085785
  84.7360428 118.9295240  76.8728301  86.6462715 122.3524836  74.8240990
  87.5845050 122.9900830  74.3682713  85.4754315 122.8754686  75.1282264
  84.7683403 122.1793813  75.3168628  85.0698093 124.2700245  75.0636003
  85.8858743 124.9295683  75.3587934  84.6829176 124.5867578  73.5952785
  84.2327582 123.6622082  73.2338040  83.9386818 125.3829791  73.5796377
  85.7939541 124.9590468  72.6876373  86.7241033 125.6622674  73.0269916
  85.7523429 124.5760393  71.4455858  86.5040916 124.8241456  70.8183563
  84.9684718 124.0322625  71.1139931  84.0236692 124.4881476  76.1432967
  83.0999280 125.2952428  76.0201484  84.0592038 123.7245751  77.2329789
  84.8758329 123.1431063  77.3559025  82.9189837 123.5716278  78.2086092
  81.9472065 123.3837132  77.7520609  83.1896982 122.4615718  79.2889324
  84.0921488 122.7102014  79.8473816  81.9650052 122.3804819  80.2789100
  81.0622063 122.1314182  79.7212161  82.1527743 121.6109844  81.0277203
  81.8322659 123.3429129  80.7730845  83.5890144 121.0737003  78.6982436
  84.5022170 121.1768413  78.1121337  83.7573934 120.3671745  79.5109979
  82.7867843 120.7061651  78.0583642  82.4854234 124.8920260  78.9109388
  81.2676477 125.1044875  79.0245507  83.4401211 125.7293922  79.1473013
  84.3691173 125.3662936  78.9884780  83.3086819 127.0147493  79.7882964
  82.2775105 127.1659058  80.1075714  84.2248037 127.0925496  81.0271999
  85.1600597 126.7693091  80.5701320  84.3477060 128.0962650  81.4340789
  83.8462178 126.1231801  82.1601009  82.7156438 126.2543989  82.6204714
  84.7449612 125.4225187  82.6494717  83.4506793 128.1658242  78.7621617
  83.5651259 129.3171633  79.1610818  83.1880617 128.0124722  77.4671049
  83.4796333 127.1043714  77.1347822  82.6472556 128.9424614  76.5182141
  83.2131159 129.8726219  76.5702022  82.7161866 128.4083405  75.0884923
  83.7154988 128.0367509  74.8617865  81.9894530 127.6100259  74.9379860
  82.4072151 129.5033783  74.2221103  82.4398867 129.2082027  73.3092008
  81.2249141 129.3972495  76.7668875  80.3268107 128.5626818  76.9489725
  81.0625101 130.7037698  76.5955063  81.9444033 131.1940938  76.6396201
  79.8441126 131.4863545  76.5075415  79.0121081 130.8618454  76.8328971
  79.8698304 132.7654831  77.3742287  80.3299186 133.6320312  76.8993472
  78.8010163 132.9424211  77.4943516  80.4762227 132.5834903  78.7214658
  80.0730012 131.6639733  79.3751614  81.5089434 133.2253444  79.1654493
  81.8545478 133.0380228  80.0958083  81.9642467 133.9104431  78.5794122
  79.3954445 131.8295263  75.1344126  78.3368954 132.4319932  75.0341561
  80.0695070 131.3514842  74.0866123  80.7663148 130.6369376  74.2414717
  79.8298752 131.8272568  72.6644537  78.7908269 132.1046034  72.4868115
  80.7374552 133.1272022  72.5089727  80.3986554 133.5747231  71.5746072
  80.4368023 133.7597439  73.3441966  82.2845346 132.9974329  72.4891907
  82.6868627 132.7710731  73.4766086  82.5223922 132.1829011  71.8050410
  82.8924230 134.2678789  71.9823499  83.7693084 134.1554916  71.0683755
  82.4979048 135.4037594  72.4079704  80.2012168 130.8475010  71.5636199
  79.7871122 131.0293557  70.4072215  80.8506520 129.7344225  71.7753371
  81.3420570 129.6483799  72.6535268  80.8814580 128.6136033  70.8586080
  81.1460752 128.9463203  69.8549266  81.9152783 127.6318346  71.3264398
  81.8229272 127.5067471  72.4052928  81.7436269 126.6745830  70.8341947
  83.3552250 128.1452377  70.9818243  83.3724375 129.1144536  71.4802468
  84.1342179 127.5080702  71.4005005  83.6379717 128.3519508  69.5188035
  83.5260167 127.3912369  68.7294032  84.1142781 129.4613135  69.1024963
  84.3005136 129.5897835  68.1181624  84.3024648 130.2049130  69.7595708
  79.5171027 127.9269380  70.8713559  78.8445677 127.9237257  71.9118871
  79.0403438 127.2788734  69.7885063  79.6018053 127.2925894  68.9490588
  77.8094338 126.5863339  69.7596867  77.0832139 127.2257194  70.2615732
  77.5372867 126.4832547  68.7092534  77.7938692 125.2308716  70.4034426
  77.0940519 124.9801910  71.3716817  78.5962468 124.3312879  69.8980443
  78.8014910 124.4477061  68.9159949  79.1552084 123.1517673  70.5969462
  78.3897925 122.6048301  71.1474891  79.7296677 122.2228867  69.4881791
  80.0527297 121.2975143  69.9650608  78.9244261 122.0072203  68.7859157
  80.7952445 122.7878614  68.8085941  81.1090928 122.1751543  68.1394984
  80.1996044 123.3740598  71.6573401  81.0846726 124.2660892  71.5644584
  80.3001925 122.4313239  72.5617940  79.5595707 121.7472015  72.5021674
  81.2356215 122.3887142  73.7817592  81.7877682 123.3219394  73.8927722
  80.3568040 122.1903634  75.0187631  79.8755323 121.2432644  74.7748772
  80.9080399 122.0871262  75.9534188  79.2777138 123.2930692  75.1745809
  78.0028301 123.0932365  74.6749276  77.6904430 122.1462086  74.2348687
  77.1080727 124.1535898  74.7488817  76.1431019 124.0535598  74.2519640
  77.4722910 125.4013163  75.3707559  76.5180772 126.3986992  75.5888789
  75.6413491 126.1518123  75.2855733  78.7993423 125.5529511  75.8552926
  79.0968281 126.4626804  76.3768243  79.7174610 124.5345267  75.6608635
  80.7711712 124.7005540  75.8849838  82.4672002 121.4735604  73.7210912
  83.1652407 121.4157969  74.6971792  82.6745199 120.7340184  72.5866247
  82.0822244 120.9577024  71.7996998  83.6403077 119.6284838  72.4429546
  84.6562904 119.8972901  72.7321285  83.2049272 118.3801031  73.2606333
  83.2255130 118.6639680  74.3128197  81.8436145 117.8586657  72.9106078
  81.8223873 117.5741429  71.8586111  81.6179928 116.9881282  73.5265297
  81.0993016 118.6340741  73.0918309  84.1225898 117.1208496  73.2856745
  85.0947003 117.3872394  73.7005719  83.6638692 116.3485703  73.9031367
  84.2519833 116.7446914  72.2708527  83.7882046 119.2728578  71.0029388
  82.7730731 118.9359836  70.3762564  84.9505557 119.4092961  70.4464644
  85.6273527 119.8430769  71.0579212  85.2480979 119.3531044  68.9988108
  84.4849549 118.7251923  68.5389866  85.1797483 120.7692939  68.3572036
  84.2567967 121.2502148  68.6812014  86.3819811 121.6366050  68.7700617
  87.3053393 121.1565247  68.4459730  86.3000495 122.6180653  68.3030249
  86.3933374 121.7504353  69.8540429  85.2549521 120.6501202  66.7803374
  84.4180540 120.0516952  66.4203499  85.2066030 121.6449552  66.3375447
  86.1920513 120.1715384  66.4958986  86.3918808 118.4299128  68.5769056
  87.4184729 118.4336426  69.1694348  86.1727377 117.5564088  67.5796493
  85.2241246 117.4038919  67.2682477  87.2342864 116.7006310  67.0272148
  87.5929148 115.9981723  67.7795689  86.5335735 115.9305817  65.9480214
  86.1766390 116.6196089  65.1825546  87.2268748 115.2184951  65.5003984
  85.6871425 115.3931065  66.3755423  88.5319248 117.5146047  66.5976775
  88.4680939 118.6945658  66.2719101  89.7002374 116.9116631  66.7665982
  89.7523600 115.9418699  67.0438773  90.9662491 117.6219905  66.4455930
  90.7439822 118.6653834  66.2219236  91.9731710 117.5711757  67.6295103
  91.9310386 116.5700605  68.0585703  92.9695751 117.7513300  67.2259966
  91.6749678 118.5835942  68.6939724  91.8413750 119.5387570  68.1959027
  90.6093356 118.4536734  68.8827863  92.5633836 118.5716745  70.2686626
  94.1402603 119.1552330  69.7216184  94.0285890 120.1455207  69.2800769
  94.8219671 119.2111576  70.5702932  94.5436978 118.4692739  68.9767696
  91.5987700 116.8744593  65.3458415  92.2800368 117.5119168  64.5234976
  91.5396912 115.5628151  65.3662455  90.8083220 115.2144571  65.9694412
  92.3448609 114.6395338  64.7037243  92.3832623 114.8588947  63.6367167
  93.7728492 114.7260873  65.2758745  94.1220430 115.7545502  65.1840761
  93.7427231 114.4457734  66.3287831  94.7396004 113.7839291  64.5190290
  95.6036301 113.8203570  65.1825246  94.4600261 112.7450168  64.3441044
  95.0926293 114.4496012  63.1837233  96.1435977 115.0525097  63.0051488
  94.2010839 114.5781639  62.3094405  91.6817423 113.2678713  64.9499373
  91.5871746 112.9120184  66.1740859  91.3237438 112.5013810  63.9184425
  91.3634880 112.8635685  62.9764552  90.7853848 111.1346756  64.1242022
  90.6063258 110.9786207  65.1880085  89.4988141 111.0383967  63.4108271
  89.7169914 111.2081946  62.3564706  88.7548352 109.7048366  63.5708611
  88.5358890 109.5345600  64.6249806  87.8223457 109.7385260  63.0074540
  89.3773661 108.8933739  63.1939206  88.5947642 112.0127649  63.9161293
  87.7587685 111.9463837  63.4488980  91.8098379 110.0886451  63.6511894
  92.7047391 110.2409831  62.8064534  91.5744864 108.8885566  64.2304184
  90.6907680 108.7504623  64.6995358  92.6238640 107.7777934  64.3179959
  93.4195927 108.0039399  63.6082263  93.2329550 107.6259039  65.6951915
  92.4396984 107.4513080  66.4220748  93.9793696 106.8356808  65.7758934
  93.9131510 108.9023973  66.0997743  93.2288382 109.8082303  66.9531965
  92.2528925 109.5799128  67.3815667  93.8604892 111.0499752  67.2435561
  93.3158654 111.7436207  67.8841352  95.1767502 111.4140553  66.7257976
  95.6456783 112.3625276  66.9877263  95.8617850 110.4840042  65.8459752
  96.8304352 110.6821400  65.3871079  95.1895423 109.2450212  65.5928808
  95.6622930 108.4858305  64.9697947  91.9599600 106.4827264  63.8045342
  91.1138373 105.9223560  64.5561242  92.2681123 106.0668360  62.5894860
  92.9414991 106.6552023  62.1199387  91.6280168 105.0351070  61.8359384
  90.5446387 105.1546015  61.8253442  92.1204065 105.0699222  60.4436132
  91.8494315 106.0658984  60.0933216  93.5744147 104.8142860  60.1518270
  93.8460331 103.8182475  60.5014415  93.7472497 104.8814418  59.0777146
  94.1846212 105.5577437  60.6646810  91.4309931 104.1348647  59.6672327
  91.7576653 104.1649590  58.7650243  91.6561546 103.6688666  62.4656252
  92.6031056 103.3343823  63.1008567  90.5910631 102.9173634  62.4187642
  89.7808418 103.3104670  61.9614784  90.4461105 101.6059207  63.1059483
  91.4336410 101.1582499  63.2176335  89.8062660 101.7345693  64.4944395
  90.4575336 102.3370362  65.1276720  88.9052487 102.3006030  64.2580634
  89.4103810 100.4936489  65.2530973  90.1402050  99.5440216  65.2492702
  88.3362548 100.5445529  65.9685348  88.0414387  99.7313343  66.4899356
  87.7962026 101.3973377  66.0032116  89.6935468 100.5563541  62.2162952
  88.5223977 100.8409419  61.8647934  90.2749573  99.4149682  61.8480328
  91.2595548  99.2949988  62.0384915  89.5664450  98.3405801  61.1347014
  88.9778361  98.7295840  60.3038496  90.6141757  97.4227283  60.5897415
  91.2095548  97.1847837  61.4712206  90.0945593  96.5267305  60.2502023
  91.5458040  97.9394703  59.4605151  92.1265760  98.7897605  59.8180223
  92.4734683  96.8337284  59.0629641  91.8934020  95.9831975  58.7048871
  93.1351319  97.1814412  58.2696181  93.0682454  96.5303318  59.9245272
  90.8050820  98.4583530  58.2149527  90.1562730  99.2876906  58.4966360
  91.5302686  98.7997279  57.4762586  90.2034299  97.6556000  57.7886883
  88.6029189  97.6073661  62.0284551  87.5129928  97.2656187  61.6110143
  88.8970822  97.2808115  63.2930246  89.7730511  97.6508476  63.6333936
  88.0591012  96.4300478  64.2349392  87.8558895  95.4784880  63.7436775
  88.6390287  96.2540653  65.1409268  86.7105704  97.0984173  64.6197779
  86.6051111  98.3195416  64.5835182  85.7503176  96.3334066  65.0377173
  84.5102973  96.8012921  65.5930720  83.9884116  97.3574595  64.8143465
  84.7497175  97.4711994  66.4189057  83.7242350  95.5464724  66.0579025
  82.8845044  95.3626708  65.3877022  83.3534350  95.6931780  67.0723414
  84.7612394  94.3790484  66.0065899  84.3741376  93.4016942  65.7184405
  85.2671529  94.2996203  66.9687970  85.7281302  94.8804211  64.9543202
  86.7267316  94.5470875  65.2367774  85.3588792  94.2866149  63.5915331
  84.3476441  94.6092989  63.0024893  86.1469151  93.2935813  63.1333622
  87.0407456  93.0705467  63.5473937  85.8027520  92.6767010  61.8610637
  85.0956098  93.2034507  61.2202954  87.1095842  92.4258491  61.0854124
  87.7717658  91.8727407  61.7515107  86.9322766  91.6336773  59.7537838
  86.2705412  92.1864245  59.0869424  87.9031682  91.5037463  59.2756748
  86.4990193  90.6564108  59.9667096  87.8832256  93.7809898  60.9154079
  87.3696596  94.3628353  60.1500278  87.8368422  94.3114562  61.8664881
  89.3348937  93.5874199  60.5145010  89.3820780  93.0573928  59.5632152
  89.8169217  94.5596983  60.4124086  89.8492602  93.0060114  61.2796750
  84.9004307  91.5383754  62.0372907  85.2409193  90.3875849  62.3118954
  83.5961690  91.7616410  61.9137793  83.2770380  92.6899668  61.6761539
  82.5540382  90.6699002  62.1170087  82.7404212  90.0898167  63.0208138
  81.1841661  91.3572545  62.2478649  80.3906952  90.6099458  62.2421330
  81.1505150  92.1222114  63.5628564  81.9434653  92.8700692  63.5691432
  80.1850129  92.6162084  63.6718204  81.2989296  91.4290864  64.3908977
  80.9258548  92.3281498  61.0724341  80.9471584  91.7758850  60.1329387
  79.9495967  92.7970271  61.1956159  81.6984661  93.0969098  61.0589877
  82.5202565  89.6763074  60.9229407  82.1045442  88.5380535  61.1168796
  82.9014890  90.1274000  59.7358551  83.1651573  91.1005998  59.6770294
  82.8123774  89.3500823  58.4851328  83.2798685  88.3740931  58.6155031
  81.3214347  89.1392440  58.1017868  80.7529093  88.9685543  59.0159767
  80.9176495  90.0069411  57.5800978  81.2170424  87.9053168  57.1974678
  82.1088981  87.0089608  57.1804918  80.2406549  87.7978302  56.4298272
  83.6729173  89.9697222  57.3442663  83.7111450  91.1910380  57.2594881
  84.2943643  89.2200857  56.4784142  84.1413161  88.2267845  56.5785556
  85.2467876  89.6822111  55.4453885  84.9089578  90.6347594  55.0371949
  86.6746929  89.8759197  56.0486318  87.1673962  90.5331492  55.3321180
  86.4890161  90.4218259  56.9736240  87.5521276  88.7020813  56.3316400
  86.9466205  87.9241440  56.7966944  87.9509269  88.3347541  55.3860545
  88.8871268  89.1131995  57.4017629  89.7267335  87.4787339  57.2087947
  89.9769624  87.3198119  56.1598770  90.6388574  87.4655454  57.8054158
  89.0604110  86.6852145  57.5470882  85.3373524  88.8040201  54.2477974
  85.2899961  87.5629969  54.3776010  85.6892386  89.3943119  53.1301693
  85.8743649  90.3871467  53.1198441  85.7062553  88.6826763  51.8761871
  85.7889435  87.6154572  52.0818697  84.4228259  88.9281689  51.0258911
  84.4546980  88.3191168  50.1224870  83.5379629  88.6689341  51.6071954
  84.1839202  90.5921498  50.4863232  83.0456051  90.3656211  49.8368452
  86.9491642  89.0063833  51.0938393  87.4498594  90.1652310  51.2194670
  87.4923427  88.0877203  50.2818113  87.4523825  87.1087956  50.5271867
  88.3643614  88.4937983  49.1596688  88.6397741  89.5483317  49.1740327
  89.6681380  87.6387087  49.1129211  89.3760717  86.6681275  49.5138808
  90.3699053  87.4447231  47.7760598  90.6627036  88.4149063  47.3746686
  91.2572740  86.8276453  47.9170996  89.6929424  86.9525199  47.0778057
  90.7236560  88.1719199  50.1328689  90.3114166  88.1255078  51.1408405
  91.6229743  87.5582922  50.0800735  90.9743576  89.2046648  49.8906142
  87.6870917  88.6062830  47.8763770  86.9234639  87.6988591  47.6008712
  87.9590728  89.6560812  47.1032922  88.4319604  90.4378207  47.5338267
  87.3906240  89.8394846  45.7841318  87.3090481  88.8536065  45.3264322
  86.0210661  90.5613518  45.6555353  86.1219544  91.6123895  45.9261654
  85.5695901  90.4529094  44.2170713  85.4680244  89.4020935  43.9458310
  84.6081769  90.9527076  44.0988049  86.3065412  90.9256158  43.5677998
  84.9349999  89.9783965  46.6113555  85.2673456  90.0796423  47.6445049
  84.0006850  90.5231569  46.4757409  84.7769386  88.9244335  46.3827084
  88.5029368  90.3845338  44.8871354  89.0279115  91.4989068  45.1003616
  88.8610296  89.6363786  43.8611323  88.6833233  88.6474380  43.9636812
  89.6794866  90.1004995  42.6708710  90.5027273  90.7458549  42.9772861
  90.2655135  88.8330610  42.0095071  90.6675152  88.1820208  42.7858064
  89.5350225  88.2825631  41.4166877  91.3857305  89.3011435  41.1172713
  91.8998681  90.4662591  41.2221382  91.8100537  88.5384130  40.1972828
  89.0241240  91.0920376  41.6504921  88.6006776  90.6999678  40.5266133
  88.8650308  92.3215633  42.1178580  89.3476381  92.5887098  42.9639207
  88.0410225  93.3723811  41.3973483  86.9920822  93.0930723  41.2983031
  88.1371898  94.6243441  42.3126245  89.1570015  94.4722661  42.6661152
  88.0545185  95.6110322  41.8568702  87.1573354  94.5241714  43.5065749
  86.9546247  93.4643907  43.6610878  87.6704870  95.1356433  44.8007289
  87.8729960  96.1955925  44.6471169  86.9186505  95.0193077  45.5813111
  88.5881909  94.6309861  45.1027901  85.6915488  94.9247365  43.2256991
  85.2813007  94.2813615  42.4473260  85.1029592  94.8130621  44.1362991
  85.6549848  95.9627366  42.8950666  88.7311556  93.6554592  40.0279151
  89.9198177  93.8872384  39.9182571  87.8948880  93.5695871  38.9389021
  86.9633921  93.2703302  39.1896210  88.2507941  93.6498455  37.4741880
  87.3270085  93.6615494  36.8957571  89.0939740  94.9355743  37.1056706
  90.0917383  94.8258251  37.5305480  89.1669502  94.9993418  36.0199873
  88.4396334  96.2239070  37.6542572  87.4031895  96.3079048  37.3274098
  88.4690049  96.0818810  38.7345651  89.1897445  97.4942838  37.2901565
  90.4411754  97.5348936  37.5097025  88.6430780  98.4509279  36.7077873
  88.8491624  92.3536668  36.9263438  89.4567651  92.3981260  35.7864269
  88.7919090  91.2055251  37.6323349  88.1538207  91.1941889  38.4151594
  89.6996156  90.0787491  37.4649713  89.7810513  89.5224435  38.3987762
  89.1604375  89.1193153  36.3582452  89.1287864  89.6238274  35.3925512
  89.7846885  88.2290205  36.2821807  87.6768917  88.6955473  36.7876232
  87.5430072  88.7392087  37.8684884  86.9246331  89.3182395  36.3034090
  87.5270336  87.2824216  36.3240204  87.6327246  87.2985029  35.2392763
  88.3541263  86.7228076  36.7608834  86.3081903  86.6262973  36.6536382
  85.5369650  87.2235879  36.9154679  86.1011553  85.3178439  36.5872967
  87.1342915  84.5025759  36.2874521  88.0496794  84.8940695  36.1174584
  86.9872835  83.5047393  36.2344389  84.9175148  84.8737842  36.8754618
  84.1891161  85.5214531  37.1401512  84.7295001  83.8823104  36.8338814
  91.1793199  90.4415675  37.2696561  91.8462953  89.9416609  36.4033847
  91.7209951  91.3264970  38.1301773  91.0543844  91.7237396  38.7766506
  93.0615801  91.9106760  38.0695072  93.3229420  92.1402243  37.0365035
  93.1057072  93.2235124  38.8956249  92.1527543  93.7206459  38.7144114
  93.1615545  92.9156741  39.9397593  94.2167031  94.1604278  38.5964597
  94.3404645  94.9306684  39.3577175  95.0804705  93.4957112  38.6091016
  94.1380992  94.8476571  37.2014682  93.2931325  94.5372584  36.3865174
  94.9166451  95.8609367  36.9941427  94.8967184  96.3351031  36.1025875
  95.5403139  96.1725454  37.7249221  94.2188595  90.9302798  38.3528669
  95.3290877  91.2788318  37.9658386  93.9270968  89.7318841  38.8806672
  92.9592737  89.4929596  39.0429412  94.9661065  88.7369716  39.2385022
  94.5356605  87.7450561  39.1009558  95.8011875  88.8686829  38.5504678
  95.4708617  88.8600620  40.6501378  96.4127686  88.1912580  41.1178286
  94.8367497  89.6587185  41.4496149  93.9612095  90.0076416  41.0865979
  95.2725131  90.1253359  42.7058982  95.7861960  89.3403943  43.2609619
  96.2899143  91.3151287  42.4516664  97.1291486  90.8973817  41.8955437
  95.7706678  92.0451933  41.8307889  96.8102990  92.0027969  43.7238472
  96.2033567  92.8805501  43.9458184  96.6387874  91.2412704  44.4846121
  98.2851321  92.4064792  43.7601533  98.6977746  93.0906685  42.8073673
  99.0524674  92.1361501  44.7885111 100.0224049  92.4176250  44.7787902
  98.6699959  91.6477152  45.5855358  94.1383766  90.5472548  43.5938137
  93.6198632  91.6400962  43.4389381  93.6337153  89.6280511  44.3520983
  94.0230431  88.7072526  44.2083857  92.5994466  89.7875446  45.3529490
  91.6422910  89.7958818  44.8315252  92.6472383  88.9189811  46.0097691
  92.7166053  91.0507671  46.1931680  93.8175715  91.3838184  46.6438878
  91.5772361  91.6875617  46.4817079  90.7033272  91.5215206  46.0033640
  91.6141766  92.7634446  47.5807531  92.6517116  92.8677135  47.8981618
  91.0898636  94.1357388  47.1698960  90.0035359  94.0994177  47.0882120
  91.3727251  94.8721900  47.9220456  91.7004049  94.5379346  45.7946201
  92.7851567  94.5263442  45.6884128  91.2609360  93.8137652  45.1086552
  91.1989597  95.9026470  45.4355856  90.9729372  96.7349743  46.2833657
  91.1703496  96.2785642  44.1412538  90.8332447  97.1976682  43.8928398
  91.4861515  95.6393917  43.4258315  90.7726146  92.1617249  48.6863817
  89.7524598  91.4840325  48.3907685  91.0364778  92.5662581  49.9484012
  91.8426371  93.1648270  50.0575877  90.2842790  92.2029357  51.1339166
  89.7089319  91.2929837  50.9634397  91.2765942  91.9493581  52.2822263
  91.9812891  91.1722215  51.9863158  91.7977316  92.9041444  52.3522179
  90.6768232  91.6006040  53.6321057  90.0204068  92.4285496  53.8999198
  89.8874234  90.2833278  53.6863390  90.5433407  89.4548099  53.4190763
  89.5028280  90.1308747  54.6947760  89.0553575  90.3285821  52.9836877
  91.7263181  91.3408303  54.7182696  92.3380592  92.2327294  54.8538730
  91.2268599  91.0974229  55.6560306  92.3615383  90.5073151  54.4185252
  89.3306152  93.3284377  51.4813422  89.7327697  94.4687001  51.5337489
  88.0384034  92.9564120  51.7145493  87.8310226  91.9924472  51.4957703
  86.9496871  93.8240971  52.0660009  87.3274179  94.7782844  52.4333499
  86.0823947  94.0809813  50.8648200  85.5675090  93.1554257  50.6072567
  85.0533184  95.1766849  51.1384282  85.5674962  96.1027364  51.3956264
  84.4447500  95.3348191  50.2480695  84.4125148  94.8752932  51.9670628
  86.8181836  94.5197570  49.5978213  87.5273682  93.7464346  49.3026402
  86.0980210  94.6771937  48.7949022  87.3542923  95.4487935  49.7916757
  86.1308986  93.4068092  53.2884424  85.4392739  92.4129235  53.3278555
  86.3570837  94.1730318  54.3172598  86.8513901  95.0431828  54.1808863
  85.8859042  93.8285055  55.7085199  85.6224850  92.7718898  55.7561928
  86.9454297  94.1132383  56.7618208  86.5545818  93.7338097  57.7059459
  88.3216050  93.4896053  56.4905621  88.7133259  93.8689399  55.5467615
  89.0051491  93.7510247  57.2983533  88.2249209  92.4053926  56.4336808
  87.0859815  95.5432332  56.8273485  87.7488493  95.7698615  57.4837372
  84.6562306  94.6727490  56.0847415  84.6526452  95.8717349  56.0759702
  83.7222670  93.9751948  56.6881843  83.5689633  92.9988261  56.4800944
  82.8397713  94.6288260  57.6864055  82.3885625  95.5228131  57.2559442
  81.6966662  93.6496708  58.1180614  82.0729590  92.8377672  58.7404082
  80.8961724  94.1693556  58.6445948  80.9435346  92.8831566  56.7152543
  80.0677200  92.1588704  57.4060919  83.6382737  95.0446335  58.8977804
  84.6446414  94.4257144  59.2690488  83.3326157  96.2362942  59.4989784
  82.4083494  96.5123439  59.1995996  84.1027460  97.1699660  60.3346705
  84.6014537  96.6082428  61.1245166  85.1903121  97.9500882  59.5093837
  86.0130081  97.2977148  59.2166728  84.7608390  98.4132648  58.6210593
  85.6635083  98.9361718  60.3614509  86.3368316  99.4517377  59.9115316
  83.2290302  98.1301525  61.1344157  82.1044485  98.5370941  60.8199011
  83.6866568  98.4420735  62.3408589  84.5814928  98.0744748  62.6310986
  82.9393084  99.3123011  63.2904464  83.5425063  99.4350603  64.1899916
  82.7887908 100.2835735  62.8191995  81.6073337  98.7435950  63.6707920
  81.3897967  97.5101849  63.6340345  80.7468361  99.5835459  64.2758949
  81.1467395 100.4750839  64.5315054  79.3683656  99.2807585  64.7180744
  78.9430767  98.7036360  63.8970031  79.3559681  98.4138849  65.9850711
  79.7705306  98.9813554  66.8182668  78.3312583  98.1240963  66.2176491
  79.9573013  97.5198518  65.8201394  78.4779781 100.5616851  64.8771537
  79.0256544 101.6466394  65.1925326  77.1583036 100.4277272  64.7772820
  76.8139574  99.4950100  64.5996203  76.1675878 101.5319521  64.9161688
  75.1759348 101.2037779  64.6046798  76.1051464 101.9502546  66.4058738
  77.0777689 102.3343786  66.7133694  75.3334394 102.6810160  66.6478575
  75.8272184 100.7153958  67.2721207  74.6307186 100.0945264  67.3811463
  73.7995712 100.4914500  66.7982695  74.4414566  98.9995289  68.1910626
  73.4703486  98.5109265  68.2705465  75.5390118  98.5106022  68.9285288
  75.4152956  97.6330798  69.5631537  76.8237929  99.1673254  68.8459209
  77.7072413  98.8239903  69.3841960  76.8997584 100.2885232  68.0307653
  77.8258708 100.8607172  67.9759042  76.6355373 102.7392704  64.0443225
  76.9154841 102.5234915  62.8809157  76.6560449 103.9605634  64.5521825
  76.2808955 104.1057528  65.4786178  77.0788433 105.1623991  63.7595089
  76.5206523 105.2263451  62.8254678  76.7870063 106.4255423  64.5956606
  76.8985369 107.2979421  63.9517828  75.7599640 106.3698258  64.9564651
  77.7346430 106.5453696  65.7802822  77.5596742 105.7236447  66.4747280
  78.7662237 106.5108867  65.4299194  77.4791046 107.8925061  66.5002249
  77.2616015 108.6624288  65.7599477  76.6289593 107.7866501  67.1741291
  78.7296428 108.2962245  67.3096764  79.1337282 107.4047258  67.7893072
  79.4696613 108.7051315  66.6217325  78.4031018 109.3098195  68.3446329
  77.7177174 108.9309604  68.9824525  79.2404534 109.5517069  68.8549591
  78.0290502 110.1361462  67.9003711  78.5125400 105.0271377  63.3041673
  78.8600131 105.5665731  62.2740557  79.3332779 104.2931145  64.0751889
  79.0756039 104.1370913  65.0392222  80.7418504 103.9570656  63.6472909
  81.1664961 104.7618911  63.0472650  81.5661465 103.7843815  64.8525553
  81.2400839 102.8313818  65.2691773  82.5831361 103.6854741  64.4730168
  81.5312853 104.8597208  65.9473325  80.5249762 104.8881958  66.3652224
  82.2270446 104.4919335  66.7014881  81.9322152 106.2271466  65.5293518
  81.1210489 107.1538224  65.6355687  83.1207570 106.3760606  65.1302541
  80.8874506 102.8888220  62.5686542  81.9313991 102.7793137  61.9004697
  79.7937131 102.2457695  62.1049349  78.9213735 102.5483497  62.5142857
  79.7554099 101.1625871  61.0751996  80.3808203 100.3358485  61.4120442
  78.7269593 100.8184178  60.9659460  80.2510869 101.6380395  59.7518530
  79.7433045 102.5686929  59.1472687  81.1700344 100.7922579  59.2946812
  81.4402540 100.0505151  59.9246798  81.9166086 100.9376593  58.0127095
  81.2964066 101.4600447  57.2843126  83.2386987 101.7594017  58.2277704
  83.8343646 101.7109196  57.3162163  82.9772461 102.7969756  58.4355754
  84.0004490 101.2274542  59.3271818  84.8020491 101.7434251  59.4403680
  82.2481338  99.6706690  57.1984451  82.1298128  98.6053509  57.7047440
  82.7758926  99.8693356  55.9465504  82.7239807 100.8148170  55.5951682
  83.3287083  98.8799914  55.1168222  83.4874334  97.9598870  55.6792397
  82.3637588  98.5863462  53.9567085  82.3055274  99.5833376  53.5199974
  82.9013478  97.9239095  53.2782722  80.9051438  98.0285532  54.1906261
  80.3485697  98.7446080  54.7952678  80.2083608  97.8226043  52.9078539
  80.7641346  97.1062680  52.3028113  79.2059299  97.4380789  53.0959317
  80.1391145  98.7709804  52.3750424  80.9289339  96.7424287  55.0334410
  81.3802544  96.9513205  56.0033757  79.9100836  96.3827580  55.1772546
  81.5133500  95.9803367  54.5179097  84.6733388  99.4136500  54.6454134
  84.8507727 100.5905509  54.3319303  85.6642072  98.4911690  54.6014747
  85.5437687  97.5095123  54.8062769  87.0264171  99.0027514  54.4287506
  86.9725954  99.9083232  53.8244807  87.7063465  99.3180637  55.6828591
  88.0054674  98.3577745  56.1029432  88.5946659  99.8828748  55.4000571
  86.8816152 100.1364659  56.7672651  86.6563647 101.1318371  56.3843823
  85.9511877  99.6152882  56.9926104  87.7008512 100.2555200  58.0139324
  87.8395193  99.2602737  58.4362534  88.6715294 100.6778764  57.7541279
  87.0723919 101.1100555  59.0232871  86.1908713 100.7321446  59.3398373
  87.4803904 102.2646689  59.5238220  88.6599094 102.8407482  59.3301175
  89.3499516 102.3882104  58.7477504  88.8622553 103.7291282  59.7659350
  86.7056861 102.9128968  60.2983586  85.7933045 102.5415696  60.5214640
  87.0070857 103.7954575  60.6861001  87.7547069  98.0362888  53.5400284
  87.4551714  96.8228697  53.4200388  88.6782016  98.5626353  52.7045699
  89.0161058  99.4923848  52.9082510  89.1483865  97.8915443  51.4343487
  88.8667007  96.8415306  51.3554585  88.5354603  98.6754206  50.2630535
  88.8617649  99.7075146  50.3911453  88.8989422  98.1986593  48.8639200
  88.5725156  97.1667181  48.7349098  88.4060246  98.8302099  48.1248145
  89.9789402  98.2571613  48.7287124  87.0283936  98.7203278  50.3498834
  86.6823649  97.7938181  49.8916863  86.7973342  98.7067027  51.4150244
  86.3402508  99.8826266  49.7052920  86.5704794  99.8966467  48.6399760
  85.2629439  99.7893981  49.8424688  86.6854508 100.8095319  50.1633130
  90.6965169  97.8065925  51.4124974  91.3177807  98.8019281  51.3436181
  91.2747400  96.6284866  51.5540413  90.6536876  95.8501053  51.3851754
  92.6579071  96.3406819  51.9686860  93.2078939  97.2816859  51.9798778
  92.8684322  95.6270145  53.2606299  92.4250470  94.6317821  53.2286548
  94.4237726  95.5016938  53.4675215  94.8678327  96.4966069  53.5000660
  94.6255402  94.9834819  54.4049899  94.8565312  94.9380878  52.6409821
  92.1512413  96.3559080  54.4622078  92.7878335  96.1916094  55.3316082
  92.1502704  97.4159383  54.2083686  90.7109332  95.9033102  54.7864129
  90.7111698  94.8434148  55.0408172  90.3298862  96.4788364  55.6300194
  90.0736069  96.0677418  53.9175761  93.3309458  95.5133120  50.8560854
  93.1192552  94.3068948  50.6240456  94.2392928  96.2640420  50.1508138
  94.4750663  97.1524394  50.5694547  94.9554785  95.8551753  48.9312392
  94.5953461  94.8803190  48.6025155  94.7293708  96.8502698  47.8236562
  93.6521630  96.8934124  47.6628415  95.0792499  97.8125865  48.1973289
  95.4271187  96.5330796  46.5061455  96.4938970  96.7286143  46.6150082
  95.2735552  95.4802717  46.2692578  94.8450508  97.4251055  45.3398927
  93.7747783  97.2481819  45.2335264  95.0189265  98.4795481  45.5544099
  95.5226864  97.0790174  44.0406140  95.0495748  96.3234995  43.5657904
  96.6730778  97.5280719  43.5344591  97.2354882  98.5668012  44.0478712
  96.8032726  99.0362451  44.8307583  98.1060657  98.9069824  43.6651557
  97.2238591  97.0436471  42.4133852  96.7629473  96.3003062  41.9083064
  98.0974884  97.4239918  42.0784100  96.4550780  95.9193517  49.2604982
  96.9362254  96.8245547  49.9663735  97.2226418  94.9183958  48.8750193
  96.7684678  94.0597888  48.5982171  98.7566556  94.9532906  48.9045831
  99.1480903  94.9439454  49.9218298  99.2018405  93.7102580  48.2112214
  98.8388231  92.8445906  48.7652410  98.7040485  93.7559370  47.2426056
 100.6834691  93.5502360  47.9842970 101.2199091  94.2537543  47.1848915
 101.3105759  92.7013536  48.7160708 102.3039598  92.5682488  48.5912856
 100.8073879  92.1709059  49.4128691  99.4491727  96.2270699  48.2819241
  98.8949666  96.7722697  47.3342883 100.6141151  96.6281631  48.8562172
 100.9157878  96.0567182  49.6324541 101.4299613  97.7448444  48.4765729
 101.3489995  97.9728745  47.4137716 100.8685030  98.9450517  49.2856607
 100.9511216  98.7354361  50.3521200 101.4384114  99.8430706  49.0471932
  99.8212276  99.1004869  49.0265212 102.8830873  97.5549398  48.7927172
 103.2059829  96.5759200  49.4161591 103.7709656  98.4908926  48.3468189
 103.4198574  99.3192763  47.8879040 105.1948639  98.3773192  48.5591879
 105.6769127  97.5456002  48.0454062 105.7926855  99.6945462  48.0315818
 105.3263486 100.5364593  48.5432576 106.8666755  99.7068265  48.2173099
 105.6088347  99.7741511  46.9601523 105.5208432  98.2612465  50.1150255
 105.6637762  99.2839847  50.7987548 105.7548098  97.0067005  50.5669713
 105.5084626  96.3369404  49.8522448 106.0972716  96.5099223  51.8865153
 106.0312234  95.4224361  51.9198386 107.5338123  96.9123110  52.1053837
 107.6145791  97.9991005  52.0838119 107.8718035  96.5425194  53.0734315
 108.1550155  96.4866172  51.3173542 105.0140742  96.9463814  52.8919544
 105.3584984  97.4548102  53.9766277 103.7583911  96.9753360  52.5024180
 103.4891788  96.3701269  51.7399574 102.7221298  97.8717342  53.0940383
 102.6950796  97.8694814  54.1836999 102.9931386  99.2736528  52.6230600
 103.0141499  99.2937591  51.5334480 102.2066095  99.9368724  52.9830767
 103.9554048  99.6080992  53.0107306 101.3854873  97.3497910  52.6387887
 101.2312260  96.3385905  51.8990902 100.3768161  98.0792572  53.1045263
 100.5523324  98.8285501  53.7586314  98.9599258  97.8817573  52.6006676
  98.9921576  97.2386052  51.7212270  98.0217011  97.2320113  53.6574823
  98.1370165  97.8869134  54.5211401  96.9779255  97.2260340  53.3434810
  98.4490743  95.8108654  54.0343661  99.5379860  95.7935330  53.9888482
  97.9985277  95.3408951  55.3833875  96.9096314  95.3575119  55.4295123
  98.3533232  94.3240827  55.5516536  98.4043070  95.9986163  56.1520529
  98.0212753  94.7916617  52.9480914  98.4873830  95.0547783  51.9985585
  98.3380801  93.7912431  53.2428771  96.9370504  94.8111068  52.8377406
  98.2325140  99.1887085  52.2927579  98.1643347 100.0492966  53.1736267
  97.6793429  99.3808918  51.0908089  98.0745551  98.8739167  50.3117820
  96.6688374 100.4001784  50.8133630  96.9366690 101.2932296  51.3780091
  96.5260385 100.7864021  49.3068340  97.5198028 101.2174531  49.1854797
  96.3462374 100.0602786  48.5140438  95.5376993 101.9113931  49.0954507
  95.3050049 103.0206958  49.9414659  94.5631844 103.8916037  49.2447587
  94.1638835 104.7507807  49.7837138  94.4485327 103.5350765  47.9872515
  94.0953804 104.0899675  47.2207796  94.9030632 102.2393535  47.8807342
  94.7354512 101.6767609  46.9623133  95.3552896 100.0566391  51.4173521
  94.7950864  98.9466342  51.2397612  94.8492900 101.0505236  52.0976058
  95.3740842 101.9061907  52.2095171  93.5395598 100.9519645  52.7390127
  92.9093749 100.1266236  52.4076841  93.7888282 100.8318320  54.2820070
  94.2569061 101.7557795  54.6216016  92.4984213 100.6001283  55.0607024
  92.0299753  99.6760536  54.7219622  92.7240318 100.5238121  56.1243642
  91.8175358 101.4346560  54.8931985  94.8265881  99.7822566  54.5996499
  94.6642112  99.0153702  53.8422730  95.7747843 100.2850725  54.4093875
  94.8636218  99.1290581  55.9895593  93.9158663  98.6256153  56.1803598
  95.6748744  98.4021084  56.0284527  95.0264372  99.8953185  56.7474748
  92.5620904 102.1130529  52.5001918  92.9678956 103.2231202  52.7471388
  91.3211105 101.7756733  52.1102947  91.0851752 100.7957162  52.0461248
  90.2526408 102.8068041  51.7298688  90.6654347 103.8086730  51.8480175
  89.7840400 102.6364393  50.2734227  89.6289856 101.5693117  50.1143749
  88.8313458 103.1586207  50.1851029  90.7731576 103.1803531  49.2061453
  90.9182119 104.2375272  49.4285030  91.7120058 102.6464970  49.3533317
  90.3117408 103.0199552  47.7285557  91.0969958 103.4224286  47.0886427
  90.1925869 101.9547643  47.5303886  89.0462483 103.7038508  47.4098367
  89.1390609 104.6740540  47.6747723  87.9760753 103.3363867  46.7160745
  87.6914933 102.1083908  46.3517615  88.3144301 101.3536111  46.6014762
  86.8508291 101.9236518  45.8233157  87.0347992 104.2269287  46.5757457
  87.1449396 105.1427842  46.9870582  86.1996602 103.9969945  46.0563500
  89.0540810 102.6214847  52.7117060  88.7225818 101.4804438  52.9726254
  88.3572624 103.6999308  53.1412917  88.5707730 104.6411203  52.8435083
  87.2167754 103.4969667  54.1029491  86.9516024 102.4522108  54.2650222
  87.6845976 104.1047012  55.4516400  88.0073858 105.1178707  55.2120660
  86.6615456 104.1502178  56.6175798  86.3386267 103.1373016  56.8580455
  87.1283877 104.5998588  57.4939248  85.7980023 104.7455085  56.3208941
  88.8072897 103.4404228  55.9670929  89.0645234 103.8449255  56.7988432
  85.8315811 104.1471147  53.7589602  85.7489188 105.3843927  53.6105516
  84.8078332 103.3430694  53.5785513  85.0016687 102.3542447  53.5096109
  83.4223847 103.7892821  53.4389060  83.3600119 104.8244163  53.1031889
  82.6918848 102.8978895  52.4212719  82.5938815 101.9240454  52.9009825
  81.2910256 103.3808593  51.9352159  81.3882987 104.3545042  51.4549508
  80.8861170 102.6631872  51.2217061  80.6181219 103.4629453  52.7887756
  83.5420312 102.7154992  51.1895735  84.4856456 102.2446385  51.4652256
  83.0159621 102.0826903  50.4747980  83.7399903 103.6871211  50.7369547
  82.5648570 103.7978950  54.7290587  82.4463977 102.7115298  55.3607969
  81.9894234 104.9145936  55.1711914  82.4488008 106.2547418  54.7174082
  82.1992241 106.4001037  53.6663699  83.5268291 106.3458352  54.8502844
  81.6646427 107.1911091  55.6435737  80.6786885 107.4303859  55.2451517
  82.2075769 108.1141324  55.8469251  81.5628087 106.3182236  56.9171241
  80.7551941 106.7190504  57.5296561  82.4747187 106.2607467  57.5114440
  81.1901465 104.9446368  56.4109301  81.5170024 104.1215142  57.0463297
  79.6518878 104.8061227  56.1260037  79.0183833 105.5318465  55.3640798
  79.0558332 103.7574333  56.5995135  79.6090793 103.1001379  57.1305320
  77.5868587 103.5158313  56.4845330  77.2651771 103.7202539  55.4633417
  77.2378016 102.0860587  56.8233992  77.5222665 101.9965258  57.8718089
  76.1718965 101.8839027  56.7181401  78.0452313 101.0609416  55.9783750
  79.1087345 101.2056081  56.1684629  77.6591001  99.6571488  56.3411068
  76.5957535  99.5115742  56.1508415  78.2349605  98.9542845  55.7390542
  77.8656793  99.4843435  57.3973093  77.9897305 101.2134446  54.4563636
  78.3768889 102.1925911  54.1744417  78.5952218 100.4359957  53.9904724
  76.9575010 101.1205028  54.1187792  76.7124237 104.3143172  57.4863806
  75.5883503 104.6350327  57.1192369  77.1824849 104.5107532  58.6953915
  78.0935006 104.0835496  58.7828382  76.5235314 105.0549490  59.9421601
  77.2213820 105.0222933  60.7788424  76.1013677 106.4977215  59.7178514
  75.3467906 106.4007603  58.9372675  75.6285880 106.8376216  60.6392890
  77.1527835 107.5099386  59.2839648  77.8812043 108.2074179  60.2668522
  77.7682514 107.8507002  61.2906166  78.7109374 109.2960084  59.9947954
  79.0704998 109.9270677  60.8075567  78.9299987 109.6894322  58.6264811
  79.8275019 110.6789436  58.3030770  80.2659070 111.0532399  59.0707377
  78.3315025 108.8912783  57.6264703  78.6038192 109.0982150  56.5915204
  77.3872743 107.8294062  57.9309613  76.8807266 107.3021634  57.1225526
  75.4304718 104.1620689  60.5382364  74.5708414 104.6609460  61.2867752
  75.4649002 102.8163153  60.2989292  76.1331363 102.6270825  59.5656142
  74.7036624 101.6620838  60.8832241  74.4509807 101.8661149  61.9237156
  73.3781624 101.4436321  60.0802537  72.8485556 100.6121636  60.5453086
  72.7841980 102.3523274  60.1781263  73.6098528 101.1304255  58.5552834
  74.1866915 101.9523889  58.1313329  74.1978503 100.2137040  58.5107872
  72.3444953 100.9509732  57.7702271  72.3749436 100.1091722  56.9223799
  71.3295135 101.6451586  58.0190674  75.5580064 100.3666002  60.8593150
  76.5710897 100.2251821  60.1575136  75.2084717  99.3218089  61.6478069
  74.3139292  99.3955954  62.1108929  76.0620590  98.1041907  61.9263848
  77.0841844  98.4143818  62.1435031  75.5224536  97.3282855  63.1256654
  74.5154621  96.9929925  62.8773790  76.1664292  96.4619088  63.2766192
  75.4834777  98.1012460  64.3150639  75.1376954  97.5661834  65.0332160
  76.1481371  97.1639540  60.6884674  75.1383188  96.4914782  60.4675933
  77.3432208  97.0718203  59.9794629  78.5328570  97.8501875  60.1122829
  78.8403877  97.8453786  61.1579893  78.3195957  98.8729516  59.8015222
  79.5633618  97.1525929  59.1847266  80.1610638  96.4373752  59.7498062
  80.2202419  97.8900836  58.7235137  78.7093941  96.4575375  58.1383795
  79.2250590  95.5768250  57.7555816  78.3724687  97.0721317  57.3036012
  77.5148774  96.0313690  58.9863460  76.6508311  95.9952190  58.3228588
  77.6494089  94.6772918  59.7339203  78.5008294  94.5431905  60.5915806
  76.8897774  93.6684221  59.2721922  76.3090452  93.8083020  58.4577702
  76.8070692  92.3714786  59.9778535  77.2941721  92.4243806  60.9515226
  75.2701861  92.0278853  60.1966202  74.7535319  92.1860606  59.2499691
  75.1985708  90.9772437  60.4779092  74.6132032  92.9035706  61.2967774
  75.0437078  92.6978691  62.2768047  74.7146262  93.9652103  61.0715297
  73.1458628  92.5264804  61.3009031  72.6234683  93.2502711  61.9264668
  72.7845295  92.6054833  60.2755757  72.8425887  91.1217154  61.8199735
  72.3213882  90.4862127  61.2329592  73.1903625  90.7263181  63.0004502
  73.7851113  91.4190366  63.9075345  74.0278078  92.3822952  63.7249656
  74.0063312  90.9961106  64.7976441  72.9950043  89.5416378  63.3620186
  72.5615383  88.8877009  62.7259575  73.2720669  89.2471341  64.2875469
  77.5331929  91.2452366  59.2576895  78.2489017  90.5398353  59.9665526
  77.4179527  91.0687675  57.9002186  77.2266029  91.9288412  57.4065003
  77.8027862  89.8590254  57.0993652  78.6613301  89.3780838  57.5680835
  76.6392009  88.8275218  57.0150771  75.6885843  89.3563302  56.9458734
  76.7712235  88.2015175  56.1325871  76.6440763  87.9285387  58.2980621
  76.7184045  88.6164484  59.1402951  75.6720693  87.4356388  58.3168828
  77.7825862  86.8467911  58.4025961  77.7265152  86.1909554  57.5337840
  78.7485283  87.3516852  58.4143117  77.6223339  85.9992496  59.7058450
  77.5778559  86.6788575  60.5568769  76.6902652  85.4379080  59.6407089
  78.7543077  85.0581397  59.8839135  79.6180349  85.5781177  59.9447245
  78.6204330  84.5272813  60.7326578  78.7954376  84.4280353  59.0956396
  77.8405532  90.2283390  55.5807111  77.0811074  91.1201774  55.1785617
  78.7782323  89.6566582  54.7491240  79.3166216  88.8750019  55.0944495
  79.0944616  90.1843231  53.4211546  78.3247019  90.7826149  52.9336956
  80.3855342  91.0689303  53.6458044  80.1307169  91.8541114  54.3576044
  81.6005063  90.2463714  54.1898879  81.8562214  89.4612363  53.4783591
  82.4567066  90.9074779  54.3239022  81.3360817  89.7966314  55.1469212
  80.7101333  91.8198002  52.3107318  81.0201405  91.0748920  51.5778554
  79.7944813  92.3038352  51.9710390  81.8228510  92.8784673  52.4703766
  82.7390107  92.3950803  52.8096233  82.0027631  93.3646636  51.5115523
  81.5133521  93.6240227  53.2028091  79.2604987  88.9864848  52.3992324
  79.5883362  87.8579604  52.7823828  78.8828200  89.2765984  51.1448230
  78.4468452  90.1778317  51.0113922  78.9977498  88.3749323  49.9803418
  79.8974581  87.7704837  50.0955206  77.7892924  87.4344313  49.8319521
  77.8737195  86.7837015  48.9615947  77.6222250  86.8289705  50.7227976
  76.2376725  88.4266879  49.5848819  75.4181460  87.3830698  49.4946830
  79.1752788  89.2420317  48.7194723  78.7710042  90.3555772  48.5897128
  79.5763435  88.6233859  47.6023552  79.8034906  87.6435732  47.6943913
  79.7610833  89.2483523  46.3210757  79.2776403  90.2226503  46.2494827
  81.2568485  89.4430529  46.2239819  81.5172744  90.2065472  46.9570263
  81.7709265  88.5138301  46.4696824  81.6736110  89.8977368  44.8616202
  82.1282023  88.9615195  43.9254706  82.1545060  87.9024039  44.1817552
  82.5485931  89.3854662  42.6613283  82.8669978  88.6227231  41.9507348
  82.4795081  90.7454711  42.2594977  82.9244506  91.1018922  41.0255467
  83.2601724  90.3588703  40.5187834  82.0401632  91.6667925  43.2151833
  81.9948629  92.7184210  42.9321183  81.6674010  91.2754718  44.4939563
  81.3665424  92.0239744  45.2269829  79.2014463  88.4504664  45.1663526
  79.2108785  87.2780247  45.1610094  78.6803517  89.1264674  44.1602388
  78.7613369  90.1332137  44.1618931  77.9313883  88.5102403  43.1149809
  78.1957765  87.4591797  42.9989222  76.4249876  88.6044916  43.5189096
  76.3212986  88.2048519  44.5276891  76.1404513  89.6566890  43.5144775
  75.5006558  87.8142360  42.5515297  75.6472155  88.1221536  41.5162482
  75.7648468  86.7621091  42.6579918  73.9891534  87.9895940  42.9161435
  73.2961878  88.8316742  42.3438074  73.3711796  87.2058206  43.8080766
  72.3935124  87.3537328  44.0139655  73.8853785  86.4700937  44.2711175
  78.2287186  89.1460060  41.7430109  77.7747224  90.2225980  41.3506411
  79.1781393  88.3785791  41.0614623  79.5795945  87.5790317  41.5301380
  79.7618975  88.8052857  39.8332710  80.3392544  89.7156465  39.9945207
  80.7153400  87.7023401  39.2711337  81.5377323  87.5596009  39.9721299
  80.1558991  86.7719304  39.1738525  81.2844485  88.1136409  37.8801602
  80.5086841  87.8403851  37.1648828  81.4630316  89.1876960  37.8290436
  82.5941189  87.3549454  37.5373459  83.3033954  87.8094945  36.5637110
  82.8403758  86.3008730  38.1843590  78.8012369  89.3414348  38.8369131
  78.9086754  90.4545237  38.3719484  77.7503539  88.5373053  38.5481128
  77.4990652  87.7866815  39.1754223  76.8598021  88.8185373  37.3956267
  77.3467995  88.8575809  36.4212508  75.6941676  87.7011598  37.3457403
  74.9217163  88.0318768  36.6514460  76.2582405  86.3268608  36.8780149
  77.0304769  85.9952497  37.5721230  75.4531180  85.5925168  36.8531738
  76.6864648  86.4296262  35.8809368  74.8791361  87.5108240  38.6152421
  74.3823664  88.4463453  38.8723838  74.1306988  86.7349291  38.4542190
  75.5392696  87.2145664  39.4304452  76.1156301  90.1453222  37.6527726
  76.1017507  90.9884226  36.7476963  75.5919667  90.4049798  38.8753222
  75.6191526  89.6203505  39.5107097  75.0006722  91.6310303  39.3325407
  74.3234037  92.0622866  38.5953673  74.1941263  91.2561957  40.5769786
  74.8243854  90.8544169  41.3703553  73.6174788  92.0970355  40.9624213
  73.2853146  90.2192819  40.1071998  72.7341704  89.9229862  40.8352443
  75.9901489  92.7862479  39.6867584  75.5701958  93.9115398  39.8851105
  77.3373856  92.5200507  39.6749959  77.5339043  91.5340533  39.7713746
  78.4592114  93.4648230  39.7554318  79.4021385  92.9254283  39.8451039
  78.5020564  94.3202869  38.4785982  77.4911328  94.6752856  38.2783273
  79.1551075  95.1723735  38.6672057  79.0237571  93.5323276  37.2535094
  79.8285464  92.8001498  37.3193179  78.0837210  93.0206375  37.0470935
  79.3368460  94.5250451  36.0508086  80.3837488  95.1803613  36.0454852
  78.6732998  94.4230372  34.9025339  78.8799766  95.0585281  34.1452114
  77.9658239  93.7105567  34.7932141  78.4740373  94.2127668  41.0904618
  78.7352155  95.4331231  41.1653117  78.3176768  93.5458046  42.2464219
  78.4273249  92.5418668  42.2328028  77.9248405  94.1808906  43.4976211
  78.4519517  95.1231412  43.6473434  76.4322437  94.4669640  43.4108119
  76.0440045  95.0035017  44.2765468  76.1451527  94.9920970  42.4998157
  75.5614081  92.8808388  43.3714162  74.3374179  93.3960268  43.2984258
  78.3227554  93.2413949  44.6976867  78.6383653  92.0474385  44.5490908
  78.2906398  93.8859331  45.8714443  78.3581133  94.8936659  45.8668381
  78.2693268  93.1954105  47.1675583  78.5381477  92.1484051  47.0275079
  79.2841322  93.8424063  48.1632252  79.0328633  94.8333291  48.5414251
  79.2625680  93.1248142  48.9834060  80.7536933  93.9136210  47.6747574
  81.7505927  92.9865082  47.9786393  81.3965495  92.1230775  48.5418806
  83.1037248  93.0867863  47.6265373  83.8627593  92.4225379  48.0397459
  83.4726234  94.0958264  46.6984177  84.4904290  94.1620343  46.3139854
  82.4937095  95.0251184  46.2730295  82.7441881  95.8722677  45.6345166
  81.1901973  94.8356794  46.6894916  80.3863103  95.4260000  46.2497335
  76.8422961  93.1503929  47.7598233  76.1853665  94.2224113  47.7075361
  76.4209689  92.0275337  48.3302413  76.8994497  91.1673555  48.1038589
  75.3338719  91.9731617  49.2409881  74.6363777  92.7984623  49.0978793
  74.7945907  91.0278158  49.1810197  75.9858937  92.0978602  50.6559336
  76.9230318  91.3831287  51.0007020  75.4015890  92.9428799  51.5410594
  74.6151836  93.4483995  51.1588084  75.8114340  93.2301565  52.9457716
  76.4883462  92.4451225  53.2828334  76.6254435  94.6100902  52.8673844
  76.0709606  95.3532713  52.2943838  76.8026297  95.0971145  54.2825714
  77.3574700  94.3546141  54.8561099  77.3536932  96.0375415  54.2774184
  75.8250553  95.2519259  54.7391711  78.0357888  94.3762810  52.3012769
  77.9602496  93.9542535  51.2991349  78.5715727  95.3244400  52.2562226
  78.5767556  93.6841634  52.9465900  74.5496962  93.2798206  53.7463816
  73.6762956  94.2086938  53.6530488  74.4806836  92.3405467  54.7508236
  75.0070846  91.4793645  54.7138571  73.5977079  92.5523271  55.8654218
  72.5799837  92.7608051  55.5354619  73.5914940  91.2515785  56.6865134
  74.6361019  91.0629951  56.9341624  73.0222067  91.4001644  57.6040831
  73.0285885  90.0621391  55.9290701  73.6960157  89.8044201  55.1067425
  72.9037809  88.8603844  56.8845148  72.2360956  89.1172039  57.7069130
  72.4997832  88.0052106  56.3426990  73.8870211  88.6071277  57.2809996
  71.6361849  90.3708687  55.2641458  71.7444381  91.1949875  54.5590154
  71.2808975  89.4859277  54.7361766  70.9173600  90.6458459  56.0360120
  74.0569125  93.7422674  56.6747963  75.2540840  93.7771540  57.0574257
  73.0938319  94.5331164  57.1424411  72.2117122  94.4937337  56.6521217
  73.2555083  95.5386601  58.2157112  74.0853941  95.2735700  58.8707807
  73.5444932  96.8541850  57.5929633  73.9512296  97.5376344  58.3383234
  74.2626429  96.7325181  56.7820637  72.3025910  97.3977468  57.0632468
  72.4741816  98.2502450  56.6565489  72.0879020  95.6077204  59.2034497
  71.1063841  94.8929533  59.0542661  72.2157630  96.3785264  60.2801459
  73.1537637  96.7211100  60.4314419  71.1631985  96.7585349  61.2528290
  70.1685387  96.6741314  60.8150765  71.2588872  95.8229291  62.3899246
  71.2774999  94.7955152  62.0263680  72.1657020  96.0222107  62.9609534
  70.1372327  96.0071511  63.2141112  70.1854671  95.4042477  63.9596182
  71.2198162  98.1708815  61.8174744  72.3468339  98.6145566  62.1040185
  70.0853241  98.8733191  61.8272202  69.2855289  98.4712567  61.3594886
  69.9858458 100.2582904  62.3126341  70.9129024 100.5209043  62.8222412
  69.7511236 101.2618347  61.1715341  70.1567725 102.2124708  61.5177122
  70.3396798 100.9020096  60.3275983  68.3064792 101.4558826  60.7358369
  67.9150959 100.4663004  60.4999409  67.7723524 101.8619934  61.5948390
  68.1089502 102.4030742  59.5026769  68.4488863 103.4116664  59.7378031
  68.6590698 102.0266100  58.6402718  66.6307520 102.4566875  59.1519341
  66.0965012 103.2439520  59.4908886  66.0491721 101.6043979  58.3971969
  66.6263829 100.7246857  57.5723381  67.6332399 100.6894068  57.5009636
  66.0529393 100.0994126  57.0243457  64.7323693 101.5389221  58.4994290
  64.2485668 102.1436096  59.1478025  64.2165226 100.8845281  57.9286669
  68.9632117 100.4167282  63.4709825  67.8834483  99.8928517  63.3793018
  69.3524101 101.1215799  64.5775256  70.3462307 101.2268952  64.7235690
  68.4814937 101.5165139  65.6086055  67.7725192 100.7239224  65.8478815
  69.3203752 101.8801319  66.8989600  69.9111696 102.7786776  66.7209771
  68.3244994 102.1368129  68.0728412  67.7336317 101.2384955  68.2517320
  68.8823100 102.3897036  68.9745032  67.6610220 102.9617654  67.8133221
  70.3316475 100.8010538  67.3175632  69.7872540  99.8736991  67.1393785
  71.1224564 100.9059833  66.5747909  70.9475832 100.7691750  68.7159151
  70.1573653 100.6637882  69.4592516  71.6327264  99.9248971  68.7925507
  71.4925662 101.6960740  68.8946649  67.4699658 102.5748520  65.1374305
  67.8392313 103.4495705  64.3395092  66.2118550 102.4401693  65.5523281
  66.0160130 101.6397557  66.1363514  65.1106814 103.3518183  65.2312196
  65.5010096 104.2799722  64.8137589  64.1969105 102.7109230  64.2126442
  64.0431760 101.6702355  64.4980114  63.2423722 103.2368808  64.2306721
  64.7785273 102.7701908  62.8177520  65.4793250 103.6043094  62.7826864
  65.3298844 101.8309752  62.7732702  63.7957802 102.8595153  61.5924270
  64.1789969 103.3541284  60.5191835  62.6472975 102.3494691  61.6895118
  64.3434099 103.6203239  66.5670955  64.7377289 103.2168504  67.6504212
  63.2401438 104.4608603  66.5126022  63.0828361 104.9656523  65.6520566
  62.2703750 104.6868277  67.6734028  62.3570605 103.8866092  68.4084097
  62.5208651 106.0485605  68.3880374  61.6604751 106.3028950  69.0070223
  63.7779101 105.9261861  69.2789877  64.6388641 105.6723050  68.6605999
  63.9604516 106.8752624  69.7830048  63.6221704 105.1445643  70.0225697
  62.6990469 107.2195802  67.4411107  61.8015024 107.3361852  66.8337233
  62.8688188 108.1298915  68.0160979  63.5550731 107.0355546  66.7919153
  60.9046847 104.6278498  67.0100849  60.7112242 104.8157246  65.7892745
  59.8946193 104.3191299  67.8346733  60.1736171 103.9135811  68.7165971
  58.4827823 104.1905262  67.4202504  58.4393913 103.6634542  66.4671442
  57.6645385 103.4307034  68.4271588  58.3372759 102.6324416  68.7406899
  57.5467730 104.1464284  69.2407736  56.3031114 102.8377899  68.0701229
  56.3843496 102.6641528  66.9971124  56.1513913 101.8869847  68.5810559
  55.0678799 103.7473169  68.3347149  55.1134493 104.9805681  68.4594902
  53.9176165 103.1249262  68.5299606  53.0802796 103.6613876  68.7065325
  53.8817024 102.1159624  68.5016123  57.8333876 105.3972843  66.8304034
  57.9776592 106.4373795  67.4509747  57.0999039 105.2994735  65.7297747
  56.9428801 104.3507988  65.4208099  56.6393677 106.4307143  64.8359612
  57.0385373 107.3853506  65.1786453  57.1567892 106.1639089  63.4269205
  58.1741447 105.7779298  63.4910069  56.5237249 105.4356965  62.9199329
  57.1578411 107.4869159  62.6310264  57.3690941 107.4155518  61.3869752
  56.9774752 108.6239078  63.1580745  55.1380649 106.6459786  64.9648539
  54.5003046 107.0235644  63.9568753  54.5612169 106.3695973  66.1246524
  55.1456071 106.2886157  66.9444264  53.1367587 105.9913378  66.2392803
  52.9925599 105.2719893  67.0454092  52.1977728 107.2281532  66.4949950
  52.2218805 107.7902314  65.5614067  50.7286759 106.9759495  66.9066268
  50.7037571 106.4142810  67.8404401  50.2202220 107.9303157  67.0435894
  50.2250510 106.4052251  66.1264114  52.7651664 107.9712281  67.4451366
  52.2141464 108.7366005  67.6245311  52.7405339 105.1453345  65.0643789
  53.3881039 104.1058903  64.8320606  51.6800030 105.4436692  64.3510973
  51.2085812 106.2814371  64.6609452  51.1008052 104.6898711  63.1950925
  50.7805526 103.7158846  63.5650760  49.8989936 105.3761467  62.5060100
  49.3470332 104.6651935  61.8912055  49.2278380 105.8150486  63.2442615
  50.4306313 106.4024489  61.6806717  49.7133009 106.8560373  61.2320131
  52.1700681 104.4524110  62.1147520  51.9260430 103.6283682  61.2917441
  53.3488026 105.1422236  62.1735096  53.5604874 105.6673217  63.0099072
  54.3093364 105.1566784  61.0941024  53.7928424 105.3069444  60.1460763
  55.0236939 105.9650286  61.2501880  55.0663058 103.8248530  61.0440502
  55.7457026 103.6152793  60.0164050  54.8769850 102.9893361  62.0217635
  54.0409809 103.1570821  62.5631117  55.7416316 101.8548133  62.4026734
  55.1664937 101.0998891  62.9387752  56.1939638 101.4060352  61.5183131
  56.8307771 102.3693890  63.3013946  56.6749037 102.6293998  64.4859518
  57.9719776 102.6136206  62.5858378  57.9986554 102.2980629  61.6267700
  59.2612594 103.1734113  63.2041627  59.0474723 103.8579369  64.0250275
  60.1310286 102.0018674  63.7470516  61.0512567 102.4037900  64.1710075
  59.3562020 101.2319263  64.8371560  58.4360108 100.8292869  64.4138011
  59.9715077 100.4139367  65.2118438  59.1130310 101.9079580  65.6568813
  60.5183558 101.0974276  62.7521846  61.0497487 100.3999886  63.1430821
  60.0283204 104.1299852  62.2577137  59.7813002 104.1653651  61.0607077
  60.8897913 104.9592845  62.9137720  60.8838984 104.9485142  63.9236971
  61.7198282 106.0100162  62.2133502  61.8781505 105.7507966  61.1665271
  60.9511594 107.3372018  62.2792325  59.9843468 107.1356563  61.8179808
  60.7374787 107.9561547  63.6586149  61.7039188 108.1584236  64.1203295
  60.1817225 108.8883089  63.5570141  60.1740410 107.2642038  64.2845881
  61.6059649 108.3847548  61.5316314  61.0940277 109.1940479  61.5991986
  63.1706426 106.1186659  62.6885069  63.4281714 105.8586877  63.8343351
  64.0608076 106.6120637  61.7869839  63.7597208 106.7482206  60.8325692
  65.4112078 106.8370855  62.0973391  65.7855199 105.9814866  62.6594246
  66.1606607 106.9227678  60.7972749  65.8032657 107.7802435  60.2270956
  67.2256480 107.0390665  60.9982149  65.9973348 106.0112184  60.2223821
  65.6294249 108.1079408  63.0309708  64.8330821 109.0457550  63.0834364
  66.7020164 107.9608062  63.7568641  67.0928230 107.0329869  63.8376159
  67.3130825 109.0615203  64.5675463  66.5049139 109.7377168  64.8463309
  68.0429009 108.6353906  65.8244662  68.6179089 107.8373703  65.3547551
  68.7245184 109.3787429  66.2378970  67.1686304 108.0411058  66.9672281
  67.8387991 107.8963226  67.8145843  65.9389077 108.9003117  67.4157071
  65.2680083 109.0451394  66.5689381  65.4073772 108.3850286  68.2157443
  66.2840485 109.8697554  67.7750914  66.7579117 106.5816964  66.8469773
  67.6488644 105.9548990  66.8091927  66.1535249 106.3015291  67.7097195
  66.1765664 106.4412173  65.9357132  68.2697060 109.9435194  63.6805254
  68.4604281 111.1234669  64.0414243  68.7769202 109.3455736  62.5901252
  68.4114849 108.4059056  62.5302880  69.7438431 109.7695157  61.6015382
  69.5248697 110.7841437  61.2688523  71.1892226 109.7476139  62.2363062
  71.8945265 110.1717928  61.5216610  71.1848651 110.3514221  63.1437734
  71.6199251 108.2786107  62.5874102  70.8782397 107.8152455  63.2380224
  71.7219185 107.6893030  61.6761386  72.9722702 108.3366147  63.3132257
  72.8510884 108.8558549  64.2639116  73.3288127 107.3229798  63.4963135
  73.9959252 109.0655320  62.4946788  73.8478528 108.8852852  61.5119861
  75.0494215 109.7567535  62.8513683  75.1684342 110.1075172  64.1046607
  74.4555516 109.8435252  64.7696469  75.9727354 110.6409515  64.4023971
  75.8979495 110.2083432  61.9679680  75.7459038 110.0250490  60.9864460
  76.7024874 110.7388941  62.2701818  69.6258234 108.8977501  60.4018936
  69.4457979 107.6839550  60.5422580  69.9224246 109.4131302  59.2395799
  70.3718917 110.7565035  58.9293842  71.3783086 110.8605977  59.3348342
  69.7012875 111.4465768  59.4414270  70.3315069 110.9202745  57.4363132
  71.3304449 111.1428122  57.0612148  69.6550973 111.7329103  57.1713711
  69.8151941 109.5787445  56.8951927  70.4676090 109.2870582  56.0721660
  68.7842155 109.6200537  56.5438006  69.9351432 108.5843502  58.0210480
  69.0690779 107.9225177  58.0236871  71.2205100 107.7442491  57.9812593
  72.1807862 108.1887810  58.6433636  71.2201392 106.5998080  57.2754970
  70.3320974 106.2881708  56.9089409  72.4042930 105.6741599  57.1625532
  73.2969993 106.2468146  56.9110750  72.6509902 104.9344177  58.5097844
  73.4797676 104.2419530  58.3624078  72.9298890 105.6810783  59.2532987
  71.5048102 104.2144826  58.9653038  71.7098670 103.7787345  59.7957707
  72.2017966 104.8225843  55.9508650  71.0803301 104.7986081  55.3998441
  73.2398553 104.0582911  55.5223491  74.1205496 104.2311020  55.9856129
  73.2426884 103.2319939  54.3013450  73.4952850 103.9183171  53.4931033
  74.4146681 102.2822617  54.5178868  74.1731407 101.5828655  55.3182677
  74.6092454 101.7290471  53.5990867  75.3010656 102.8546119  54.7914080
  71.8785714 102.6729309  53.8608350  71.4840293 102.9179473  52.6997577
  71.1033572 101.8999956  54.6853441  71.4424302 101.6684733  55.6081259
  69.8683959 101.3709354  54.2778886  69.9400264 100.9549678  53.2729313
  69.4686689 100.2397734  55.2535565  68.5157047  99.8167218  54.9357737
  70.2348555  99.4647914  55.2320850  69.3464146 100.7382473  56.5549003
  69.0982474 100.0257334  57.1484799  68.7067101 102.3986572  54.1947810
  67.7696923 102.0350463  53.4380202  68.7497508 103.6943270  54.5905591
  69.5074754 103.8430300  55.2415892  67.7937070 104.8003158  54.3624148
  66.8956317 104.3476771  53.9420839  67.3883240 105.6112793  55.6818541
  66.3528871 105.9413954  55.5982235  67.5454143 104.6741716  56.9630664
  68.5807619 104.3440136  57.0476279  67.2681259 105.2315936  57.8577680
  66.8948549 103.8056303  56.8605530  68.1828980 106.7430634  55.9606477
  67.8692053 107.1641574  56.7643124  68.1679105 105.7508294  53.2547973
  67.3302905 106.2547338  52.4953217  69.4706293 105.9051427  52.9716714
  70.1315546 105.4153888  53.5576903  69.9869712 106.7506723  51.9086415
  69.2949314 107.5652804  51.6951144  71.3745300 107.3719676  52.3765675
  72.0902690 106.5692867  52.5541072  71.7567140 108.0334786  51.5991110
  71.1738421 108.1533111  53.6446104  70.4364567 108.9259737  53.4269958
  70.8045310 107.5151320  54.4473798  72.4294680 108.8088740  54.0980991
  73.4017568 108.2533011  54.5859303  72.5297044 110.1366456  54.0308447
  73.3779084 110.5920926  54.3361630  71.7569761 110.6809659  53.6748844
  70.1867803 105.9308434  50.5286071  70.5632842 106.5609534  49.5030033
  69.9440941 104.6119722  50.4794836  69.7865402 104.1597490  51.3687362
  69.8892261 103.7629247  49.2192111  70.8832999 103.5109528  48.8498511
  69.1604326 102.4604406  49.5984999  68.1600195 102.6957793  49.9616656
  69.0861390 101.8166137  48.7221052  69.7185555 101.9457033  50.3805764
  69.1155007 104.4861728  48.0560291  68.0419533 105.0766160  48.2860111
  69.5712879 104.2892904  46.8204761  70.5142943 103.9418379  46.7199024
  68.8568947 104.7275606  45.6115527  68.5051827 105.7526501  45.7281257
  69.8239203 104.6694465  44.3960918  70.1020595 103.6186391  44.3152103
  69.2539550 104.9627847  43.5145067  71.0732844 105.5150757  44.4923278
  71.7046543 105.1069352  45.2815643  71.8466932 105.5283155  43.1794494
  71.2160854 105.9367856  42.3897755  72.7378440 106.1464517  43.2883473
  72.1401668 104.5111924  42.9197685  70.6854895 106.9752199  44.8902915
  70.1779200 106.9668270  45.8548651  71.5863776 107.5848837  44.9596588
  70.0212251 107.3941248  44.1344010  67.4752997 104.0262432  45.3334843
  66.5947869 104.6115644  44.7585257  67.3095358 102.7900281  45.7895003
  68.1468633 102.2965864  46.0642679  65.9981647 102.0825080  45.9100246
  65.1645656 102.7834547  45.8666026  65.8833337 101.0795710  44.6811758
  66.6714426 100.3351684  44.7945270  64.9109709 100.5917904  44.7495907
  66.0051286 101.6980555  43.4416207  65.9269806 101.0402833  42.7467621
  65.8349655 101.2953341  47.2047845  66.8507998 101.0842763  47.8385993
  64.7011600 100.7360444  47.5108517  63.9628157 100.9031445  46.8422529
  64.3467858 100.0768450  48.8131378  65.1674935  99.4830954  49.2156296
  64.0635929 101.2113068  49.7613583  65.0016794 101.6997708  50.0249791
  63.4051663 101.9297267  49.2730478  63.4681195 100.7439987  50.8827635
  63.2921358 101.4747896  51.4799019  63.2958786  98.9807382  48.6708923
  62.5457703  99.0169452  47.6402766  63.2137778  98.0469170  49.5867173
  64.0793121  97.8052291  50.0477343  62.0686622  97.1269872  49.7222477
  61.1360996  97.6618175  49.5422961  62.1849869  96.0039481  48.7129248
  61.3131450  95.3746686  48.8918054  62.0892266  96.4889156  47.7414637
  63.3692832  95.1950998  48.7284442  63.3096924  94.5272804  48.0413736
  61.7094889  96.7921037  51.2197699  62.6519322  96.7694846  51.9904554
  60.4459582  96.5637284  51.5545592  59.7202076  96.4501118  50.8613950
  60.0572473  96.5352977  53.0010596  60.9487469  96.3907062  53.6113227
  59.4420775  97.9083920  53.3442512  58.5787375  98.0826223  52.7020775
  58.9957239  97.9424114  54.8319623  59.8586711  97.7687060  55.4748072
  58.5636896  98.9168006  55.0600248  58.2512048  97.1656268  55.0063142
  60.4784069  99.0326842  53.1742596  60.8265831  99.0534997  52.1415727
  60.0203878  99.9902322  53.4220902  61.3235305  98.8520061  53.8385053
  59.0856947  95.3525795  53.1983892  58.1088575  95.1279621  52.4843975
  59.5546300  94.3980761  54.0326518  60.5148270  94.4994307  54.3290439
  58.7678378  93.2752189  54.5803458  58.5694395  92.5231212  53.8167449
  59.6273684  92.6062054  55.7424861  59.8561253  93.3719032  56.4837528
  59.0275934  91.8218893  56.2042418  60.8500661  92.0424747  55.2442773
  61.3403419  91.6495190  55.9700978  57.4446856  93.6950965  55.2289814
  57.3588397  94.8369002  55.7226854  56.3993824  92.9157420  55.0596511
  56.4991313  92.0023200  54.6403542  55.0355479  93.4006618  55.3691768
  54.9652339  94.4601297  55.1228379  53.9244959  92.6046036  54.5301943
  52.9599624  93.0049718  54.8424119  54.0974761  92.8505936  53.4824984
  53.9255063  91.2335285  54.6866838  53.2296659  90.8495003  54.1482339
  54.7363180  93.3468319  56.8967268  55.0362797  92.2796402  57.5289861
  54.0890450  94.4626921  57.3219064  53.7827565  95.1177633  56.6168048
  54.0187297  94.8915788  58.7918384  54.9622365  94.6550789  59.2837346
  53.7601082  96.4168517  58.9219245  53.8390192  96.7875940  59.9438943
  54.3854049  97.0232829  58.2666800  52.4151466  96.4960606  58.4949067
  52.1222372  97.4096892  58.5278706  53.1045473  94.0368736  59.6797548
  53.2241326  93.9354705  60.8985385  52.1287732  93.3203777  59.0698175
  52.0423784  93.4636708  58.0737741  51.1500582  92.5332018  59.7217501
  51.0745425  92.7996314  60.7759853  49.7816386  92.8032225  59.0429913
  49.5696087  93.8722191  59.0627133  49.8131357  92.4585960  58.0093857
  48.6830316  92.0517113  59.7975638  48.9028447  90.9865727  59.7250188
  48.7292872  92.3614306  60.8416119  47.3083526  92.3161159  59.2583302
  47.3672769  92.3727962  58.1714014  46.6588698  91.4886051  59.5438077
  46.7353406  93.6286378  59.8081633  46.5334345  93.5256569  60.8743385
  47.4483983  94.4378159  59.6504333  45.4664436  93.9380910  59.0901959
  44.8054195  93.1886119  59.2365785  45.0806882  94.8013758  59.4452060
  45.6533866  94.0339778  58.1022905  51.5041997  91.0580526  59.8283696
  51.1044944  90.1872384  59.0218882  52.3750627  90.8049677  60.8014676
  52.7797014  91.6062935  61.2643323  52.8667391  89.4507559  61.1761324
  53.3459792  88.9513505  60.3340977  53.9556623  89.6551842  62.3390553
  54.7867788  90.1951591  61.8854348  53.4999414  90.2737566  63.1122219
  54.4792986  88.3369735  62.9727790  53.6841344  87.9425499  63.6054279
  54.8942611  87.2550958  61.9221978  55.6897635  87.6486515  61.2894352
  55.2492807  86.3634465  62.4389408  54.0333335  86.9981661  61.3050339
  55.6815606  88.5978327  63.8415065  55.4099114  89.2866696  64.6413877
  56.0289512  87.6592540  64.2733527  56.4771943  89.0366406  63.2394155
  51.5928911  88.5963520  61.5496214  51.0404447  88.6015486  62.6960253
  51.0967181  87.7461111  60.6042814  51.5873517  87.6626395  59.7254124
  49.9157512  86.9306532  60.8125393  49.0566294  87.5538145  61.0608917
  49.6121649  86.1734944  59.5275346  50.5087369  85.5896836  59.3191531
  48.7494546  85.5089940  59.5751793  49.3822333  87.1390515  58.2518685
  48.5357940  88.2272320  58.4238889  48.0425213  88.4420249  59.3718582
  48.3251493  89.0682163  57.3140861  47.7326879  89.9715151  57.4594871
  48.8442540  88.7766857  56.0696656  48.6045213  89.4626256  55.2571912
  49.6686172  87.6276771  55.8196608  50.1001294  87.3392077  54.8611814
  49.8998436  86.8538050  56.9436885  50.5137485  85.9561087  56.8704621
  50.1415662  85.9024851  61.9135602  49.1708581  85.5203409  62.5345365
  51.3345578  85.5852122  62.3366273  52.1290647  85.9512386  61.8317680
  51.5874093  84.6649795  63.4796005  50.8255847  83.8856665  63.4994434
  53.0014566  83.9834134  63.3433547  53.7681317  84.7046508  63.0602906
  53.2960847  83.4841842  64.2664281  52.8538566  83.0181308  62.3088390
  53.6882723  82.5627813  62.1746482  51.4990917  85.3159498  64.8428891
  52.1990787  84.8950058  65.7441628  50.8558962  86.4704044  64.9839141
  50.3612260  86.8093075  64.1711747  50.7605847  87.2414848  66.2272084
  50.6145434  86.5618896  67.0668044  52.0205086  88.0434222  66.4679037
  52.8770860  87.3699634  66.4966744  52.1510457  88.7621093  65.6588617
  51.9234961  88.7191964  67.6748684  52.7250350  89.2263481  67.8229643
  49.6106123  88.2684463  66.1045886  49.0232408  88.4591378  65.0346627
  49.2829715  88.8453311  67.2190685  49.6816740  88.3539070  68.0062393
  48.2704749  89.8578942  67.4787928  47.9595987  90.2922614  66.5286453
  47.0139731  89.2827171  68.1980454  47.2370633  88.9299000  69.2049467
  46.1939609  89.9997021  68.2382018  46.6406156  88.1832211  67.3841863
  45.8628364  87.7600788  67.7551445  48.7949004  91.2129994  68.0759392
  48.1320026  91.9547036  68.7460416  50.0710470  91.4518508  67.9261258
  50.6564326  90.6555026  67.7181532  50.7310155  92.7912504  68.1224500
  49.9992347  93.5554111  67.8604299  51.2231670  93.0505421  69.5881907
  50.3839578  92.9225164  70.2718848  52.3376760  92.0707604  69.9602708
  53.1774758  92.1985227  69.2772534  52.6672791  92.2651414  70.9808965
  51.9634592  91.0495559  69.8881340  51.7478344  94.3487698  69.7466140
  52.0373366  94.4683600  70.6540759  51.8778804  92.8826647  67.1227669
  52.1631346  91.9032764  66.4090116  52.3813340  94.0905413  66.9063747
  51.8184829  94.7914402  67.3668515  53.4920775  94.5267009  66.1061182
  53.2398234  94.5331127  65.0457286  53.6990376  95.9714316  66.5685019
  53.9612322  95.9808461  67.6264553  54.5038599  96.4264779  65.9911856
  52.7795789  96.5370323  66.4175355  54.7790856  93.6256649  66.2343927
  54.9338833  92.9749803  67.2461284  55.6461428  93.6213244  65.1798221
  55.6624020  94.4289625  64.0009063  56.0667149  95.4108097  64.2470921
  54.6433423  94.5388129  63.6300301  56.5612647  93.6469255  63.0250918
  57.1242403  94.3614350  62.4245639  55.9258688  93.0467209  62.3738408
  57.4654905  92.7815594  63.8291107  58.4844915  93.1572974  63.9216144
  57.4862954  91.7761368  63.4086441  56.7872736  92.7587231  65.2144558
  56.4322987  91.7339308  65.3235054  57.7317170  93.0921048  66.3597537
  58.1584352  92.1890121  67.0382771  57.9919918  94.4041572  66.6876569
  57.7129073  95.0321864  65.9475282  58.7931074  94.9357762  67.7763498
  59.6682642  94.2916389  67.8617137  59.2617548  96.3780486  67.6433012
  59.7541134  96.7094823  68.5575408  59.9656907  96.4302077  66.8127269
  58.1720200  97.3833226  67.3502552  57.2137881  97.3032718  66.2896117
  56.4237844  98.4047695  66.4095199  55.6241485  98.5856605  65.6912165
  56.8282268  99.1215260  67.4994229  56.3796973  99.9498277  67.8638916
  57.9635934  98.5297441  68.0353845  58.4929696  99.0115831  68.8573901
  58.1133106  94.5730093  69.0478806  58.8559866  94.2999676  70.0378254
  56.8115565  94.5324789  69.1137773  56.2226007  94.6709062  68.3050324
  56.1767553  94.2062631  70.3816450  56.7297447  94.6436614  71.2128999
  54.7119107  94.7989243  70.3821501  54.2894867  94.7815345  69.3774836
  54.0683553  94.2335480  71.0561576  54.8118854  96.2411359  70.8661156
  55.5730246  96.0749506  71.6284478  55.1999854  96.9216115  70.1082037
  53.5582502  96.8592532  71.5179798  52.5307783  96.1410305  71.6688134
  53.4884399  98.0920797  71.7068826  56.0422421  92.6680542  70.5275205
  55.7868661  92.2247257  71.6572142  56.1267993  91.8307975  69.4658496
  56.1397677  92.2111687  68.5303022  56.1468983  90.3424957  69.6272925
  55.5015047  90.0253276  70.4464205  55.6300164  89.6954843  68.3066993
  56.2717155  90.0257619  67.4898522  55.6418866  88.2064947  68.3765790
  54.9999979  87.8754292  69.1929576  55.2744135  87.7951804  67.4364284
  56.6599415  87.8585586  68.5515229  54.2908666  90.0469466  67.9259985
  54.0642666  89.6024386  67.1058366  57.4966658  89.8297873  69.9637782
  57.6422025  88.9488703  70.8169191  58.5532546  90.4620827  69.4338567
  58.3040209  91.1165852  68.7061147  59.9464655  90.2976628  69.7558931
  60.1482336  89.3836962  70.3145110  60.6480875  90.1959762  68.3598127
  60.0050455  89.6247405  67.6902710  60.7797497  91.2032499  67.9646359
  61.9057236  89.5615046  68.4590401  62.3098106  89.5143236  67.5895072
  60.4784626  91.4217059  70.5643757  61.3415961  92.1789910  70.1941246
  59.8425095  91.4989491  71.7137678  59.0162946  90.9441503  71.8860076
  60.2366196  92.4458934  72.6995754  60.4126408  93.4227933  72.2492618
  59.1142476  92.5756643  73.7199036  58.2064619  92.9521355  73.2484231
  58.9209248  91.5904255  74.1442041  59.4055413  93.4764887  74.8569486
  59.5121095  94.8896768  74.7069661  59.2753591  95.3144335  73.7314504
  59.9104934  95.7392659  75.7740923  60.0726825  96.8021771  75.5951641
  60.0973514  95.2014587  77.0755793  60.3254938  95.8345387  77.9330528
  59.9836023  93.8498859  77.2356611  60.2224256  93.4234057  78.2099188
  59.5690087  93.0091080  76.1790994  59.3620682  91.9560430  76.3697029
  61.5542233  92.0276715  73.2785788  61.7171292  90.9139193  73.6379099
  62.4221260  93.0044083  73.4777468  62.1365804  93.9667225  73.3658786
  63.8254311  92.7285581  73.8667488  63.9128858  91.8510467  74.5073927
  64.4798962  92.6136419  73.0027065  64.2470520  93.9406462  74.6399301
  63.4550037  94.3872181  75.4212534  65.5141921  94.4004890  74.4426754
  66.0231443  93.7266814  73.8885542  66.2749634  95.5541858  75.0392286
  65.6081986  96.0957881  75.7101912  67.5220850  95.1166609  75.8317377
  68.1902646  94.5855487  75.1538328  68.0210008  96.0102761  76.2067507
  67.1529445  94.1937284  77.0212371  66.4327903  93.4777040  76.6252727
  68.0435815  93.6636477  77.3586972  66.5331941  94.9405820  78.1930196
  67.0156772  96.0861669  78.5039508  65.6359719  94.4582176  78.8515026
  66.5426593  96.6567585  73.9997372  67.4754713  97.4158456  74.2789764
  65.8913968  96.6533285  72.8325807  65.2050555  95.9212672  72.7180324
  66.0942650  97.5963145  71.7261979  66.1295552  98.6291979  72.0726160
  67.4873889  97.2308402  71.0914631  67.7711225  97.9952757  70.3681148
  68.2426641  97.1749632  71.8753874  67.3797612  95.8392789  70.3677958
  66.3276458  95.7879451  70.0875837  67.9985112  95.6522481  69.4901471
  67.6739438  94.7875406  71.4294300  66.7117154  94.0178954  71.7774007
  68.7738613  94.7835965  72.0838825  65.0235444  97.5350833  70.6593806
  64.1755792  96.6638368  70.6886820  64.8685338  98.6322630  69.8513803
  65.2517450  99.5010748  70.1954945  64.0765890  98.6580853  68.5605881
  63.7072466  97.6449313  68.4018297  62.9035504  99.6048569  68.5548379
  63.3202168 100.6057067  68.6679218  62.0222771  99.5608551  67.3209582
  61.6048503  98.5603681  67.2074616  61.2119876 100.2822152  67.4266517
  62.6158435  99.8083180  66.4408771  61.9282675  99.3636211  69.6640753
  62.4325441  99.4791282  70.6234841  61.1123923 100.0830305  69.5940935
  61.5285359  98.3527538  69.5836829  65.0088583  98.9544453  67.3340769
  65.6336677 100.0067325  67.2507776  65.1798247  97.9906691  66.4688602
  64.7531755  97.0931836  66.6493862  66.0968145  98.1009495  65.3633115
  66.2081688  99.1378072  65.0460963  67.4393742  97.5920455  65.8283063
  68.0652444  97.4425876  64.9485063  67.8857510  98.3553281  66.4656818
  67.3323215  96.2972235  66.5946129  67.0689237  96.6909602  67.5762920
  66.5146236  95.6820257  66.2191119  68.5583517  95.4737520  66.7060512
  68.4873745  94.2329767  66.6914976  69.6818265  95.9807540  66.9623604
  65.5978153  97.4621655  64.0231601  65.0599042  96.3377746  64.0918742
  65.8083837  98.1028501  62.8711974  66.1499255  99.0470569  62.9803858
  65.4620945  97.6388256  61.5198317  64.7566332  96.8164021  61.6383357
  64.8418919  98.6827680  60.6060528  65.5475509  99.5014521  60.4649825
  64.4973367  98.0385687  59.2067602  63.7913186  97.2200467  59.3469790
  64.0532848  98.7936091  58.5580443  65.4091476  97.6565824  58.7476426
  63.5917021  99.1956067  61.2213308  63.8198752  99.6466562  62.1870396
  63.1450633  99.9446716  60.5674843  62.8910721  98.3725113  61.3618026
  66.7222156  96.9673580  60.8968583  67.7119756  97.6667200  60.6291141
  66.8385577  95.6460527  60.8241807  66.2418237  95.0830332  61.4132621
  67.8208209  94.9704585  59.9914861  68.8196753  95.3927440  60.1013225
  67.8436624  93.4752475  60.5116123  66.7943115  93.1803549  60.5122256
  68.4077032  92.8078565  59.8600394  68.3564259  93.2472223  61.9103343
  69.6598131  92.8891621  62.3914119  69.5829982  92.7551511  63.6508731
  70.4647256  92.3565104  64.1526115  68.4127066  93.1361740  64.1285761
  68.1259550  93.1858460  65.0957401  67.5985326  93.4751847  63.0223725
  66.5824146  93.8352142  63.1835683  67.4491578  95.1040169  58.5234337
  66.2866184  95.1201316  58.1510262  68.4554169  94.8834085  57.6407585
  69.2445141  94.3608248  57.9933648  68.4448002  95.2428280  56.2611444
  67.4352752  95.1497195  55.8607829  68.8913642  96.6387866  56.0938416
  69.9552046  96.6290648  56.3310093  68.7533968  96.9486101  55.0579486
  68.2181720  97.6221147  56.9761749  67.1603210  98.1213534  56.7629827
  69.0060248  97.8989740  57.9959356  68.7027079  98.5557531  58.7007334
  69.9094039  97.4530615  58.0678318  69.4412235  94.4437672  55.4484622
  70.3672094  93.8542482  55.9995761  69.2793557  94.4363784  54.1256711
  68.4037179  94.8167418  53.7960024  70.2201091  93.8499495  53.1221682
  71.1774276  93.6622792  53.6083989  69.7077047  92.5385001  52.5309091
  69.8203461  91.7514275  53.2765147  68.6480189  92.7112836  52.3429946
  70.4267095  92.0899827  51.1668012  70.2079201  92.8859126  50.4549532
  71.9317132  91.8384276  51.2014514  72.1512500  91.0422489  51.9127895
  72.2742347  91.5434302  50.2096065  72.4459930  92.7496989  51.5067403
  69.8103726  90.7190066  50.7460929  68.7373905  90.8342004  50.5926675
  70.2749520  90.3800332  49.8201533  69.9877680  89.9840579  51.5312555
  70.4726504  94.8912728  52.0546615  69.5742472  95.2026487  51.3036237
  71.6872731  95.4638793  52.0920709  72.2412259  95.1433439  52.8734113
  72.2734168  96.4160334  51.1846525  71.5585559  97.1792367  50.8770918
  73.4116926  97.0936784  51.9572484  74.1576007  96.3007318  52.0116188
  73.7760351  97.8906964  51.3090841  73.1553464  97.6594916  53.3770142
  72.7778828  96.8700172  54.0269005  74.5199596  98.2157483  53.9599597
  74.8978299  99.0056345  53.3108120  74.3520287  98.6168401  54.9594722
  75.2499480  97.4079117  54.0111189  72.1173982  98.7460770  53.4645790
  71.1602991  98.3645089  53.1089574  72.0164999  99.0702559  54.5003535
  72.4226968  99.5914351  52.8479256  72.8441571  95.7211997  49.9427493
  73.4987735  94.6294066  50.0507646  72.7361105  96.3633015  48.7524396
  72.2321890  97.2384700  48.7368669  73.2116657  95.8091902  47.4746755
  73.9851911  95.0425807  47.5201441  72.0541367  95.3267570  46.5390684
  71.2899616  96.1040188  46.5400098  72.5017199  95.0509667  45.0956783
  73.2656118  94.2734279  45.0938855  71.6463673  94.7206027  44.5063292
  72.9112233  95.9628990  44.6611836  71.1501834  94.2544110  47.0295708
  70.6802291  94.6247895  47.9406490  70.3889309  94.1035099  46.2641800
  71.8749523  92.8785645  47.3314423  72.6360813  93.0285858  48.0971290
  71.1434071  92.1517507  47.6845466  72.3447854  92.5073072  46.4206598
  74.0582956  96.9286115  46.9394971  73.4982024  97.9631971  46.6480624
  75.3433138  96.7817648  46.9222291  75.6649310  95.8272443  46.9967430
  76.3701865  97.8785909  46.8817951  75.8185966  98.8091215  46.7477782
  77.2294902  97.9713836  48.1522094  77.5920986  96.9582472  48.3259049
  78.4395703  98.9642491  48.1452597  78.0776767  99.9777274  47.9720682
  78.9512006  98.9210401  49.1067524  79.1336813  98.6863549  47.3521116
  76.2701088  98.4498104  49.2499595  76.0893562  99.5092638  49.0683345
  75.3410290  97.8953545  49.1177139  76.7889655  98.2538121  50.7070437
  77.7178430  98.8083904  50.8401954  76.0428029  98.6213401  51.4115036
  76.9695180  97.1944805  50.8895739  77.2432407  97.6950567  45.6746511
  77.8360642  96.6758293  45.4643350  77.2991872  98.7488594  44.9143328
  76.6671423  99.5104264  45.1159121  78.1877677  98.8668603  43.7339556
  77.8672942  98.1678488  42.9614410  78.1399910 100.2862082  43.1600890
  77.1427496 100.6548420  42.9198433  78.5699082 100.8948755  43.9555734
  79.0131013 100.3696307  41.9376762  78.9961942  99.4480756  41.1351804
  79.6049142 101.4127282  41.7250873  79.6480711  98.5112629  43.9460068
  80.3235928  99.2181016  44.6615908  80.2305766  97.6008617  43.1690661
  79.6195442  97.0665039  42.5680666  81.6161761  97.2504972  43.2110174
  81.9158988  97.0268602  44.2348592  81.8678096  95.9949977  42.3353910
  82.8307271  95.5963616  42.6547314  81.0790423  95.2882360  42.5931390
  81.8835522  96.2209000  40.7575414  80.9151301  96.6738564  40.5451976
  82.6763164  96.8621255  40.3722403  81.9592892  94.8460929  40.0322316
  82.1722400  93.7647667  40.6495473  81.9373133  94.9080823  38.7018954
  81.9828779  94.0576451  38.1589572  81.8751838  95.8052399  38.2421678
  82.6371786  98.3327243  42.8485144  83.7882586  98.2113942  43.1752340
  82.2100835  99.2973184  42.0520484  81.2561362  99.2355378  41.7260620
  83.0808227 100.3358669  41.4723241  84.1309399 100.0478892  41.5215373
  82.6982128 100.4841581  40.0539418  83.1876137  99.5949710  39.6565348
  81.6402723 100.4635486  39.7923369  83.3037212 101.6766308  39.3262175
  84.6989736 101.8631212  39.0872407  84.7807420 102.8270325  38.1410764
  85.7552425 103.0738135  37.7197134  83.5291761 103.3384820  37.8822942
  83.3051727 104.1199604  37.2829496  82.6014994 102.5893221  38.5948393
  81.5369525 102.8002576  38.4931181  83.1614235 101.6672455  42.2391724
  84.1774362 102.2876803  42.2450782  82.0555676 102.1921259  42.7792458
  81.2122971 101.6746689  42.5761883  81.9486224 103.3976238  43.6012894
  82.8913419 103.9325621  43.7162683  80.9350713 104.3336783  43.0133727
  80.8337139 105.1901432  43.6799271  81.3445190 104.8165977  41.6228639
  81.4456280 103.9606692  40.9555836  80.5829561 105.4922416  41.2334716
  82.2974960 105.3418923  41.6861176  79.6747764 103.6858228  43.0085918
  79.0143089 104.2735087  42.6344149  81.5151233 103.2593618  45.1210298
  81.3697757 104.2461556  45.8159090  81.1880891 102.0532017  45.5705190
  81.4113916 101.3209442  44.9117062  80.4723591 101.6961353  46.7766716
  80.0816394 100.6795487  46.7320732  81.5087891 101.7806002  47.9363886
  82.2802948 102.5436396  47.8331942  80.9029445 101.9939856  48.8170242
  82.2221425 100.4796552  48.2082527  81.8997592  99.7395521  49.3446467
  81.3058257 100.2059534  50.1306573  82.3251665  98.4236982  49.4832224
  81.9903963  97.8280250  50.3324592  83.2210176  97.8396988  48.4902021
  83.5297482  96.7954537  48.5385501  83.6879359  98.6639560  47.4497285
  84.5010709  98.3304445  46.8049946  83.1007921  99.9212212  47.2445669
  83.3176694 100.4822045  46.3355224  79.1434389 102.4850291  47.1147420
  78.8383906 102.6031080  48.2747385  78.3701986 102.8834744  46.1330894
  78.7377839 102.8262231  45.1940991  77.0279321 103.3702568  46.3117245
  76.9881913 104.1405760  47.0818728  76.5716596 103.9833761  44.9808278
  77.2754472 104.7891811  44.7723556  76.6923230 103.1949999  44.2378585
  75.1599115 104.5198576  44.9209125  74.7844649 104.7814545  43.9316160
  74.5693048 103.6990242  45.3277485  75.0482653 105.7506558  45.8579508
  74.9687149 105.6029896  47.1372879  75.1998270 106.8788008  45.3186393
  76.1141470 102.1914585  46.6735520  76.2217282 101.0492769  46.1160168
  75.1563642 102.5291041  47.5341289  75.1750664 103.4500395  47.9484085
  74.0784181 101.5893872  47.9503277  74.4889325 100.5797763  47.9665401
  73.5319118 101.9115595  49.3249796  73.0912865 102.9085106  49.3188762
  72.4422656 100.8651061  49.7030156  72.8822796  99.8678885  49.7097790
  72.0460882 101.0935807  50.6924313  71.6346859 100.9003802  48.9718026
  74.6350354 101.8690713  50.4428295  75.4127276 102.5978661  50.2144550
  74.1856742 102.1079898  51.4067237  75.0731359 100.8718369  50.4839676
  72.9861383 101.7006688  46.8549701  72.1169841 102.5676061  46.9740989
  72.9623319 100.7475817  45.9937876  73.7074904 100.0678824  46.0471459
  72.0132652 100.6378462  44.9144140  71.8183431 101.6278850  44.5021911
  72.5333516  99.7552169  43.8171101  72.5542226  98.7388280  44.2103241
  71.7574547  99.8337627  43.0555888  73.9060020 100.0934335  43.1906810
  74.6642151 100.1494054  43.9717577  74.2866033  98.9768847  42.1787682
  73.5290412  98.9206199  41.3970823  75.2536494  99.2058615  41.7310046
  74.3444254  98.0199888  42.6975235  73.7619403 101.4009791  42.4235620
  73.4547317 102.1921417  43.1075095  74.7176627 101.6640870  41.9702738
  73.0101615 101.2839678  41.6430263  70.5990139 100.1606305  45.2565358
  69.7144534 100.7963790  44.7099797  70.4365992  99.2114757  46.1512763
  71.2314483  98.6390171  46.3974579  69.1409784  98.9222305  46.7935247
  68.5345100  99.8268785  46.8371966  68.3481469  97.8143255  45.9488621
  68.3431568  98.2298838  44.9411987  68.8669548  96.8557282  45.9434294
  66.9244838  97.5278574  46.3001389  65.7926695  97.9379681  45.6354762
  64.7782744  97.4480567  46.2715417  63.7850167  97.7219122  45.9158150
  65.1686431  96.6530781  47.3039056  64.6078798  96.1249715  47.9571650
  66.5181690  96.6973939  47.3007666  67.0841747  96.1184217  48.0305131
  69.2525086  98.4145570  48.2541710  70.0989341  97.5461212  48.4974593
  68.3324640  98.8079690  49.1306834  67.7902860  99.6100153  48.8428222
  68.2387701  98.3641797  50.5514316  69.0163065  97.6003278  50.5595920
  68.6582332  99.4961945  51.4821744  67.8853502 100.2647397  51.4916645
  68.7945723  99.1062784  52.4908753  69.5951409  99.9281666  51.1304594
  66.9268555  97.6090823  50.9552051  65.9404855  98.3088122  51.1999689
  66.9046842  96.2983177  50.9684632  67.6360009  95.7949031  50.4869563
  65.8083662  95.5362673  51.5471616  64.8488076  95.9314465  51.2137250
  65.9192277  94.1208813  51.1042020  65.8782385  94.0816303  50.0156808
  66.8251750  93.6240165  51.4513114  64.7877618  93.3236646  51.5963964
  63.4431673  93.3344396  51.1473178  62.7984968  92.3944125  51.8826939
  61.7288340  92.2296543  51.7531742  63.7146556  91.7858689  52.7189437
  63.5295958  91.0171556  53.3473803  64.9479792  92.4048000  52.5586127
  65.7960018  92.0966548  53.1701726  65.7816897  95.7019337  53.0620237
  66.8949241  95.6731060  53.6762584  64.6045955  95.8479139  53.6759128
  63.7696872  95.8490150  53.1075587  64.4575530  96.0200982  55.1422617
  65.4401357  96.1272273  55.6017764  63.6306188  97.2732421  55.4557585
  62.6389306  97.1486054  55.0208800  63.5430695  97.3656251  56.5383021
  64.2867229  98.5465074  54.8827263  65.3555614  98.4450382  55.0708461
  64.1174135  98.6794588  53.8141945  63.7861289  99.7656587  55.6033738
  63.2166671  99.7644090  56.7174989  63.8864920 100.8959238  54.9602634
  63.5664955 101.7502086  55.3937390  64.2837381 100.9115882  54.0317961
  63.7263368  94.6868973  55.6379189  62.6286582  94.3839144  55.1601605
  64.2789275  93.8679016  56.5079646  65.2787556  93.7327279  56.5545618
  63.4242402  93.0523842  57.3817866  62.6677296  92.5027934  56.8216608
  64.3565520  92.0543859  58.0462746  65.1696680  92.5276187  58.5967218
  63.7410192  91.4754631  58.7348004  64.9980651  91.0583195  57.0937759
  64.3164014  89.9099212  56.6971000  63.4469271  89.5320100  57.2349639
  64.7841654  89.2378852  55.5670724  64.1308338  88.4812978  55.1325221
  66.0193999  89.4962191  54.9969072  66.4092725  88.9011938  54.1710475
  66.7746550  90.5597959  55.5128753  67.7673122  90.7564075  55.1078127
  66.2593730  91.3739702  56.5493201  66.8356801  92.2255137  56.9110433
  62.6046543  93.8440711  58.4034166  62.6888230  95.0362391  58.5607228
  61.6904843  93.0975595  59.0617809  61.4949566  92.1605978  58.7393356
  60.7971281  93.6895306  60.1224047  60.3483741  94.5998710  59.7249133
  59.6878505  92.7549856  60.5626990  60.1858154  91.8418913  60.8888724
  59.1892220  93.2199578  61.4131522  58.6342431  92.4090614  59.4691787
  59.1554815  91.9080729  58.6534448  57.5102645  91.5083013  59.9851992
  56.9882347  92.0088421  60.8007007  56.8083651  91.3030641  59.1769197
  57.9323247  90.5703764  60.3461181  58.0081271  93.7199209  58.9247741
  58.7899115  94.3443411  58.4923252  57.2702783  93.4801367  58.1591475
  57.5236544  94.2576111  59.7398044  61.5556991  94.2931341  61.3248833
  62.7412106  94.1019965  61.5243102  60.9631648  95.1244370  62.1571402
  60.0264311  95.4182506  61.9198578  61.5352678  95.5943666  63.4002501
  62.5086180  96.0545433  63.2301741  60.5919157  96.6483498  63.9982605
  59.6830009  96.0955690  64.2357607  61.0807267  96.9570477  64.9223110
  60.2298706  97.9026548  63.1614448  59.9515097  98.6547211  63.8996943
  61.1165694  98.2349480  62.6215851  59.0874881  97.7483333  62.1707904
  58.5022252  96.7067260  62.0241636  58.8060645  98.7854209  61.4434727
  58.0557675  98.7368931  60.7690835  59.3386346  99.6362997  61.5551684
  61.6451851  94.4785218  64.4151229  60.7173456  93.7888712  64.8458779
  62.9140747  94.2749871  64.7460047  63.5724378  94.7689847  64.1606640
  63.4170415  93.2689278  65.6359165  64.4987276  93.3853998  65.7029146
  62.8253913  93.3428324  67.0554143  61.7851415  93.0460830  66.9215504
  63.3256236  92.6274711  67.7081975  62.8593391  94.7266332  67.7253224
  63.4888217  95.6600487  67.2580183  62.2569755  94.8897663  68.8760089
  62.2717433  95.7935529  69.3266212  61.7802531  94.1110864  69.3078587
  63.4231456  91.8711515  65.0146965  63.5149817  90.9135434  65.7486916
  63.4314255  91.8723038  63.6859207  63.2429368  92.7598783  63.2423184
  63.5594541  90.6752355  62.8305090  63.4076745  89.7956310  63.4560952
  62.5672581  90.6293492  61.6782784  61.5629289  90.5545567  62.0952055
  62.6572590  91.5569282  61.1129492  62.8298963  89.4118222  60.7284226
  63.7360258  89.6756963  60.1830781  62.9691045  88.4483053  61.2186834
  61.6246792  89.3195239  59.7265016  61.0372282  88.2275680  59.7273646
  61.3461858  90.2105955  58.8986666  65.0436254  90.6951318  62.4432290
  65.4805991  91.4517526  61.5836024  65.8911221  89.8733401  63.0231494
  65.5359197  89.1281701  63.6050878  67.3194655  89.9466081  62.7974266
  67.5670961  91.0020456  62.6841571  68.2245671  89.3404161  63.9051542
  68.0931309  88.2599631  63.9638493  69.2085114  89.5643547  63.4930799
  68.1117329  89.9310519  65.2743320  66.9158274  90.1909219  65.9483814
  65.9585958  90.0386339  65.4497678  66.9518207  90.6573936  67.2946977
  66.0239246  90.9868750  67.7621938  68.1587599  90.8139422  67.9618951
  68.1679864  91.1103408  69.3249346  67.2868408  91.1832408  69.6989234
  69.3559943  90.5352665  67.2620275  70.3079755  90.6796737  67.7728883
  69.3341853  90.0860638  65.9499542  70.2677951  89.8516391  65.4385660
  67.7173970  89.1359471  61.5740206  67.4982593  87.8919833  61.5528855
  68.4774259  89.6820308  60.6446984  68.5369114  90.6902670  60.6401617
  69.2196226  88.9319496  59.6106639  68.7015978  88.1132101  59.1112491
  69.4780891  90.0311689  58.5982386  70.0044372  90.8543741  59.0813440
  70.0870817  89.6395408  57.7834652  68.5287756  90.3907363  58.2012318
  70.4879203  88.3140126  60.2048600  71.3064238  88.9527736  60.8219575
  70.6373480  86.9488388  60.1156028  69.8871668  86.4069505  59.7110233
  71.7878216  86.2310557  60.6838519  72.3383977  86.8935936  61.3516908
  71.3221914  84.9871872  61.4911095  70.5021988  84.4182391  61.0529207
  72.2457535  84.4140644  61.4094797  71.0187423  85.2637349  62.9782009
  71.9716139  85.5841844  63.3994474  69.9480152  86.2743343  63.3272245
  68.9946910  85.9543099  62.9066817  69.8591603  86.3507102  64.4109091
  70.2177905  87.2470119  62.9158609  70.3031856  84.0046829  63.4432361
  70.9580193  83.1436146  63.3096189  70.0427884  84.1023890  64.4971565
  69.3952333  83.8644920  62.8566628  72.8759904  85.8092552  59.6760866
  74.0716025  85.9263703  60.0585443  72.4637756  85.3400675  58.4775776
  71.5151475  85.6012498  58.2495687  73.2721812  84.6245556  57.4396268
  74.3336696  84.7911797  57.6228699  72.9998286  83.1220146  57.4799982
  73.5012725  82.7324977  56.5940356  73.5207943  82.7767578  58.3730225
  71.7038597  82.6742787  57.5053596  71.6972845  81.7146001  57.5293096
  72.8370011  84.9885571  56.0185166  71.7378389  85.5209187  55.8290366
  73.6916687  84.6902169  55.0580030  74.3255695  83.9253768  55.2404551
  73.7788605  85.3819405  53.7387255  72.7978808  85.7027517  53.3882141
  74.6411478  86.6032403  53.9426335  74.1807713  87.1108041  54.7902960
  75.6564194  86.3061300  54.2054054  74.6821866  87.5549163  52.7368841
  74.9982992  86.9715859  51.8720724  73.3474787  88.2187909  52.4394108
  73.0309164  88.8027176  53.3036543  73.4523822  88.8760163  51.5761896
  72.6007039  87.4543560  52.2247784  75.7673738  88.5493676  53.0396072
  76.7157094  88.0265379  53.1637366  75.8496843  89.2597729  52.2170195
  75.5249829  89.0841380  53.9579570  74.4313823  84.4309801  52.6920448
  75.6571290  84.0369190  52.8981172  73.8007976  84.0554532  51.5409621
  72.8169487  84.2701786  51.4632847  74.4366314  83.2514455  50.4578066
  75.5175170  83.1929802  50.3298717  73.8592799  81.7792160  50.5686967
  72.8121716  81.8698135  50.8575835  73.9637671  80.9580411  49.2816835
  75.0106945  80.8666127  48.9924001  73.5454146  79.9654307  49.4484360
  73.4097250  81.4563225  48.4861619  74.2416183  80.9024395  51.8014069
  73.9076182  81.3939810  52.7151535  73.7613704  79.9275442  51.7174971
  75.3233463  80.7724169  51.8339562  74.2373722  83.9020613  49.1064355
  73.1330332  84.4374625  48.8820562  75.1873816  83.7214778  48.2057327
  76.0656945  83.3243341  48.5072999  75.0932686  84.2545456  46.8206759
  74.0284740  84.3354440  46.6021190  75.7383741  85.5629529  46.5319974
  75.3051417  86.3643647  47.1304521  76.8145859  85.5253156  46.7006737
  75.4759300  85.8159021  45.1164241  75.8695550  86.6539496  44.8627793
  75.5508393  83.1202436  45.8678354  76.7332748  82.7322332  45.9287646
  74.6848532  82.5945925  44.9648471  73.8048071  83.0561271  44.7842813
  74.9236390  81.2588253  44.3439402  75.8971242  81.2190794  43.8552214
  74.8956052  80.2019346  45.4802003  75.2864455  79.2511345  45.1178163
  75.4952396  80.5426497  46.3242690  73.2479856  79.8471763  46.1451170
  73.6494172  78.9475693  47.0386818  73.9727899  80.9508497  43.1700854
  73.1638256  81.8259786  42.8100158  74.0387017  79.7301553  42.5716918
  74.9084488  79.2316676  42.6947748  73.0290920  79.1760740  41.6000231
  72.0568626  79.6452395  41.7508638  73.5112596  79.4766381  40.1267412
  72.7103660  79.1853171  39.4471820  73.6846516  80.5496013  40.0443678
  74.8232165  78.7049740  39.7492197  75.6027680  79.0335530  40.4365597
  74.6304505  77.6428360  39.9002374  75.2968317  78.9476525  38.2613052
  76.3062036  78.5371896  38.2332397  74.6335064  78.3206710  37.6654922
  75.3077109  80.3936070  37.6778172  74.2699171  80.7155105  37.5914300
  75.8259331  81.0286181  38.3963614  75.9628684  80.5003231  36.3698182
  75.4825619  79.9123128  35.7037481  75.9325021  81.4596425  36.0553594
  76.9246418  80.2024915  36.4497395  72.7128423  77.7372746  41.9422340
  73.6570404  76.9499390  42.1987992  71.4520894  77.3727526  42.0470704
  70.7727262  78.0930006  41.8475516  70.9614591  76.0612517  42.5728855
  71.7829807  75.4298125  42.9112433  70.0590167  76.3807194  43.7768004
  69.2265075  76.9993684  43.4416868  69.6800024  75.4195396  44.1240488
  70.7928565  77.0892608  44.9295355  71.2875257  77.9809569  44.5444624
  69.7861222  77.4940766  46.0326839  69.2913582  76.6027959  46.4185932
  70.3161345  77.9944702  46.8431122  69.0406951  78.1705319  45.6145366
  71.8290864  76.2201895  45.6372309  72.5877512  75.9030728  44.9217142
  72.3004027  76.7932931  46.4356759  71.3401292  75.3427159  46.0603858
  70.2812504  75.1075587  41.4893844  69.4240126  75.5305206  40.7230185
  70.8127282  73.8705694  41.4970006  71.6534456  73.6110035  41.9929029
  70.1307064  72.8643226  40.7477940  70.7382951  71.9686053  40.8767351
  69.1800623  72.7354755  41.2652624  69.8688070  73.0670078  39.2973605
  70.8149901  73.5048870  38.5788284  68.6860650  72.6395999  38.8042198
  68.0677123  72.0555214  39.3488220  68.2900059  72.9719984  37.3733220
  69.0581782  72.6599895  36.6657481  67.0239470  72.2159599  37.0730057
  66.7987991  72.4491265  36.0323132  67.2988365  71.1646208  37.1579873
  65.7817218  72.4935508  37.9415762  66.0862750  72.2420504  38.9574973
  65.6202561  73.5689388  37.8669331  64.4442900  71.7362498  37.5916786
  64.6224921  70.6637982  37.6703589  63.6806485  72.0309200  38.3114846
  63.9623665  72.0748535  36.1616795  63.2983058  72.9379551  36.2083672
  64.8284543  72.3163479  35.5455046  63.2256689  70.9064187  35.5568046
  62.4228510  70.6827576  36.1273823  62.9197899  71.1472661  34.6248547
  63.8409571  70.1066652  35.5130585  68.0812838  74.4174155  36.9894712
  68.1143253  74.7311317  35.8416117  67.7378355  75.2795604  37.9710798
  67.6937913  74.9219948  38.9146402  67.4171591  76.6847130  37.7485268
  66.7764196  76.7834129  36.8722789  66.7018911  77.2479343  38.9269090
  65.9554281  76.5080088  39.2157036  67.4668603  77.3126826  39.7006853
  66.0284646  78.6137255  38.7595285  65.3440956  79.0647025  39.7639208
  66.2334350  79.2028340  37.6291195  68.7130510  77.5669542  37.4952549
  69.5738063  77.4924251  38.3527646  68.8487385  78.3529225  36.4088016
  68.0930403  78.0553871  35.2591156  67.0617249  78.3594062  35.4381721
  68.1302777  76.9787702  35.0929580  68.7400283  78.8325968  34.1402110
  68.3478189  79.8487026  34.0977864  68.5754987  78.3398787  33.1819520
  70.2145244  78.8217116  34.5098377  70.7822251  79.6413106  34.0693013
  70.6842051  77.8734316  34.2485626  70.1675914  78.9821678  36.0547585
  70.9212956  78.3969132  36.5815463  70.3463222  80.4589320  36.3895611
  71.4691200  80.9898586  36.2401953  69.3248591  81.1315124  36.8804658
  68.3971755  80.8123024  36.6404502  69.4547264  82.3634487  37.6598847
  69.8456395  83.1830847  37.0569892  68.0423170  82.7324745  38.1321988
  67.7219358  81.8700466  38.7167271  68.0408909  83.6202193  38.7646599
  67.0430068  82.9460539  36.9834203  66.9145519  84.0660378  36.5233306
  66.2542279  81.9971611  36.5407238  65.6147874  82.1888551  35.7827864
  66.2896376  81.0788224  36.9596521  70.4784416  82.2548437  38.8310628
  70.5984211  81.2001171  39.5196161  71.1542197  83.3192888  39.0403508
  71.1016931  84.0523443  38.3475522  72.0029845  83.5406791  40.2340998
  72.2855059  82.6371232  40.7743475  73.3023590  84.3666328  39.9233164
  72.9935587  85.1250401  39.2038992  74.0041536  85.0256009  41.0739086
  74.3136844  84.2677251  41.7935715  74.8818466  85.5583096  40.7078818
  73.3275544  85.7302327  41.5574457  74.2206890  83.6021852  39.1571245
  75.0047682  84.1271338  38.9803505  71.1294479  84.3279641  41.2567015
  70.5712971  85.3582707  40.9600787  71.1130264  83.8637814  42.4944086
  71.8778121  83.2322092  42.6849837  70.1667750  84.1697619  43.5893470
  69.4867658  84.9675489  43.2906456  69.3599560  82.9462249  43.9068835
  69.9958751  82.0652125  43.9936203  68.9366640  83.1856095  44.8823931
  68.2631024  82.6714360  42.9460905  67.2209590  83.5828672  42.7183865
  67.1917577  84.5201034  43.2741159  66.1862550  83.2826065  41.7492506
  65.4603796  84.0478672  41.4743275  66.2181783  82.0773528  41.0615970
  65.1366008  81.6303301  40.3549756  64.3883563  82.2304425  40.3949118
  67.3263795  81.2637606  41.2435527  67.3707339  80.3808662  40.6058767
  68.3276209  81.5065594  42.1496378  69.1566324  80.8055418  42.2466659
  70.8633322  84.5850217  44.9052537  71.8736529  83.9202383  45.2676431
  70.3292855  85.5949743  45.6612119  69.8043865  86.2839961  45.1417608
  70.6152806  85.8587121  47.0634484  71.6107288  85.4900042  47.3109087
  70.5640375  87.3596481  47.3531212  69.6574856  87.6873470  46.8443223
  70.5135099  87.6446747  48.4039812  71.7487225  88.1706759  46.7250924
  73.0574420  88.1037224  47.2701031  73.2840976  87.4005551  48.0715285
  74.0509448  88.9389413  46.7779866  75.0524219  88.8964560  47.2061681
  73.7655748  89.8533206  45.7130536  74.5322660  90.5333610  45.3417995
  72.4613139  89.8673945  45.1379619  72.2498947  90.4726116  44.2564210
  71.4614096  89.1050868  45.7078665  70.4304994  89.2200433  45.3730395
  69.7552730  84.9725293  47.9814189  68.5667111  84.7911812  47.5944416
  70.2839344  84.3960348  49.0835025  71.2787376  84.4016388  49.2579574
  69.3850120  83.7399891  50.0977775  68.3295013  83.9612391  49.9395220
  69.6291453  82.2046985  49.9144398  70.6718278  81.9572354  50.1136273
  68.7178246  81.4639529  50.9320598  67.6748807  81.7105747  50.7331972
  68.8614532  80.3879988  50.8330927  68.9769932  81.7729587  51.9447029
  69.2973071  81.8084085  48.4301222  68.3261285  82.2421939  48.1919142
  70.0617000  82.2614040  47.7987761  69.2574356  80.3129557  48.1810333
  68.4929029  79.8592966  48.8117337  69.0222333  80.1247190  47.1334904
  70.2284745  79.8785062  48.4185980  69.8023287  84.2129754  51.5082429
  71.0005502  84.1947452  51.7548558  68.9252146  84.5326928  52.4153508
  67.9772149  84.2716828  52.1845490  69.1890309  85.0882194  53.7474917
  70.2785403  85.1128153  53.7690236  68.6660395  86.5234875  53.8270044
  67.5780387  86.4601694  53.8455579  69.1465391  87.3124072  55.0290759
  70.2344996  87.3765529  55.0109627  68.7233313  88.3164198  54.9981823
  68.8277571  86.8122864  55.9436025  69.3328368  87.3944093  52.6785086
  69.0808544  86.9695132  51.7068758  68.9604239  88.4172673  52.7348098
  70.4155359  87.3950445  52.8044571  68.3410307  84.3244079  54.7451999
  67.1353257  84.2654157  54.5905093  69.0152167  83.8305239  55.7657844
  70.0209406  83.7697575  55.6955969  68.3693196  83.3601830  57.0109404
  67.3967800  82.9708355  56.7098185  68.9908697  82.5419943  57.3747289
  68.1740954  84.3633746  58.1260010  68.9359491  85.2742762  58.3125868
  67.1828948  84.1686345  58.9912429  66.6672276  83.3009776  59.0280953
  66.7662594  85.2627037  59.8734745  67.6039985  85.8813594  60.1952780
  65.6816601  86.1860823  59.2300918  65.4986128  86.9816909  59.9523113
  66.0224627  86.7849765  57.9065434  66.2052035  85.9899233  57.1836355
  65.1937482  87.4041664  57.5631262  66.9177402  87.3989382  58.0046742
  64.4399671  85.5123794  59.1180922  63.7921930  86.0992094  58.7210790
  66.2585381  84.6892043  61.1881773  66.3734060  83.4534873  61.3606558
  65.8122149  85.5304505  62.1346289  65.8522055  86.5193876  61.9333740
  65.2421666  85.1113324  63.3896428  64.6419075  84.2138246  63.2404186
  66.3333963  84.8017168  64.3854740  66.9375288  85.6935202  64.5522389
  65.8867339  84.4846296  65.3278374  66.9650635  84.0030989  63.9964941
  64.4225140  86.1547316  64.0155179  64.5601634  87.3506422  63.8021438
  63.6094316  85.7507239  64.9882073  63.2349704  84.8131643  64.9588813
  63.1459265  86.6606308  66.0666569  63.7083054  87.5922241  66.1296105
  61.7049854  86.9836490  65.6150234  61.3279611  86.0841449  65.1283569
  61.1339411  87.1706178  66.5244470  61.5592916  88.1678975  64.6731642
  61.9112873  89.0585426  65.1936940  62.1874718  87.9851441  63.8013312
  59.8611513  88.4293071  64.1348016  59.5972613  90.1734164  63.9552090
  60.2899402  90.5717783  63.2138570  58.5730953  90.3547791  63.6291839
  59.7662917  90.6674090  64.9120274  63.2695921  86.0727624  67.4734748
  63.0995898  84.8603401  67.6095206  63.3457512  86.9112569  68.4952241
  63.3871423  87.8990930  68.2889087  63.5015414  86.4869440  69.8836412
  63.5475341  85.3998556  69.9486232  64.7768379  87.0759687  70.5350687
  64.6138554  88.1411754  70.6989919  65.1194588  86.3752324  71.9161108
  65.2830397  85.3100058  71.7529099  66.0212546  86.8206040  72.3362405
  64.2898716  86.5128390  72.6096172  66.0191352  86.9676945  69.6348147
  65.8432518  87.5092521  68.7053619  66.8791061  87.3978145  70.1481824
  66.2167238  85.9191713  69.4119724  62.2380918  86.7989653  70.7187590
  62.0990885  87.7988973  71.4394865  61.2715603  85.8655680  70.6334990
  61.3526542  85.1930519  69.8843360  60.1146341  85.8504125  71.4138619
  59.6839643  86.8506153  71.4609459  59.0723505  84.8933375  70.7995425
  59.5387773  83.9091233  70.7563242  58.2299681  84.8655860  71.4907166
  58.5773237  85.2821752  69.4109058  57.6985594  84.3629734  68.8271488
  57.4373551  83.4422737  69.3488612  57.1468348  84.6348755  67.5490039
  56.3386235  84.0095324  67.1697386  57.5922043  85.7522648  66.7964595
  57.2210109  85.9644090  65.4871619  56.6369920  85.2823274  65.1476236
  58.4958271  86.6316145  67.3932880  58.8660477  87.4770829  66.8134429
  58.9359618  86.4406464  68.7361813  59.5477065  87.2005044  69.2224779
  60.4245528  85.5401365  72.9230184  61.0564343  84.4994560  73.3010978
  59.8611690  86.3538147  73.9025424  59.2886070  87.6851458  73.6600631
  58.4445214  87.6079146  72.9747493  60.0448356  88.3428779  73.2315704
  58.8490194  88.1372015  75.1243238  57.7897915  87.9330960  75.2807728
  59.0378229  89.2016623  75.2635281  59.7162797  87.3073184  76.0527351
  59.1829816  87.0737167  76.9742136  60.6247594  87.8610382  76.2897132
  60.0622905  86.0442026  75.3316755  61.1236641  85.8413682  75.4746536
  59.2437115  84.8462452  75.8222420  59.4009175  84.4098130  76.9266659
  58.3397389  84.3223548  75.0009172  58.2936548  84.6819811  74.0582378
  57.4125974  83.2603851  75.3830100  57.0926050  83.3768437  76.4184527
  56.1355735  83.3547462  74.4434995  56.5195029  83.2832338  73.4258633
  55.5432862  82.4684249  74.6709424  55.2357323  84.6315413  74.5735347
  55.9096963  85.4681037  74.3890446  54.4390658  84.6365780  73.8296285
  54.6167209  84.7675932  75.9986069  55.3771781  85.1700111  76.9789530
  53.4385130  84.3955318  76.0995109  58.0700648  81.8445937  75.2209754
  57.4240069  80.8191543  75.5767902  59.2764811  81.7438934  74.6279416
  59.6146510  82.6392158  74.3052368  60.0796720  80.5755134  74.3670977
  59.7300442  79.7141910  74.9362930  59.9416955  80.2636035  72.8718885
  60.0996077  81.1954361  72.3288868  60.7284881  79.5550413  72.6130504
  58.5938124  79.6815091  72.4946164  57.8152121  80.4097246  72.7217389
  58.6204319  79.5021276  71.4198081  58.2944212  78.3757296  73.2197300
  57.0946392  78.1838559  73.5781568  59.1799301  77.5528738  73.4107598
  61.5834357  80.7717021  74.7702177  62.1843556  81.7658023  74.3061605
  62.1375392  79.8878695  75.5715256  61.5387521  79.2135299  76.0262995
  63.6101175  79.8921111  75.9227539  63.9737599  80.8933186  76.1539398
  63.8189167  78.9989745  77.1517864  63.4678766  77.9905877  76.9326363
  64.8791528  78.9675120  77.4028040  63.2583385  79.4031108  77.9947130
  64.4053350  79.4438681  74.6501749  65.2794663  80.1566960  74.1354779
  64.0172859  78.3563080  74.0482207  63.5023054  77.6467590  74.5496533
  64.5033946  78.0435491  72.7332054  65.5921060  78.0726953  72.6889653
  64.0383044  76.6160775  72.4207315  64.3656511  76.0161941  73.2698977
  62.9494952  76.6658493  72.4099063  64.5378121  75.9666378  71.1075871
  64.4254311  76.5895325  70.2201901  65.5947854  75.8822484  71.3601439
  63.9585377  74.5519951  70.8240852  63.3431695  73.9509577  71.7046696
  63.9859051  74.1983347  69.6495741  64.2051250  79.1077718  71.6422039
  63.1957136  79.8040473  71.8279918  65.1251784  79.4134394  70.6975759
  66.5462805  79.0575517  70.6490504  66.5930906  77.9753486  70.5276193
  66.9705119  79.3329892  71.6145870  67.2079608  79.8145006  69.4781493
  67.3031417  79.1793156  68.5974793  68.1896591  80.1971885  69.7572903
  66.2180806  80.9668810  69.2353105  66.2016567  81.1934588  68.1692469
  66.4199682  81.8789322  69.7970077  64.8905382  80.3858674  69.6567643
  64.3233413  81.2393737  70.0281307  64.0564155  79.6409116  68.5743877
  64.5558345  79.0807392  67.6133645  62.7553870  79.6839546  68.8090919
  62.3657309  80.2886242  69.5180645  61.8445955  78.7498568  68.1034276
  62.3879980  77.8541932  67.8024299  60.7160475  78.3446977  69.0136977
  60.3353719  79.2507409  69.4851538  59.9367125  77.9044515  68.3916685
  61.1322942  77.3431093  70.0950895  61.9230075  76.7077056  69.6961716
  61.5101552  77.8956313  70.9553468  59.9325533  76.4618127  70.5331535
  59.1823077  77.0995866  71.0005666  59.5058577  75.9874953  69.6493813
  60.3813496  75.3719042  71.5376684  60.8670263  74.5877099  70.9569292
  61.1103874  75.8356095  72.2021837  59.2414168  74.7600224  72.3736276
  58.5659825  74.3299144  71.7580829  59.6193387  74.0625274  72.9987483
  58.7915221  75.4864398  72.9121548  61.3481870  79.3569421  66.7983318
  60.5564176  78.6232787  66.1149335  61.7750774  80.5001195  66.3098054
  62.4628942  81.0141100  66.8416146  61.1670413  81.1549003  65.1329025
  60.7505555  80.4049983  64.4603806  60.0277619  82.1000604  65.5863688
  59.7313388  82.7085210  64.7319636  59.1847899  81.4869105  65.9050308
  60.4775621  83.0533288  66.7886542  61.4847417  83.4362941  66.6242532
  59.7622219  83.8729759  66.7210586  60.4066081  82.4677192  68.1677745
  59.6546864  81.5754269  68.5212036  61.3286472  82.9208619  69.0027510
  61.3556478  82.5807356  69.9533753  62.0008200  83.6045997  68.6852804
  62.1980333  81.8120389  64.2113120  62.9820226  82.6454025  64.6869788
  62.0549881  81.4546601  62.9552489  61.3178171  80.8160971  62.6927313
  62.9666604  81.9727124  61.8776077  63.2119358  83.0163271  62.0746039
  63.8827509  81.3824259  61.8566433  62.2593198  81.8690087  60.4780261
  61.2002542  81.2328114  60.3732063  62.9565687  82.3403893  59.4274104
  63.6730077  83.0216122  59.6341707  62.6442342  82.0635384  58.0182253
  62.4376699  80.9987457  57.9103042  61.4789341  82.8206126  57.5313296
  61.2951907  82.5608245  56.4888097  60.6070201  82.5570853  58.1300110
  61.7398155  84.3301391  57.6441594  62.0920398  84.5579789  58.6502050
  62.5019232  84.6165118  56.9193942  60.4985638  85.0824102  57.3756516
  60.1694557  84.8286598  56.3679823  59.7496599  84.7526812  58.0957358
  60.6419340  86.6221084  57.4781958  60.7969204  86.9697687  58.4137229
  60.4868611  87.5012287  56.4918978  60.2726308  87.1519373  55.2709384
  60.2165233  86.1723160  55.0315764  60.1617503  87.8592896  54.5585776
  60.6511905  88.7538183  56.7271045  60.8964534  89.0619440  57.6571608
  60.5343029  89.4242370  55.9807970  63.8874195  82.2414403  57.1207002
  64.6900133  83.1325773  57.4194092  64.0649615  81.3220485  56.1588876
  63.6357132  80.4192772  56.3032804  64.8551229  81.5308360  54.9361727
  65.7423040  82.0475964  55.3021884  65.2957603  80.1710719  54.1870430
  64.4186575  79.7008679  53.7424090  66.2905246  80.4903848  53.1114872
  67.1681653  80.9602271  53.5554417  66.5875263  79.5714270  52.6061088
  65.8400420  81.1719514  52.3899392  66.0836695  79.1482028  55.1200161
  67.1446046  79.3980766  55.1289832  65.6909475  79.1965382  56.1356601
  65.8947841  77.7087168  54.5590737  66.2877193  77.6594784  53.5435555
  66.4301004  76.9991921  55.1900335  64.8340612  77.4579408  54.5502303
  64.0723303  82.3911595  53.8874509  62.9539375  82.0076925  53.7021224
  64.6135245  83.4869725  53.3817123  65.3970759  83.8726378  53.8890671
  64.1053658  84.2332779  52.1825208  63.2726519  83.8195418  51.6137421
  63.7358424  85.6903302  52.6228354  64.6546767  86.2730486  52.6882724
  62.7468497  86.3786966  51.5961426  61.8275335  85.7967593  51.5305108
  62.5139736  87.3878252  51.9360375  63.2171086  86.4261489  50.6139479
  63.2696784  85.9762159  54.0260779  64.0457397  85.6846980  54.7337841
  63.0642854  87.0415039  54.1313151  62.3611404  85.4096484  54.2301877
  65.1474832  84.2156328  51.0055497  66.3343654  84.1676248  51.2934869
  64.6829849  84.4793139  49.7971042  63.7918139  84.9528285  49.7559015
  65.3592572  84.1824989  48.5547844  66.4334850  84.1058215  48.7228747
  64.8652189  82.8675572  47.9063982  63.7865750  82.9064445  47.7543642
  65.5534363  82.7112011  46.5773743  66.6321679  82.6717693  46.7286493
  65.2199081  81.7892036  46.1011602  65.3074558  83.5592149  45.9382594
  65.0592203  81.5130388  48.6596401  64.5375482  81.5505540  49.6159626
  64.6539725  80.7002574  48.0569294  66.1217168  81.3417241  48.8324216
  65.0208219  85.3395653  47.6096347  63.8426210  85.7105757  47.4875985
  66.0591008  86.0757641  47.0586698  66.9771784  85.7343596  47.3049946
  65.9669155  87.2584950  46.2435290  64.9406849  87.3918707  45.9012413
  66.3984721  88.5510722  47.0808724  67.4878453  88.5880205  47.0809437
  66.0071885  89.3854174  46.4987509  65.9588213  88.7757533  48.5067432
  64.9643171  89.6483680  48.8257949  64.5158128  90.2917368  48.0688138
  64.5135694  89.7121812  50.1664344  63.7108526  90.3957974  50.4428674
  65.0963107  88.9018551  51.1288965  64.6756096  88.9015725  52.1344364
  66.1813418  88.1101363  50.8377320  66.7232870  87.5695727  51.6137389
  66.5836215  88.0089921  49.5081942  67.3909199  87.3302130  49.2331884
  66.7997947  87.2225972  44.9699287  67.6920697  86.3919051  44.8178043
  66.5317391  88.0714753  43.9685865  65.7302183  88.6688710  44.1127463
  67.2764469  88.1535827  42.6070511  68.3030336  87.7979354  42.6949944
  66.5201761  87.2411656  41.6090594  66.6973330  86.1934696  41.8520568
  65.4506570  87.4473700  41.6503958  67.0524741  87.5390315  40.1704567
  66.6890560  88.5247457  39.8799474  68.1421599  87.5321318  40.1451704
  66.5488839  86.5407764  39.1934974  65.8841949  85.5644720  39.4640324
  66.8657439  86.6726935  37.9076736  66.5278407  85.9985926  37.2357281
  67.4426611  87.4463036  37.6096882  67.3024570  89.6782716  42.2601575
  66.4616658  90.4477236  42.7735022  68.2548466  90.1217195  41.4730508
  68.9225434  89.4467009  41.1286234  68.4924169  91.5159562  41.2029004
  67.7253792  92.1656961  41.6243152  69.8301844  91.8127765  41.9068917
  69.9672555  91.4754373  42.9342733  70.5426404  91.3019274  41.2591730
  70.0571209  93.2779999  41.8330722  69.5396066  94.2166022  42.7473585
  68.9437726  93.8954551  43.6017272  69.8026862  95.5936843  42.5448541
  69.2937381  96.3701660  43.1159494  70.5815845  95.9449818  41.3917815
  70.8510067  97.3054302  41.1913003  70.4712268  97.8671499  41.8708868
  71.2521541  94.9934165  40.6137231  71.9352359  95.2668909  39.8095393
  71.0175616  93.6520043  40.9015571  71.5913325  92.8770896  40.3932321
  68.4174364  91.9008350  39.7292324  68.9013432  91.1594527  38.8355319
  67.7594628  92.9914479  39.4243305  67.3831978  93.5340385  40.1886076
  67.4938913  93.4511597  38.0359683  68.4161782  93.5023826  37.4572953
  66.5193903  92.3964914  37.3478785  67.1256106  91.5158119  37.1357469
  65.7656371  92.1468207  38.0946185  65.9003661  92.8145535  36.1947978
  65.3384538  92.1116923  35.8603722  66.8651498  94.9114766  38.0958985
  66.4041703  95.4220055  39.0798767  66.8932549  95.5591307  36.9302037
  67.4278792  95.1164180  36.1965269  66.4260367  96.9404380  36.7179415
  67.0730645  97.4384699  35.9958484  65.0181917  96.9551545  36.1916241
  64.3351012  96.6903234  36.9986873  64.8631164  97.9972899  35.9123296
  64.7496942  96.0574547  34.9811245  63.5526495  95.9405745  34.6426543
  65.7622615  95.5444829  34.3519701  66.6625092  97.9263289  37.8805274
  65.6822463  98.5867978  38.3122305  67.8315969  97.9199677  38.5196951
  68.4940444  97.2182061  38.2217129  68.2443569  98.8807870  39.6560108
  69.3120858  98.7591144  39.8383569  68.0457652  99.9023010  39.3317118
  67.4909032  98.6170610  40.9441420  67.4135283  99.5004007  41.8085852
  66.8896366  97.4032864  41.0647854  67.0662468  96.7665018  40.3009703
  65.9895358  96.9667148  42.1423909  66.0878584  97.6532701  42.9832677
  64.4899612  96.9384536  41.6921563  64.4043621  96.2854993  40.8235813
  63.8933355  96.5344027  42.5100075  63.9856903  98.3221125  41.3351338
  64.8095819  98.8509782  40.8559632  63.1726012  98.1936675  40.6206479
  63.4803202  99.1451933  42.5516324  62.5322339  98.7469845  42.9131032
  64.2140184  99.1229088  43.3574177  63.2856908 100.5582992  42.0927325
  63.1620098 101.1718956  42.9850906  64.1957869 100.8552303  41.5715260
  62.1200309 100.7480932  41.1977373  61.2765630 100.4734130  41.6806581
  62.0544264 101.7202878  40.9319675  62.2346428 100.1799330  40.3705994
  66.3956331  95.5558745  42.6741622  66.7544328  94.6325070  41.8661800
  66.2335956  95.3134972  43.9924441  66.3761735  96.1021840  44.6070529
  66.0180596  93.9958404  44.5927929  66.4549705  93.2322741  43.9492290
  66.6543950  93.8957974  45.9628694  67.4994116  94.5762824  45.8580535
  66.0286875  94.2197377  46.7945261  67.2043785  92.3864600  46.2519638
  66.3280409  91.7540465  46.1098850  68.3696742  91.8310254  45.4374558
  69.2465684  92.4626952  45.5794018  68.5950711  90.8175020  45.7692197
  68.1007123  91.8156762  44.3812720  67.4641215  92.2559335  47.7191739
  66.5390948  92.4287442  48.2692298  67.8330382  91.2533550  47.9355949
  68.2097857  92.9904466  48.0234342  64.5329307  93.5850546  44.6143879
  63.7206453  94.3682812  45.1056491  64.1251729  92.3331308  44.3347164
  64.8611960  91.6601713  44.1750454  62.7261395  91.8699082  44.2627542
  62.1128606  92.5308835  44.8752082  62.1641491  91.8614075  42.8382987
  62.8921409  91.3362418  42.2199717  61.2373650  91.2887303  42.8731133
  61.8795085  93.2844901  42.2206648  61.2446700  93.8496143  42.9030983
  62.8425357  93.7854688  42.1221712  61.2192274  93.2449525  40.8729012
  61.0773099  92.1782111  40.2828985  60.7633207  94.3184430  40.3171890
  60.3231165  94.2657852  39.4096931  60.8492584  95.2052615  40.7928665
  62.8110849  90.4278938  44.8144912  63.5342955  89.6358616  44.1766759
  62.1821723  90.1161843  45.9172442  61.8854319  90.9120856  46.4636739
  61.9123696  88.7474809  46.4543761  62.8374007  88.2374097  46.7231588
  60.9629618  88.7448811  47.6937417  60.1352135  89.3847141  47.3878875
  60.4149376  87.4341409  48.2431226  61.2421441  86.7939235  48.5496363
  59.7765260  87.6384871  49.1026413  59.8334248  86.9307228  47.4707796
  61.6762402  89.3904731  48.6474502  61.1613215  89.4357690  49.4564046
  61.3002520  87.7244096  45.4811531  60.4849443  88.0923653  44.6654093
  61.6499798  86.4581797  45.7509237  62.2197299  86.3005378  46.5698457
  61.2737526  85.2828671  44.9148696  60.5920132  85.6134283  44.1312499
  62.4937722  84.5303642  44.2402129  63.1420155  84.2308302  45.0637172
  62.1680213  83.2922441  43.3617164  61.5201437  83.5910997  42.5376771
  63.0929555  82.8753420  42.9632318  61.6619556  82.5398764  43.9666477
  63.1485620  85.6639672  43.3865534  63.4600191  86.4783144  44.0407208
  64.0176325  85.2679791  42.8611873  62.4253573  86.0373542  42.6615306
  60.5274193  84.2737641  45.7697705  59.5405183  83.7471774  45.2490279
  61.0452686  83.9579006  46.9078480  61.9534324  84.3412697  47.1277707
  60.4665155  82.9623481  47.8262646  59.4053143  83.1917080  47.9229351
  60.6152581  81.5627467  47.1437265  61.6724285  81.3150132  47.0482329
  60.1189519  80.8066655  47.7521028  60.1581895  81.5899019  46.1545601
  61.0260268  83.0317828  49.2296035  62.0392812  83.6727903  49.5264837
  60.3137320  82.4891899  50.2089982  59.3942774  82.2381678  49.8747971
  60.5608105  82.4364650  51.6136581  61.6419250  82.3957766  51.7464553
  60.0157691  83.5954009  52.4268883  60.4885265  83.5917778  53.4090219
  60.2505463  84.5284597  51.9146568  58.4883960  83.4704858  52.5918270
  58.2656947  83.5973058  51.5323829  57.9924822  82.5731631  52.9619360
  57.9689462  84.7245162  53.3909468  58.4929198  84.9004404  54.5025219
  56.9108447  85.2964928  53.1167042  60.1969398  80.9946104  52.1250196
  59.4550261  80.3122627  51.4175773  60.6897561  80.5803984  53.2862683
  61.4527480  81.1115797  53.6809694  60.2888089  79.3615836  53.9494342
  59.2513351  79.1032574  53.7372674  61.1955909  78.2559730  53.3851321
  61.0047258  78.1820313  52.3145237  62.2302707  78.5569655  53.5492701
  60.9498377  76.8941792  54.0425673  61.4658795  76.8593764  55.0020413
  59.8799292  76.7588246  54.2009248  61.4624243  75.8074105  53.1642174
  60.9516662  75.8565391  52.2025462  62.5330071  75.9465978  53.0139548
  61.2072906  74.4201791  53.8154130  61.7290935  73.6429568  53.2570691
  61.5563490  74.4215484  54.8480095  59.7337212  74.1511135  53.7870907
  59.4101531  74.1493752  52.8303251  59.5476150  73.2516300  54.2070834
  59.2500569  74.8709576  54.3047706  60.3363194  79.5619295  55.4407243
  61.4272639  79.6988227  56.0302050  59.1466273  79.5149814  56.0629176
  58.2900491  79.4419124  55.5327911  59.0603099  79.5463081  57.4871883
  59.4729506  80.4711209  57.8903608  57.5565869  79.4716215  57.8579831
  57.0785237  80.1583816  57.1594737  57.2747468  78.4481254  57.6107549
  57.1257533  79.7785957  59.2086801  57.6750876  79.0657337  59.8236276
  57.4046761  80.7933043  59.4927007  55.6517516  79.5880208  59.4182654
  55.0298881  78.7342128  58.7798034  55.0005362  80.3493743  60.1786919
  59.7798057  78.3626367  58.1414855  59.4830738  77.2652184  57.7198588
  60.5580501  78.5245066  59.2285894  60.7993760  79.4604599  59.5215954
  61.0623921  77.4052208  60.0102105  60.5521038  76.4631741  59.8095787
  62.5588363  77.2383562  59.6682266  63.0599023  76.7097998  60.4791892
  62.7058782  76.4138546  58.3351262  62.2054216  76.9420476  57.5235498
  63.7625005  76.2965666  58.0945159  62.2516594  75.4312926  58.4630282
  63.2935300  78.5298770  59.5411242  63.2356116  79.0756364  60.4828749
  64.3379760  78.3321378  59.3000197  62.8447582  79.1271876  58.7474462
  60.9613162  77.5605439  61.5338897  60.9244034  78.6645003  62.0948628
  60.9651296  76.4599149  62.2962225  60.8977268  75.5961351  61.7771457
  60.9363433  76.3959537  63.7373572  60.4515438  77.2744666  64.1631315
  60.1673786  75.2152957  64.1063665  59.2744662  75.1765629  63.4824223
  60.7793484  74.3329376  63.9191837  59.7485999  75.2491758  65.6147320
  60.6298195  75.2373406  66.2561467  59.1572594  76.1398749  65.8270372
  58.9053364  74.0014492  65.8842200  58.2590427  73.7534720  65.0422516
  59.5201782  73.1374684  66.1364227  58.0410760  74.3873070  67.0975945
  58.6887806  74.8078588  67.8668249  57.3157179  75.1379825  66.7838411
  57.3299301  73.2133398  67.6413642  58.0018962  72.5178031  67.9325514
  56.7720394  73.4953754  68.4346572  56.7293745  72.8237526  66.9288659
  62.3274412  76.4373881  64.3878423  62.7187731  75.6002465  65.2425483
  63.1049093  77.4468708  64.0726075  62.7218749  78.0476793  63.3567772
  64.4407718  77.7853712  64.6383883  64.3037261  77.9601560  65.7055190
  65.0820238  76.9161072  64.4925279  65.1084785  79.0014098  64.0201401
  64.9332416  79.2063080  62.8539842  65.9878352  79.7476871  64.6839082
  65.8742550  79.6615413  65.6837970  66.9263692  80.7462519  64.1768073
  66.3171373  81.4884886  63.6610358  67.5414385  81.3899770  65.3963588
  68.1618378  80.6615417  65.9184573  68.1558268  82.2366346  65.0900940
  66.7512834  81.7371009  66.0621359  67.9543956  80.2409181  63.1047842
  68.6851466  79.2358970  63.3316445  68.0283780  80.8728078  61.8935179
  67.4244391  81.6582278  61.6973736  68.8646567  80.3454332  60.8020001
  69.0132061  79.2716584  60.9161921  68.1579006  80.6084723  59.4363072
  68.2559049  81.6714888  59.2161022  68.7643745  79.7630522  58.2396571
  68.6663074  78.6998509  58.4589443  68.2260561  79.9951344  57.3207166
  69.8182363  80.0122154  58.1155824  66.6357919  80.2756758  59.4498931
  66.1358260  80.8894354  60.1991830  66.2093819  80.4823520  58.4682826
  66.4958470  79.2220968  59.6917349  70.2927123  80.8604444  60.8345968
  70.6588996  81.8647892  60.2451018  71.1014364  80.2385102  61.7201160
  70.7794167  79.4005625  62.1829833  72.4620378  80.7113456  62.0039498
  72.4531456  81.7397331  62.3651136  73.0524402  79.8122261  63.0986050
  73.0202411  78.8743747  62.5440807  74.0810697  80.0275824  63.3878161
  72.1414509  79.6866671  64.4156048  71.9387653  80.7569925  65.3556958
  72.1785851  81.7907421  65.1068027  71.4118962  80.4386374  66.6355165
  71.1459675  81.2322432  67.3337812  70.9847288  79.1206614  66.8735547
  70.7595950  78.7764027  68.1500870  70.9224593  79.4941421  68.7664675
  71.0415380  78.1055134  65.9023424  70.5553236  77.1383487  66.0299691
  71.7708529  78.3824443  64.7159065  72.0403281  77.5709773  64.0398855
  73.4151515  80.6087493  60.7767928  74.2988277  81.4954129  60.7593251
  73.3722969  79.5719611  59.8753574  72.5988025  78.9244423  59.9256082
  74.4619437  79.2902129  58.9141557  74.9235267  80.2217249  58.5865497
  75.5569717  78.4021649  59.5978372  75.8223457  78.8312075  60.5640662
  75.1693847  77.3937642  59.7427663  76.7368148  78.3502424  58.7506959
  77.4077607  77.8061642  59.1695162  73.8903285  78.6895231  57.6769206
  72.9441828  77.9002787  57.7762666  74.5106728  78.9964531  56.5296060
  75.3839644  79.5011833  56.5816498  73.9569770  78.6566335  55.1587049
  73.5145393  77.6608275  55.1855063  72.8946905  79.6468180  54.7282074
  73.4214607  80.5999844  54.6825316  72.6285420  79.3306736  53.7195858
  71.6259888  79.8063338  55.5626274  71.3981584  78.7814635  55.8556037
  71.9760756  80.3628985  56.4319818  70.1043474  80.6000610  54.9105457
  70.9883031  81.9687723  54.1573255  71.6919923  81.5849878  53.4186578
  70.2779787  82.6361256  53.6692891  71.5324730  82.5175181  54.9259986
  75.0177760  78.6204154  54.0611003  75.9720813  79.3242032  54.1964298
  74.8687208  77.8543151  52.9610231  73.9892943  77.3751308  52.8302917
  75.9103050  77.5770697  52.0768000  76.2359819  78.4218266  51.4698243
  77.2048572  76.8946735  52.7447844  77.6849082  77.6202165  53.4014713
  76.8130779  75.6597449  53.5516941  76.3333482  74.9335028  52.8955441
  77.7051109  75.2157882  53.9935991  76.1205894  75.9467797  54.3430045
  78.4236694  76.6094892  51.8303427  78.7836146  77.5447593  51.4016104
  79.2189118  76.1494897  52.4169343  78.1267049  75.9334081  51.0285777
  75.3108758  76.7723365  50.9396183  74.4157560  75.9866785  51.1981294
  75.7524326  76.9216969  49.6880213  76.2148925  77.8103505  49.5594720
  75.5441823  76.0537762  48.4934425  74.5457201  75.6174277  48.5212349
  75.6878868  76.9033138  47.1665466  74.9219536  77.6781793  47.1986261
  76.6741361  77.3668914  47.1890888  75.5332906  76.0733521  45.8533872
  75.2429417  75.1623670  46.3767459  74.7649236  76.3342573  45.1256236
  76.8366705  75.8490629  45.1453192  77.2953921  74.6656853  45.0240388
  77.5974314  76.8515328  44.9780292  76.4820353  74.8259909  48.5656229
  77.6874988  75.0100846  48.4832743  75.9074457  73.6441832  48.6687318
  74.9014423  73.7015913  48.5997337  76.5184323  72.3214675  48.8442835
  77.5893988  72.3907956  49.0348713  75.8368167  71.6915545  50.0796939
  76.1646388  72.3468326  50.8866899  74.7481206  71.6384608  50.0750125
  76.3479836  70.2720079  50.4264933  77.7281135  70.1509366  50.6837856
  78.3290628  71.0567707  50.6036336  78.3299544  68.9455345  51.0270747
  79.3984384  68.8732317  51.2300896  77.5403596  67.8287497  51.1070794
  77.9369789  66.8818205  51.4733010  76.1659250  67.9217858  50.6973286
  75.5547123  67.0193731  50.6842732  75.6262222  69.1132594  50.3294255
  74.6049704  69.1552628  49.9507695  76.2684812  71.4404260  47.6038584
  75.1366699  70.9960997  47.3867952  77.1964271  71.4811808  46.6609478
  78.0208542  72.0171385  46.8915312  77.0516713  70.9807432  45.2834218
  77.6929723  71.5221582  44.5879349  77.4897670  69.4921249  45.3057545
  76.6504652  68.8417498  45.5520958  77.7994748  69.3106820  44.2765511
  78.6881658  69.1468733  46.2583439  79.8290455  69.4360969  46.0560469
  78.4249795  68.5713062  47.4369352  79.1829083  68.3415417  48.0637144
  77.4695497  68.3691541  47.6945962  75.7007627  71.2103186  44.5518659
  74.9900636  70.2647079  44.1913994  75.3326926  72.4778595  44.3543299
  76.0500794  73.1690334  44.5208657  74.0137428  72.9377727  43.9285585
  74.1874403  73.9892905  43.7000005  73.8539776  72.3866385  43.0018301
  72.7706501  72.8187663  44.7954678  71.6586106  73.0876794  44.2978416
  72.8861265  72.4848337  46.0366158  73.7855707  72.1320961  46.3310231
  71.7987961  72.5401516  47.0289290  70.8983870  72.9268302  46.5516007
  71.4896735  71.1602621  47.6097165  72.4243556  70.7155578  47.9513403
  70.8176227  71.2888301  48.4581964  70.8302860  70.2333919  46.5677848
  69.9803190  70.7612916  46.1353742  71.5631378  70.0255965  45.7881365
  70.3390894  68.8779341  47.2005740  71.2154261  68.2415910  47.3238643
  69.9191148  69.1106306  48.1791307  69.2830875  68.1397618  46.3500715
  69.1538964  67.1423349  46.7702497  68.3460562  68.6909519  46.4291981
  69.6818936  68.0252573  44.8854987  70.5499242  67.5141706  44.8119267
  68.9591144  67.5362370  44.3770211  69.8012388  68.9493937  44.4958481
  72.1143840  73.4894841  48.1826698  73.1901456  73.4947367  48.7200714
  71.1550929  74.3658543  48.5709814  70.3459537  74.5463991  47.9940961
  71.3022651  75.1161653  49.8026874  72.2619472  75.6322284  49.7746087
  70.1555931  76.1895361  50.0354607  70.3293272  76.8252334  49.1672414
  69.2065449  75.6664475  49.9180475  70.1090386  77.0526690  51.2979928
  70.3238219  76.4192533  52.1586632  71.1469809  78.2084669  51.2336884
  70.9325509  78.8426218  50.3734756  71.0874641  78.8021181  52.1459038
  72.1496293  77.7921034  51.1365393  68.7264808  77.6011437  51.6030229
  68.0305767  76.7745269  51.7462763  68.7660957  78.2034980  52.5106028
  68.3888298  78.2197118  50.7714796  71.3448565  74.1425187  50.9674699
  70.4267111  73.3777778  51.1671481  72.3615434  74.2466653  51.7963216
  73.2074240  74.6139594  51.3843986  72.4187865  73.7538327  53.1463394
  71.6008137  73.0667855  53.3631017  73.7628792  72.9810514  53.2698091
  73.8457267  72.2270961  52.4870020  74.4671454  73.7889742  53.0713907
  74.0852369  72.3434683  54.6310759  73.4330707  72.7523228  55.4028389
  73.8591423  70.8775032  54.5167366  74.5113367  70.4678308  53.7454326
  74.0810427  70.3996118  55.4709278  72.8191573  70.6894622  54.2499556
  75.5766966  72.5283205  54.8070636  75.8154988  73.5917670  54.7946336
  75.8868210  72.0979342  55.7592672  76.1036803  72.0286097  53.9942437
  72.1528960  75.0050445  54.1248267  72.6596124  76.1180064  53.9096844
  71.3724495  74.7285947  55.2140447  70.8980104  73.8421291  55.1182032
  71.1126916  75.5324995  56.4197760  71.8578533  76.3280028  56.4169808
  69.7142325  76.1690332  56.3623053  68.9569253  75.3851594  56.3736129
  69.5751749  76.8203321  57.2251917  69.6178129  76.7534902  55.4473122
  71.2232074  74.7603573  57.7446717  70.7819752  73.6230102  57.8708691
  71.7731740  75.2985096  58.8386085  72.5921607  75.8413874  58.6048481
  71.4861989  75.0487579  60.2526620  70.9428555  74.1132761  60.3858945
  72.7866900  74.9477241  60.9634068  72.5702648  74.5058851  61.9360515
  73.4008822  74.2606355  60.3813611  73.4968605  76.1888138  61.1470460
  74.3192900  76.0209652  61.6129175  70.4776560  75.9449578  60.9168885
  70.3442353  77.1024922  60.6866842  69.6894109  75.3465908  61.8859006
  70.1591811  74.5248810  62.2383328  68.4088611  75.7142451  62.4723207
  68.2687740  76.7876378  62.6000035  67.2271179  75.1302918  61.6177404
  67.3472276  74.0478307  61.5735588  65.8636151  75.4653846  62.2034288
  65.7425780  76.5477469  62.2475008  65.0825207  75.0382705  61.5744884
  65.7874384  75.0505657  63.2085266  67.3210232  75.5408782  60.1704870
  67.3689155  76.6297781  60.1806899  68.2704282  75.1392590  59.8163238
  66.1997573  75.0902752  59.2395510  65.2500342  75.4919183  59.5928338
  66.3953453  75.4550683  58.2312006  66.1515455  74.0013984  59.2284695
  68.3044548  75.0702299  63.9071342  67.7839890  74.0086807  64.1516310
  68.7203386  75.8751647  64.8626731  69.2297465  76.7223944  64.6557802
  68.6500875  75.4212826  66.2806696  69.1437175  76.1809980  66.8866903
  67.1813817  75.1833690  66.8579898  66.6767090  74.5292548  66.1469769
  67.3061720  74.6607901  67.8063772  66.2936157  76.4389699  67.0952211
  66.5307857  77.4339104  66.5284002  65.3141564  76.3625572  67.9114040
  64.7312465  77.1713663  68.0730941  65.1272254  75.4936880  68.3912205
  69.5818787  74.2333938  66.5397203  70.7962443  74.4377011  66.5986168
  68.9684019  73.0505284  66.7224324  67.9726016  72.9731214  66.8723961
  69.7994414  71.8014885  66.7995227  70.8217706  72.0559944  67.0791098
  69.2358772  70.8483080  67.8372872  69.1187070  71.4283917  68.7526414
  68.2547756  70.5448635  67.4719637  70.0415135  69.6601542  68.1135095
  69.6035670  69.1241553  68.7787221  69.9242242  71.0972306  65.4092209
  70.7951988  70.2098725  65.2667538  68.9876724  71.4133039  64.4704077
  68.2771968  72.0592627  64.7835548  68.8571042  70.8388857  63.1543926
  69.0751149  69.7728861  63.0894671  67.3840977  71.0849878  62.6404716
  67.1193236  72.1374877  62.7416584  67.3304844  70.6981545  61.2128149
  67.5947064  69.6455888  61.1108750  66.3224318  70.8578850  60.8301725
  68.0347786  71.3057071  60.6445279  66.5357838  70.3660289  63.5255115
  65.6213987  70.4819417  63.2570636  69.9475342  71.3735244  62.1880149
  70.1304893  72.5790676  62.0062099  70.4436079  70.4902689  61.3466876
  70.2703216  69.5161804  61.5497216  71.2881261  70.8357990  60.1203977
  71.2896089  71.9086118  59.9276034  72.7720250  70.3632956  60.3451859
  72.7868798  69.3579041  60.7659786  73.4799787  70.3586154  58.9888505
  73.4659331  71.3638341  58.5676155  74.5123956  70.0339178  59.1184163
  72.9666862  69.6747549  58.3128569  73.5260389  71.2343376  61.3041775
  73.0264286  71.2264341  62.2729030  74.5422622  70.8566223  61.4169642
  73.5584961  72.2542520  60.9210040  70.5295901  70.0676778  58.9289155
  70.3792474  68.8466822  58.9506372  69.9632421  70.8755715  57.9805724
  70.1252946  71.8671542  58.0835393  69.0714886  70.4060796  56.8450606
  69.1249448  69.3253974  56.7132742  67.6080988  70.7897946  57.2322030
  67.5256038  70.4696250  58.2708488  67.6084356  71.8788647  57.1871898
  66.4021046  70.2390671  56.4238280  66.4665445  70.6087370  55.4004549
  66.4493318  69.1500970  56.4198712  65.0798145  70.6892595  57.0456630
  65.1943900  71.6909427  57.4599122  64.3026192  70.6993816  56.2814874
  64.6583594  69.7550403  58.1506770  65.2719635  68.9591805  58.2516545
  63.6072098  69.8329333  58.9210751  62.6263950  70.7117587  58.7470801
  62.6715918  71.3694101  57.9818665  61.8399771  70.7182555  59.3808027
  63.4668275  69.0818283  59.9614035  64.1840882  68.4107158  60.1964460
  62.6403872  69.1687825  60.5354542  69.5141400  71.0206840  55.5389767
  70.2665833  71.9822942  55.4132596  69.1657698  70.2823905  54.5049849
  68.4913519  69.5873311  54.7916072  69.6196564  70.2772386  53.1103916
  70.2982277  71.1184302  52.9688402  70.3523711  68.9775556  52.7042081
  71.1898652  68.9815753  53.4018375  69.6564529  68.1843379  52.9773449
  70.8776111  68.7310816  51.2697607  70.0797144  68.8139114  50.5317899
  71.9191567  69.8341533  51.0236213  72.7176619  69.7516786  51.7609721
  72.3366278  69.7236108  50.0228221  71.4428991  70.8105868  51.1122594
  71.4681927  67.3273769  51.1320817  70.7002378  66.5862081  51.3534714
  71.8291650  67.1827725  50.1138038  72.2967642  67.2111094  51.8306876
  68.3816111  70.5154678  52.2133032  67.2934874  70.0462359  52.6480047
  68.4680460  71.2813430  51.0952991  69.3612503  71.6816373  50.8462007
  67.2861350  71.5945316  50.2346940  66.4433330  70.9350880  50.4418609
  66.8852437  73.0170800  50.5801216  67.7480688  73.6281900  50.3152128
  66.0346413  73.3026279  49.9612209  66.5316605  73.2404960  52.0860971
  65.1991473  72.9464101  52.5506421  64.5057515  72.5062142  51.8340325
  64.7776147  73.2056597  53.8732523  63.7776754  72.9231005  54.2024690
  65.6805707  73.7799905  54.7832773  65.1959485  74.0239507  56.0544003
  64.2780442  73.7642481  56.1621312  66.9803784  74.1164361  54.3197371
  67.6470052  74.6630348  54.9867746  67.4152376  73.7580439  53.0254846
  68.4613980  73.8855055  52.7472723  67.5948272  71.4473558  48.7469459
  68.4289093  72.2206737  48.2699055  66.8375599  70.6164357  47.9990127
  66.5117058  69.6994575  48.2693260  66.5743138  71.0723403  46.6298883
  67.5081857  71.2435742  46.0944805  65.7590039  69.9565355  45.8752664
  66.2151581  68.9925607  46.1005997  64.7362469  69.9708552  46.2519134
  65.7474520  70.1733447  44.3606174  65.4363387  71.1873830  44.1095487
  66.7957402  70.0389412  44.0939212  64.8604197  69.1343207  43.5560996
  64.9079882  69.2524227  42.3049781  64.2722143  68.2307450  44.1358705
  65.8747348  72.4176256  46.4777248  64.8408636  72.6515561  47.1071983
  66.4396359  73.3328750  45.6315338  67.4024908  73.2512640  45.3376810
  65.6572425  74.4806341  45.1465652  64.9012896  74.7219683  45.8938216
  66.5126761  75.7355476  44.8886202  66.7797435  76.1792821  45.8477208
  67.4161250  75.3972819  44.3812185  65.9411945  76.8314180  44.0562645
  66.1776285  77.1712255  42.7818518  66.8470030  76.5186869  42.2212888
  65.5008919  78.3032030  42.4572034  65.6764080  78.7943005  41.5922659
  64.6194565  78.6954081  43.4301205  63.6704613  79.7185336  43.4772725
  63.5405800  80.3549983  42.6019770  62.9320803  79.8607980  44.6752009
  62.1422627  80.6058531  44.7710189  63.2208354  79.0184387  45.7799164
  62.6411925  79.0823467  46.7008014  64.2922718  78.0498496  45.7182056
  64.6183985  77.6181038  46.6644285  64.9346555  77.7836262  44.4896230
  64.9448665  74.1255820  43.8508278  65.5359172  73.4754801  42.9965488
  63.6924247  74.6042406  43.6212687  63.3492492  75.2909166  44.2776269
  62.8058436  74.1811482  42.5282579  63.4008532  73.6524160  41.7836070
  61.7414212  73.1706100  43.1388080  61.2425127  72.7681126  42.2572262
  62.1926024  71.9640442  44.0951006  62.6912089  72.3658121  44.9771854
  61.3148767  71.3952533  44.4019779  62.8786983  71.3101449  43.5567803
  60.8811778  73.9236027  43.9836111  60.2230928  73.3416106  44.3706635
  62.0534066  75.3325903  41.8111103  62.0137723  76.4912553  42.2372778
  61.3299358  74.9350612  40.7278220  61.2978146  73.9454842  40.5283102
  60.6800252  75.8616697  39.7798062  61.2150694  76.8105009  39.8191276
  60.7685035  75.3097664  38.3576134  60.0123826  75.7496577  37.7073234
  62.1815875  75.7146805  37.8557257  62.9383035  75.2747473  38.5052942
  62.3232879  75.3534020  36.8371492  62.2762064  76.8004437  37.8720376
  60.6758625  73.8846893  38.2668395  60.7394734  73.6178490  37.3468665
  59.2336733  76.2370694  40.0718614  58.5586698  77.1238815  39.4892092
  58.7129496  75.7150901  41.1460697  59.1286487  74.8452196  41.4470995
  57.5765926  76.2420176  41.9068386  56.7491150  76.4836858  41.2397730
  57.1121160  75.1899862  42.8928423  57.7984248  75.2925699  43.7334112
  56.1193684  75.5263346  43.1918777  57.0461786  73.7331239  42.4683985
  57.9843987  73.4989368  41.9654073  56.9938334  73.1879558  43.4108161
  55.9127853  73.3361628  41.6062555  55.7369969  72.1291509  41.3457432
  55.1338842  74.1984199  41.1919225  57.8875277  77.5570304  42.6681813
  56.9356495  78.1214534  43.2280853  59.1515082  77.9698016  42.7522009
  59.8336416  77.4532542  42.2155705  59.6351527  78.9897771  43.7008868
  60.7085334  79.1354624  43.5795244  58.9136370  80.3486817  43.4329032
  57.8361202  80.1842156  43.4301197  59.1715214  81.0502533  44.2262461
  59.3644893  80.9515941  42.0208002  60.4471235  81.0779523  42.0146728
  59.0752527  80.2615989  41.2281143  58.6720495  82.3461337  41.7811492
  57.6141743  82.1454360  41.6116809  58.7900568  82.9167339  42.7023382
  59.2499334  83.1769803  40.5705456  58.7492589  84.1449618  40.5496284
  60.3173912  83.3241076  40.7348209  59.0336020  82.4625256  39.2355713
  58.0445113  82.3264814  39.0829562  59.4156305  83.0236061  38.4876791
  59.4978187  81.5657312  39.2545891  59.5630048  78.4730957  45.2065910
  59.0098859  79.1361515  46.0726756  60.1525443  77.2662141  45.3840082
  60.6434098  76.8467194  44.6073649  60.1196763  76.5394878  46.6628661
  59.9375437  77.2404202  47.4774952  59.0111091  75.4920590  46.6641607
  58.1523289  75.9540803  46.1771985  59.3715664  74.6635235  46.0544891
  58.5968704  74.9700978  48.0378534  57.9627231  74.0857342  47.9757325
  59.5402607  74.7071883  48.5163851  57.9189173  76.0029571  48.8287866
  56.7715400  76.4239655  48.4690780  58.4850201  76.3619912  49.9238419
  61.4594224  75.7744974  46.9692959  61.9863088  75.0701837  46.1517049
  61.9831210  75.9385477  48.1744068  61.7314793  76.7571847  48.7097659
  63.0381127  75.0076553  48.7381155  63.7285532  74.6679129  47.9661270
  63.8344427  75.8219810  49.7921104  63.1135797  76.0063472  50.5886434
  64.5873786  75.1150816  50.1406513  64.5380483  77.1885121  49.3881524
  63.9670840  77.6953154  48.6101737  64.5890235  78.0726707  50.6438367
  65.1602577  77.5666987  51.4221571  65.0674437  79.0216081  50.4014884
  63.5755797  78.2577905  50.9998743  65.9843947  76.7975609  48.8936221
  65.9074081  76.1250779  48.0392574  66.5240028  77.6977390  48.5993371
  66.5224080  76.2993910  49.7001377  62.5173563  73.7177987  49.2916603
  62.0469835  73.6998801  50.4454529  62.5265660  72.5729733  48.6293154
  62.7703409  72.6850208  47.6556016  62.2042574  71.2089950  49.1222681
  61.2628331  71.1936880  49.6714356  62.0661865  70.3106073  47.8886939
  61.6688511  70.8966342  47.0599622  63.0464976  69.9181617  47.6183672
  61.1187664  69.1496551  48.1917915  61.5299509  68.5539302  49.0067393
  60.1473482  69.5464693  48.4867274  60.9515582  68.2541769  46.9271761
  60.3198511  67.4017882  47.1771335  60.4770543  68.8386321  46.1389137
  62.2711106  67.7433659  46.4200403  62.4611735  67.9567467  45.4513070
  63.1185671  66.9596701  47.0735725  62.8745808  66.3405342  48.1441725
  61.9646800  66.4219847  48.5749235  63.5901770  65.7660213  48.5660214
  64.3348256  66.9120685  46.6603543  64.6153187  67.4622475  45.8611504
  65.0042082  66.3247128  47.1368402  63.3023330  70.6255640  50.1057580
  64.4775879  70.5743099  49.6902236  62.9705976  70.2032193  51.2969165
  62.0430619  70.4577049  51.6051598  63.8364717  69.4378196  52.2284848
  64.7144359  70.0019209  52.5432353  62.8939725  69.2379860  53.4735165
  61.9714925  68.7590033  53.1453299  63.5586658  68.3842405  54.5051712
  64.4810486  68.8628305  54.8342019  62.8913924  68.2578121  55.3577328
  63.7888752  67.4087278  54.0768265  62.6237285  70.4168954  54.0412442
  62.0489778  70.2831414  54.7984573  64.3597858  68.1014667  51.6548358
  63.6277894  67.2366601  51.1407232  65.6767453  68.0264426  51.6030098
  66.2199530  68.7482675  52.0546664  66.4055409  66.9383808  50.8789551
  65.7217935  66.5137585  50.1439146  67.6877546  67.3955329  50.1531452
  67.3689382  68.1392988  49.4228935  68.3064538  67.8742668  50.9121742
  68.5082070  66.2901145  49.4399432  69.4436166  66.7556401  49.1294665
  68.7179556  65.5000007  50.1609320  67.7572056  65.6506828  48.1331908
  68.3640419  65.0901289  47.2252277  66.5256004  65.8088997  48.1367924
  66.7669403  65.8513515  51.9478320  66.7338776  64.6603420  51.6714677
  67.2853619  66.2589037  53.1706350  67.0831996  67.2051624  53.4601592
  68.0312286  65.3964158  54.0889697  67.5098059  64.4535726  54.2540889
  69.3949375  65.0974741  53.4469426  69.3036481  64.8297634  52.3942809
  70.0893813  65.9312318  53.5503628  70.1842984  63.6822774  54.2587959
  71.2824727  63.6863610  53.5085327  68.3061474  66.1460019  55.4090005
  68.5894356  67.3642237  55.4256560  68.3641644  65.4011765  56.4899031
  68.3499450  64.3919637  56.4526666  68.2735133  66.0458495  57.7939050
  68.6830814  67.0546016  57.7412516  66.7965074  66.1352932  58.2376689
  66.1437010  66.6113370  57.5060096  66.5182426  65.0868163  58.3442755
  66.6065308  66.8347426  59.5946141  66.4317954  68.0586378  59.5343726
  66.4876455  66.1806634  60.7325841  66.3647388  66.6919108  61.5949180
  66.5199938  65.1711911  60.7370627  69.2012804  65.3993445  58.8886276
  69.2202087  64.1777276  58.9973661  69.9087717  66.2038633  59.5473738
  69.9679342  67.1601367  59.2277798  70.6768758  65.8181606  60.7492405
  70.5222168  64.7578206  60.9488875  72.1415681  66.0621077  60.5702123
  72.5768124  65.4537030  59.7774290  72.1836544  67.1133893  60.2853687
  73.0498274  65.9028019  61.7937578  73.4731216  66.9282768  62.6511278
  74.3852986  66.3517788  63.4598417  74.8882171  66.9774021  64.1972475
  74.5046731  65.0569934  63.1889054  75.1018218  64.3918463  63.6591104
  73.6718547  64.7625546  62.1492688  73.6147878  63.7427671  61.7686403
  70.0792421  66.6861295  61.8781750  69.7679885  67.8680860  61.6801730
  70.1636707  66.2086392  63.1069841  70.6274705  65.3192241  63.2250093
  69.4833460  66.8010962  64.2708665  69.2580302  67.8552353  64.1092413
  68.1607243  66.0380824  64.4518380  67.5515955  66.2389665  63.5705282
  68.4096857  64.9774693  64.4867382  67.3923114  66.4126700  65.6872633
  66.9780892  67.7727205  65.9026898  67.2372012  68.5505034  65.1843485
  66.2426773  68.0917550  67.0361161  65.9826369  69.1356681  67.2114050
  66.0031795  67.1172101  68.0497664  65.2900140  67.4736331  69.1232912
  65.0024352  68.3891260  69.0955245  66.3354875  65.7600536  67.8327025
  66.0519313  64.9759956  68.5348060  67.0671098  65.4292619  66.6476098
  67.3847245  64.4014092  66.4722817  70.3477861  66.8885739  65.5234941
  70.1698440  67.7375980  66.3943934  71.3768113  66.0489778  65.6775936
  71.7689622  65.6106441  64.8565087  72.0018844  65.7792590  66.9740748
  71.3052111  65.8809647  67.8061814  72.4560971  64.2966981  66.8854590
  71.6769551  63.6073872  66.5600554  73.2394336  64.3421523  66.1288760
  73.0567008  63.7748313  68.1725780  72.3556614  63.9137903  69.1956216
  74.1513204  63.0934906  68.1800399  74.5279991  62.7583552  69.0551955
  74.6269000  62.8981405  67.3106935  73.2866120  66.6743567  67.2366547
  74.4572617  66.3061378  67.0519106  73.0030756  67.8193958  67.8720589
  72.0304578  67.8764806  68.1382455  73.8534505  68.9211888  68.1791330
  74.9022509  68.6271047  68.2195230  73.6626608  69.9767062  66.9865575
  72.6370158  70.2793103  66.7754123  74.2451727  70.8496667  67.2810400
  74.2773361  69.3845227  65.6995692  75.4542333  69.0121094  65.5576314
  73.4239607  69.1595448  64.7398926  73.7444155  68.7725759  63.8637284
  72.4464207  69.3732836  64.8771228  73.4719567  69.4985170  69.5174894
  72.3672852  69.2753044  69.9616593  74.3298863  70.2293019  70.2016256
  75.2980849  69.9950834  70.0347950  74.0200600  71.1653451  71.2771202
  73.1526660  70.7877068  71.8185223  75.1932283  71.4292074  72.2874478
  76.0471305  71.8842775  71.7855884  74.6536943  72.3818764  73.3241362
  73.7999960  71.9272860  73.8267766  75.4309676  72.6014476  74.0560757
  74.3395240  73.3065764  72.8400637  75.6490459  70.0835603  72.8844857
  74.7642178  69.4896925  73.1136167  76.2531470  69.5627635  72.1415644
  76.4752392  70.2868517  74.1652804  75.8716056  70.8072133  74.9088865
  76.7800795  69.3173713  74.5593354  77.3605341  70.8802867  73.9368344
  73.4385427  72.3474247  70.5641935  72.3197713  72.7792698  70.7663828
  74.2147638  72.9484028  69.6968504  75.1657798  72.6227889  69.5986489
  73.8045978  74.1178478  68.9364885  72.8003036  73.9710440  68.5390704
  73.7979535  75.3322634  69.8218819  73.2857479  75.0504475  70.7418408
  74.8387960  75.5679311  70.0437098  73.1230638  76.5466136  69.2206610
  73.4882073  76.6179492  68.1961210  72.0560009  76.3243900  69.2108843
  73.3938869  78.1262158  70.0598527  73.2015867  77.5713526  71.7504015
  73.9481929  76.8081708  71.9700186  73.3350086  78.4149479  72.4276358
  72.2042665  77.1525117  71.8846628  74.6965399  74.3351178  67.6833971
  75.8133280  74.7746615  67.7733012  74.2061177  74.0128042  66.4686210
  73.2639412  73.6614110  66.5630964  74.8271722  73.9122431  65.2251369
  75.7837991  73.4415604  65.4519008  74.0390706  72.9923460  64.2886664
  73.0822885  73.4542916  64.0452034  74.6079005  72.8317360  63.3728404
  73.8651721  72.0352020  64.7803309  75.2007830  75.3219021  64.6404708
  74.6965518  75.7660332  63.5840388  76.1368395  76.0520551  65.2558845
  76.6434980  75.6610369  66.0372302  76.2370117  77.4901542  65.0149210
  75.2607987  77.9017311  64.7585776  76.7370479  78.1754421  66.2754714
  76.3316855  77.6452392  67.1372518  77.8082855  77.9869868  66.2045161
  76.4954084  79.6653039  66.4388090  76.8111971  80.1861116  65.5348523
  75.0250057  79.9145059  66.6752163  74.7085657  79.3943568  67.5793234
  74.8515038  80.9841997  66.7924889  74.4520145  79.5451043  65.8247318
  77.2103415  80.1944256  67.7316766  78.2825869  80.0145497  67.6539979
  77.0285210  81.2640704  67.8360926  76.8172094  79.6727021  68.6042308
  76.9191446  77.9349631  63.7116782  76.4490994  78.8234486  62.9890822
  78.0424721  77.2444530  63.4118995  78.2952479  76.4588693  63.9941898
  78.8218917  77.4989715  62.2424696  78.4035646  78.3413142  61.6915064
  80.2497581  77.8347605  62.6309825  80.6786167  76.8958626  62.9811970
  80.7495003  78.1414974  61.7121406  80.4354923  78.8786722  63.6660019
  79.6685163  80.0878562  63.6401795  79.1175755  80.3282695  62.7309132
  79.6135503  80.9569515  64.7477707  78.8185335  81.7011973  64.7941199
  80.3822751  80.6566149  65.9180109  80.3394774  81.5360690  66.9371904
  79.7771924  82.2928377  66.7562582  81.3923053  79.6285450  65.8257006
  82.1616123  79.5118865  66.5890211  81.3666600  78.7683578  64.7193239
  82.0936847  77.9600808  64.6404345  78.9535284  76.2071656  61.4000486
  79.4159545  75.1996599  61.9538929  78.6561418  76.3334866  60.0661962
  78.1420240  77.1789621  59.8638265  78.8700425  75.3731996  58.9794091
  79.2614162  74.4403540  59.3852724  77.5488769  75.0754210  58.2481147
  77.3177653  76.0282250  57.7718257  77.7372996  74.3231714  57.4821399
  76.3164013  74.6193077  59.1478155  76.0409443  75.3859009  59.8720800
  75.1637454  74.4101771  58.1638257  75.4383001  73.6433398  57.4394783
  74.2738870  74.0934402  58.7078206  74.9566534  75.3445416  57.6421205
  76.5871357  73.3626214  60.0229546  77.4168961  73.5631239  60.7007420
  75.6952197  73.1235291  60.6021108  76.8393215  72.5191387  59.3802740
  79.9858528  75.8366462  58.0386543  80.1012530  77.0224176  57.6678377
  80.7741604  74.9137920  57.5358093  80.8811930  74.0349887  58.0219659
  81.5798720  75.1412524  56.2967690  81.1292984  75.9419673  55.7103066
  83.0428167  75.5448096  56.6490745  83.3695142  74.7707904  57.3435256
  83.5799167  75.4369718  55.7067398  83.3332072  76.9154652  57.2442674
  82.7496958  77.0293637  58.1578550  84.3952578  76.9740281  57.4824290
  82.9592028  78.0602276  56.2392809  83.6708125  78.1172067  55.4155917
  81.9530023  77.9295091  55.8410692  83.0212893  79.3749951  57.0699516
  82.6596537  80.1915094  56.4449519  82.3679420  79.2636759  57.9353096
  84.4026189  79.6765548  57.5280611  85.0080978  79.7801694  56.7263385
  84.4006728  80.5341416  58.0615787  84.7377472  78.9202733  58.1075663
  81.5210814  73.8954394  55.4829332  81.2738640  72.8279921  55.9887966
  81.7934757  73.9658564  54.1521591  81.8571784  74.8817944  53.7313278
  81.8046826  72.7904472  53.2686837  82.1001161  71.8574404  53.7485969
  80.4144812  72.5939047  52.6198292  80.4539657  71.5803804  52.2206930
  79.0978708  72.7703983  53.4820612  79.0574509  73.7838932  53.8811774
  78.2249984  72.5927708  52.8538563  79.1036939  72.0561790  54.3054430
  80.2803803  73.4333130  51.4345509  79.4135040  73.2997862  51.0442993
  82.9666313  72.7344130  52.2224021  83.6189709  73.7776006  51.9458561
  83.1740930  71.5558489  51.6447619  82.6117205  70.7738706  51.9486475
  84.2241802  71.3110800  50.7211310  84.2399304  72.1252861  49.9966176
  85.5722922  71.2168151  51.3639389  85.7411225  72.0824191  52.0045054
  85.6383812  70.3063123  51.9595200  86.6136153  71.1839592  50.2828688
  86.4250038  70.2570827  49.7411803  86.3777884  72.0333186  49.6417165
  88.1475956  71.2484241  50.7059089  88.2493942  72.0309696  51.4578122
  88.4086670  70.2860782  51.1461719  89.0842369  71.5432298  49.5339730
  88.7148724  72.4176568  48.9982046  90.0813975  71.7502117  49.9224681
  89.1442043  70.4015674  48.6208739  88.2203850  70.2098776  48.2604399
  89.7667731  70.6154730  47.8548762  89.4868472  69.5913037  49.1170268
  83.8511005  70.0704830  49.9133088  83.7521470  68.9997272  50.5049735
  83.6266110  70.2070404  48.5680446  83.8149795  71.0342452  48.0200037
  83.0583018  69.0253093  47.8820183  82.8743285  69.3555719  46.8596780
  83.8593481  68.2861144  47.8858991  81.7855216  68.3825628  48.4338720
  80.8382425  69.0103643  48.8909898  81.8326802  67.0528737  48.5388101
  82.4365827  66.5815423  47.8805946  80.8632618  66.2303060  49.3263414
  79.8481527  66.6248591  49.2818380  80.8825290  64.8647728  48.6630249
  81.9340776  64.6055817  48.7861705  80.2770640  64.2510392  49.3299905
  80.4478009  64.6027869  47.1676143  80.6592240  63.4947222  46.5951827
  79.9219530  65.4952055  46.4941262  80.8919113  66.2579178  50.9092842
  80.2517886  65.4151561  51.5566957  81.7439080  67.1081529  51.5437570
  82.4780469  67.4433430  50.9364786  81.9243438  67.2417246  52.9881955
  81.1024180  66.7232312  53.4818570  83.2548723  66.6608783  53.5059024
  83.1782741  66.1466057  54.4638980  83.4797980  65.9371017  52.7225405
  84.4744865  67.5969871  53.6044600  84.7925793  68.3056106  54.8102189
  84.1393025  68.3150321  55.6827099  86.0195791  69.0157754  54.8355661
  86.1920061  69.6702218  55.6900072  86.9976911  68.9065059  53.8196827
  87.9762648  69.3846377  53.8630814  86.6482472  68.1307289  52.7126989
  87.4291155  67.9685495  51.9697031  85.3547897  67.5622685  52.5230434
  85.0878666  67.1237045  51.5615271  81.4553246  68.5775038  53.6325674
  81.3671975  69.6272235  53.0175080  81.0518842  68.4275613  54.9580888
  81.2326018  67.5235195  55.3705799  80.3898632  69.4665362  55.7958169
  80.5732024  70.4743710  55.4233185  78.8178705  69.2231122  55.9186281
  78.6578982  68.1795800  56.1898290  78.1588588  70.1428117  56.9861567
  78.3180236  71.1865763  56.7153749  77.0890765  69.9388590  57.0316516
  78.6070415  69.9483643  57.9605394  78.0338058  69.3406947  54.6803902
  77.6294500  70.3511396  54.6204046  78.6956119  69.1638218  53.8325529
  76.8963324  68.3390116  54.6506723  76.2338013  68.5155664  55.4980098
  76.3362015  68.4519619  53.7224510  77.2999635  67.3282480  54.7101604
  81.0339975  69.3919772  57.1853804  81.0179747  68.3569547  57.7826698
  81.6450221  70.5400094  57.5474303  81.7737127  71.3070871  56.9031246
  82.2225284  70.6672520  58.9356557  82.3364866  69.6953922  59.4158652
  83.6021270  71.2966692  58.7761451  84.1133460  70.6855131  58.0323423
  83.4808665  72.3095815  58.3922120  84.4431432  71.3352381  60.0801950
  83.7973188  71.4595429  60.9494246  85.1844969  69.9989590  60.1823609
  85.8309169  69.8741458  59.3136483  85.7890804  69.9866876  61.0892396
  84.4618582  69.1836718  60.2170080  85.4240049  72.4548203  60.1733842
  84.8959218  73.4067529  60.1181399  85.9595667  72.3914548  61.1206221
  86.1344209  72.3856783  59.3495957  81.3203343  71.4715370  59.8334706
  80.7427448  72.4284713  59.4146853  81.1341080  71.0257909  61.0527270
  81.6931702  70.2199370  61.2938665  80.1634955  71.5173355  62.0350311
  79.6746742  72.4258723  61.6833013  79.0569116  70.4266344  62.3198615
  79.5233725  69.5227275  62.7116084  78.0445718  70.9901642  63.3738522
  77.5773352  71.8938855  62.9825994  77.2768783  70.2433787  63.5764812
  78.5740052  71.2259534  64.2970019  78.3375759  70.0586797  61.0001641
  79.0621846  69.6615584  60.2892920  77.5746381  69.3060854  61.1992305
  77.8684790  70.9488379  60.5810372  80.8074695  71.9593691  63.3251662
  81.1676590  71.1303121  64.1062258  80.9297360  73.3199295  63.5829788
  80.6607602  73.9079645  62.8071140  81.3887908  73.9617355  64.8112361
  82.1800801  73.3832756  65.2880427  81.7445463  74.9740625  64.6195817
  80.1588923  74.0285356  65.7715414  79.3556950  74.9168843  65.6330615
  79.9227164  72.9241525  66.5080275  80.3695568  72.0824744  66.1733472
  78.9732829  72.8127707  67.6370325  77.9929861  73.2172235  67.3849704
  78.8251435  71.3101627  67.9265426  78.9155023  70.7791775  66.9789196
  79.6452165  71.0213094  68.5839193  77.4803613  70.9483078  68.5925393
  77.1287332  69.7140745  68.5640818  76.7821538  71.8160032  69.1295086
  79.3542809  73.6722312  68.8487177  80.3902799  73.3509156  69.4954406
  78.6778388  74.8238975  69.1328297  77.8169269  74.9406513  68.6177582
  79.1002017  75.8841549  69.9993272  79.9086273  76.4326293  69.5158779
  77.9367381  76.8901321  70.3282366  77.6337968  77.2480643  69.3442598
  77.1224688  76.3177966  70.7726436  78.2666358  78.0762330  71.2188084
  78.5425708  77.6704712  72.1921110  79.3707481  78.9577404  70.7135423
  79.0953227  79.3642700  69.7404168  79.5335151  79.7755655  71.4155179
  80.2866179  78.3746567  70.6171244  77.0763287  78.9880350  71.4892844
  76.2881332  78.4203675  71.9838559  77.3876400  79.8119277  72.1314584
  76.7004452  79.3850482  70.5463151  79.7283423  75.4917420  71.3322328
  80.6920176  76.1096018  71.8033086  79.1761656  74.4438526  71.9999953
  78.3585324  74.0240368  71.5812710  79.6256787  73.9428018  73.3644922
  80.5107557  74.4746934  73.7135329  78.4544314  74.2155354  74.3605952
  77.8971629  75.0857384  74.0137555  77.7977665  73.3456336  74.3733247
  78.9584608  74.4661318  75.7126683  79.8653864  73.8742102  75.8360195
  79.2054793  75.5258894  75.7758958  77.7546086  74.0346274  77.0719375
  77.8703195  72.2456733  76.9811176  78.8981735  71.9373691  77.1723340
  77.2130222  71.8001719  77.7278367  77.5701269  71.9115992  75.9879509
  80.0679580  72.4998517  73.3443642  80.0747347  71.8796061  74.3665527
  80.4078076  72.0130791  72.1643728  80.4106533  72.6337667  71.3676055
  80.7011184  70.5668936  71.9361704  81.2789799  70.1729936  72.7722434
  79.4020986  69.7624244  71.8165003  78.6070716  70.3351136  72.2940549
  79.1771111  69.6433395  70.7566421  79.5034212  68.3826737  72.4749003
  78.6371430  67.7917626  72.1774327  80.4128865  67.8959961  72.1225938
  79.5436725  68.4949853  73.9917497  80.4815434  68.9825000  74.2578825
  78.7080785  69.1261269  74.2943093  79.4516259  67.1679938  74.7425985
  78.5188529  66.8001798  74.6211622  80.2936376  66.4908372  75.4488542
  81.5031754  66.9165740  75.5738847  81.7828526  67.7743166  75.1198382
  82.1659701  66.3905647  76.1253528  79.9883656  65.3690041  76.0622622
  79.0518875  64.9972813  75.9920408  80.6917088  64.8839942  76.6009388
  81.5924833  70.2924849  70.7113755  81.6754489  69.2135723  70.1358094
  82.4251023  71.3068419  70.3774959  82.1319994  72.1947483  70.7593497
  83.5801606  71.2906569  69.4214393  83.9640291  72.2994996  69.2698452
  84.7415494  70.3910998  70.0243880  84.3506790  69.5779122  70.6359805
  85.3856073  69.9822890  69.2458232  85.4894293  71.2765358  70.8387207
  86.2185539  70.8006684  71.2431059  83.1397746  70.8946179  67.9483166
  82.1690280  71.4646118  67.4570713  83.9623999  70.1650102  67.2758040
  84.6925846  69.7039916  67.7996280  83.9361882  69.9952722  65.8522451
  83.3303367  70.8094479  65.4545501  85.3391458  70.1204670  65.2972106
  85.8839980  69.1819966  65.3997223  85.1918318  70.4633216  63.8189788
  84.6474433  71.4019748  63.7156722  86.1793432  70.5651977  63.3689310
  84.6432358  69.6682606  63.3139817  86.2280009  71.2964551  65.8776515
  86.3447961  71.1672639  66.9536489  87.2084953  71.2804254  65.4017592
  85.7431228  72.2519238  65.6774677  83.3327415  68.6257409  65.5404118
  83.6837360  67.5926038  66.1532817  82.3410066  68.5903242  64.6804057
  81.8675339  69.4597891  64.4805216  81.8621602  67.3856229  64.0391094
  82.3496392  66.4901812  64.4246577  80.3887393  67.3143477  64.3706342
  80.3801061  66.9816964  65.4085975  80.0556755  68.3509333  64.3190703
  79.4687027  66.4550702  63.5647180  79.6483887  66.6332198  62.5044933
  79.7106256  65.0136320  63.8752212  79.5306779  64.8346022  64.9352523
  79.0355949  64.3956329  63.2831812  80.7423340  64.7576658  63.6340585
  78.0170092  66.8126629  63.8922045  77.8374532  67.8606818  63.6523810
  77.3463998  66.1858999  63.3043675  77.8318521  66.6464364  64.9534230
  82.1181943  67.4154245  62.5206021  81.9964091  68.4285992  61.8440562
  82.5774285  66.2731399  61.8997488  82.7353213  65.4569903  62.4733942
  82.8123561  66.1626430  60.4416389  82.8440622  67.1613778  60.0061820
  84.1439052  65.4480445  60.1332887  84.9961793  66.0491439  60.4501604
  84.0846339  64.5500161  60.7482130  84.3167092  65.0533564  58.6766058
  83.4292324  64.4810187  58.4065775  84.4923744  66.1996613  57.7044037
  85.3799769  66.7722270  57.9735304  84.6070348  65.8059066  56.6944972
  83.6168201  66.8476914  57.7439259  85.6507291  64.2908995  58.5942698
  85.6071932  63.4111002  59.2362646  85.8293963  63.9803692  57.5648281
  86.4619223  64.9403585  58.9233101  81.6559130  65.3104362  59.9041327
  81.4003884  64.1817193  60.4265803  80.8741031  65.7843031  58.9293458
  81.0869806  66.7212227  58.6179553  79.7813696  65.0856106  58.2981356
  79.4915569  64.1448725  58.7662378  78.6722967  66.1324239  58.5634206
  79.0221545  66.6410648  59.4617430  78.6759747  66.8306452  57.7264179
  77.2444463  65.6150185  58.7917363  77.0795243  64.8251650  58.0589109
  76.9610041  65.0704502  60.2066383  77.1252762  65.8599202  60.9400213
  75.9271143  64.7302411  60.2652077  77.6300255  64.2357876  60.4160401
  76.1958648  66.6450390  58.5143115  76.2679097  66.9669569  57.4754286
  75.2094128  66.2176293  58.6941302  76.3450786  67.5021798  59.1709270
  79.9979970  64.8015550  56.7995723  80.7489381  65.4847137  56.0895578
  79.2983444  63.8044010  56.2436621  78.7366226  63.2296067  56.8553642
  79.2446027  63.5431049  54.7981894  79.6302508  64.3597035  54.1878277
  80.0544332  62.3050680  54.5132450  79.6743092  61.4762079  55.1104022
  79.9771283  62.0552788  53.4550723  81.0986054  62.4867258  54.7678113
  77.8165037  63.2488432  54.3811209  77.1038356  62.6570359  55.1261083
  77.4035648  63.5720592  53.1322746  77.9486828  64.3080401  52.7065071
  76.2185256  63.0894107  52.4249746  75.4625429  62.6879016  53.0997931
  75.6537647  64.3155022  51.7406166  75.4876439  65.0642471  52.5151385
  76.3652520  64.7007294  51.0102155  74.3382484  64.0024690  51.0490763
  73.2124362  63.5914989  51.7957379  73.2493021  63.5068929  52.8818236
  71.9901451  63.2794921  51.0867906  71.0724475  63.0859924  51.6422101
  71.9645690  63.3284746  49.6870004  70.8008876  62.8934719  49.0177886
  70.1131850  62.5943505  49.6171142  73.0898873  63.6940965  49.0326822
  73.0099152  63.6589856  47.9461869  74.2769468  64.0901309  49.6275238
  75.1030179  64.4457779  49.0117139  76.5722033  61.9140586  51.5567221
  77.4806536  62.0932159  50.7130571  75.8422286  60.8137639  51.7356537
  75.1269499  60.9296729  52.4392451  75.9971272  59.5227708  51.1294852
  76.7610883  59.5991958  50.3557787  76.4151988  58.4067888  52.1335934
  75.6061867  58.3114196  52.8578194  76.5022721  57.4821325  51.5630419
  77.7795227  58.6874808  52.8980300  78.6194298  58.5654079  52.2141038
  77.7796903  59.7025091  53.2952953  77.9138513  57.6685334  54.0739990
  78.7919129  57.9608477  54.6498975  77.0223864  57.7760675  54.6919200
  78.0567032  56.1995862  53.6301394  77.3530527  56.0097127  52.8196305
  79.0738925  56.0402804  53.2723034  77.7850336  55.2978330  54.7237855
  76.8423835  55.4449898  55.0552299  77.8853959  54.3441777  54.4066595
  78.4372172  55.4733207  55.4747581  74.6665373  59.1781070  50.4179127
  73.8120367  58.4581908  51.0055576  74.5220461  59.6373498  49.1379126
  75.5193230  60.4697180  48.3762434  76.3689352  59.8217092  48.1609671
  75.8344219  61.2711295  49.0444885  74.8617168  60.9871693  47.1346460
  75.5578407  60.9617205  46.2962768  74.5134842  62.0088678  47.2861971
  73.6607049  60.0173368  46.9076101  73.9562558  59.1761834  46.2805459
  72.7936422  60.5104541  46.4681363  73.3248637  59.5268264  48.3039894
  72.5450376  60.1478742  48.7447492  72.8272097  58.0826534  48.1979899
  71.6693135  57.8885384  48.2208327  73.7374520  57.0723838  48.1249547
  74.7130910  57.3177299  48.0353259  73.3671547  55.6665962  48.0291952
  72.6689679  55.5218509  47.2047661  74.5507142  54.8474431  47.7873311
  75.1822282  54.9243505  48.6724156  74.2119422  53.8178988  47.6716936
  75.3496456  55.2607356  46.5557390  74.6355857  55.2490292  45.7322815
  75.6648784  56.2862812  46.7480577  76.8566513  54.2263180  46.0849673
  77.3734135  55.0461691  44.5317206  77.6092940  56.0911495  44.7329051
  78.2553370  54.5455931  44.1320517  76.5637111  54.9905757  43.8041269
  72.5711483  55.1358214  49.1853063  71.3818077  54.7390771  49.0049901
  73.1385793  55.2672452  50.4076794  74.1484239  55.2675171  50.4253738
  72.4383048  55.2062194  51.6539705  71.8772220  54.2784687  51.7660594
  73.5040747  55.2565061  52.7194801  74.4602299  54.9766433  52.2772773
  73.5678888  56.2726546  53.1086717  73.1797001  54.3245650  53.8240746
  72.2009351  54.7425510  54.0594625  73.0645535  53.2889316  53.5042247
  74.0820542  54.3787293  55.0857989  73.9392139  53.4733168  55.9708722
  74.7734564  55.3431486  55.3687873  71.2935537  56.1695002  51.8311965
  70.3756096  55.8540480  52.5553141  71.2742031  57.2817234  51.0665907
  72.0651320  57.4002273  50.4497539  70.2060025  58.3263065  51.0573898
  70.3978614  59.0344681  50.2512903  69.2367137  57.8527933  50.9013006
  70.1827230  59.0869178  52.3985451  69.0802064  59.3927380  52.8674675
  71.3368333  59.4443321  52.9917014  72.2251168  59.2407218  52.5562769
  71.3399180  60.0660724  54.3545310  70.6213747  60.8856601  54.3461235
  70.9730361  59.0964376  55.5103437  71.2673423  59.6633699  56.3935599
  69.9009848  58.9024046  55.5443640  71.7027423  57.7754809  55.5199539
  71.1218897  56.7433067  55.9253964  72.9522812  57.7391326  55.2199734
  73.4442967  56.8570935  55.2252234  73.4360278  58.5927878  54.9804679
  72.7741424  60.6870152  54.5210284  73.7504231  60.2622436  53.9686072
  72.8017316  61.7610432  55.3291731  71.9567711  62.3124799  55.3745448
  73.9983323  62.2194082  56.1248227  74.7649380  62.5332310  55.4163524
  73.7224260  63.3772549  57.0936842  72.8889553  63.1572196  57.7607750
  74.6322877  63.5056476  57.6800006  73.4217093  64.7325556  56.4496085
  74.2596002  65.1278745  55.4235988  75.1689796  64.5881248  55.1594033
  73.8906553  66.2926358  54.7016149  74.4810041  66.5417097  53.8198263
  72.8239005  67.1051391  55.0776969  72.5897018  68.0205472  54.5343012
  72.0800512  66.7423520  56.1292385  71.2907888  67.4239889  56.4463130
  72.2903164  65.5020718  56.8375233  71.5989477  65.1996652  57.6240724
  74.6367690  61.0830114  56.9755800  74.0043777  60.0242465  57.2404462
  75.8703220  61.1953940  57.4260677  76.2798526  62.0942444  57.2152314
  76.6913962  60.2022671  58.1956197  76.0350585  59.5479854  58.7694101
  77.5227717  59.3496744  57.2521530  76.8319972  58.8277546  56.5899373
  78.1465593  60.0249200  56.6664632  78.4082412  58.3315840  57.9684878
  79.2769461  58.0988939  57.3526080  78.7325476  58.8428150  58.8748914
  77.6523595  56.9708038  58.3631649  76.9892012  56.8638840  59.4133307
  77.7202485  56.0503416  57.5119103  77.5701906  61.1515819  59.0594789
  78.3060941  62.0696176  58.6001787  77.6674354  60.6800997  60.3118391
  76.9723881  60.1032542  60.7637881  78.7904234  61.2469145  61.1568224
  79.0273502  62.2706043  60.8669532  78.3123177  61.2486817  62.6064336
  78.1244336  60.2091100  62.8749285  79.1358538  61.6353086  63.2067735
  77.0599609  62.0753809  62.8704783  77.0597134  63.0771949  62.4409791
  76.3071569  61.4660429  62.3703858  76.7432664  62.1591887  64.3338655
  75.9041767  62.9966045  64.7185476  77.1340573  61.3427869  65.1783947
  80.1236315  60.5547548  60.8631605  80.2956602  59.4353947  61.2960669
  81.0542745  61.2829285  60.1605542  80.8819701  62.2083673  59.7945302
  82.3624414  60.6855188  59.9380005  82.3395624  59.6134820  59.7422637
  83.0765143  61.4080770  58.7693986  83.1622193  62.4547138  59.0614712
  84.4844499  60.8560310  58.3989452  84.3994817  59.8094942  58.1062990
  84.8946749  61.4324734  57.5697707  85.1462363  60.9391080  59.2610566
  82.1777514  61.4620838  57.4911179  81.3531603  62.1509684  57.6743886
  82.7784395  61.8285054  56.6586466  81.6106329  60.0563143  57.1416274
  81.0094084  59.6894124  57.9735000  80.9898669  60.1261775  56.2483929
  82.4346884  59.3669485  56.9577602  83.2396518  60.8131391  61.2077891
  83.9310696  59.8598948  61.5096364  83.2199215  61.9658353  61.9144439
  82.6492664  62.7458772  61.6212091  84.0995578  62.1512207  63.0104760
  84.0614922  61.1900857  63.5231843  85.5542575  62.4183680  62.5711059
  85.6101431  63.3816748  62.0641376  86.2024355  62.4313777  63.4473457
  85.8793401  61.6310493  61.8909957  83.6457259  63.2745942  64.0421556
  83.0436599  64.2666997  63.6946787  84.1097355  63.2139983  65.2748941
  84.7479901  62.4594375  65.4831448  83.6498749  64.0651296  66.3841031
  83.5712774  65.0907728  66.0235789  82.2648097  63.6298800  66.9550394
  81.5320692  63.8034709  66.1669678  82.3315237  62.5612982  67.1594466
  81.8248841  64.3771553  68.2446855  81.0088187  63.7994843  68.6787757
  82.6790984  64.3636912  68.9216188  81.3841222  65.7717173  68.0362150
  81.7357863  66.3499763  68.8906434  81.8724241  66.1299587  67.1299459
  79.9549416  65.9657131  67.9010621  79.4137428  65.1352833  67.7071821
  79.3280545  67.1468710  67.9159168  79.9162668  68.2562655  68.0476370
  80.9207276  68.2828010  68.1498842  79.3795002  69.1118209  68.0501240
  77.9829369  67.1332491  67.8901862  77.4903587  66.2519931  67.8609533
  77.4718614  68.0043403  67.9002185  84.6904460  64.1710917  67.4461077
  85.0632590  63.2373387  68.1532525  85.2195851  65.3613530  67.5643780
  85.2898516  65.9975408  66.7830797  85.7997806  65.7845711  68.8794988
  86.1459247  64.8975098  69.4099755  86.9862584  66.7595029  68.7219924
  87.7361341  66.2337556  68.1309124  86.6182048  67.6181326  68.1603949
  87.6094955  67.2350945  70.0223670  87.1887294  66.8212293  71.1209641
  88.5491450  68.0572790  69.9739891  84.6491264  66.4190709  69.6857408
  83.9681041  67.2614166  69.1087908  84.3436766  65.9563913  70.8671950
  84.9153243  65.2307302  71.2755261  83.1983273  66.4664768  71.6461980
  82.3562856  66.7717486  71.0250104  82.7684488  65.2324247  72.4967160
  83.7399788  64.8129925  72.7580689  82.2344466  65.5055040  73.4068639
  81.9892384  64.1364701  71.8583557  80.5940315  64.0786769  72.0654104
  80.1277071  64.8884970  72.6265102  79.8092619  63.0214992  71.5739768
  78.7326987  62.9598607  71.7330776  80.4791559  62.0034448  70.8410598
  79.9303568  61.1262443  70.4983666  81.8956459  62.1333620  70.5493342
  82.3451188  61.4760935  69.8049738  82.6846464  63.0884798  71.2105672
  83.7707488  62.9965646  71.2048012  83.4818057  67.6393953  72.5857747
  82.5900570  68.0654712  73.2630224  84.7696603  68.0219817  72.8603328
  85.4679482  67.5331069  72.3185812  85.2055134  68.8554248  73.9268560
  85.0008250  68.4042968  74.8977758  86.7331706  69.0190612  73.7709496
  87.0577060  67.9786889  73.7509132  86.9439667  69.4834909  72.8076376
  87.5209420  69.7543484  74.8489583  87.7634619  70.9701912  74.8769842
  88.0614177  68.9904804  75.7653740  88.5987433  69.4064652  76.5125939
  87.9383537  67.9890073  75.7205668  84.4321490  70.1306807  74.1163071
  84.2950593  70.9320730  73.1794556  84.0025452  70.4612612  75.3458380
  84.0087393  69.6334838  76.5769482  85.0509633  69.4569116  76.8428270
  83.5311580  68.6848807  76.3316581  83.2296295  70.4269716  77.6856840
  83.8737071  71.0937013  78.2590379  82.6853783  69.7733683  78.3673693
  82.2795439  71.1998624  76.8083494  81.8460958  72.0563199  77.3247818
  81.4820247  70.5929317  76.3797493  83.2620994  71.7023165  75.6540775
  82.6546826  71.9613681  74.7868777  84.2195684  72.8857333  75.9890515
  84.5151593  73.1780695  77.1737264  84.7295772  73.6003223  74.9424056
  84.8025025  73.1396816  74.0465310  85.2566785  74.9701336  75.0683349
  85.5347658  75.2056846  76.0956043  86.5285971  75.0268048  74.1857606
  86.6416364  76.1106629  74.1618245  87.4246518  74.5779476  74.6143785
  86.3680914  74.5256400  72.7661227  85.3744824  74.9002602  72.1138575
  87.1233549  73.5803187  72.4035892  87.0526117  73.2128824  71.4654603
  87.7943568  73.1964468  73.0535889  84.0586690  75.9211031  74.6440386
  82.9323585  75.5903241  74.8361426  84.3662561  77.1407303  74.1462851
  85.2788912  77.5354488  74.3234681  83.3840708  77.9636678  73.5329182
  82.5130298  77.3954763  73.2065056  82.9413265  78.9598471  74.6327937
  83.8017571  79.5397120  74.9667326  82.1918156  79.6312752  74.2138453
  82.3251423  78.3421593  75.8752940  83.0274521  77.8783210  76.9118884
  84.1129613  77.9710278  76.8776112  82.1584290  77.3565415  77.8439647
  82.5187651  77.0753677  78.7446304  80.8499267  77.4791589  77.5250922
  79.6431932  77.3364486  78.1483787  79.6911479  76.9288122  79.1581467
  78.4166888  77.7090633  77.4861293  77.4571353  77.5384479  77.9742352
  78.4364144  78.2852490  76.2291763  77.5521852  78.5909109  75.6698829
  79.7263505  78.4930518  75.6217103  79.6574942  79.0395951  74.6811520
  80.9450628  78.1370114  76.2083914  83.8898082  78.5340180  72.2306712
  84.6233091  79.5451750  72.2429986  83.4065931  78.0436293  71.0868657
  82.7472518  77.2945195  71.2424388  83.7904201  78.3480338  69.7250978
  84.8712300  78.4335308  69.6126732  83.3063106  77.1745172  68.8886124
  83.3406000  76.2587680  69.4788045  82.2840966  77.3530888  68.5550097
  84.2345799  77.0288953  67.6544878  84.2985195  78.0352747  67.2407089
  85.2010461  76.7460634  68.0716822  83.7852356  75.8478756  66.3102336
  84.1467507  74.3494287  67.2599361  83.5158420  74.3206374  68.1483190
  83.9475126  73.4718942  66.6448442  85.1948558  74.3523496  67.5592160
  83.3351713  79.6816070  69.2346052  82.1280382  79.9645133  69.0685847
  84.2991587  80.4619482  68.6581602  85.2579297  80.1792480  68.8028606
  84.0429931  81.7410793  67.9629044  83.0410734  82.1040052  68.1921225
  85.0778531  82.8022406  68.4400235  84.7980478  83.7839471  68.0578449
  85.0983744  82.8293831  69.5294923  86.3324146  82.4622693  67.9634818
  86.9732945  83.1145256  68.2557734  84.0163788  81.5277744  66.4122559
  83.3521991  82.3340253  65.7753936  84.7761573  80.5409168  65.8487837
  85.3237896  79.9423533  66.4503814  84.8855339  80.3561088  64.3982122
  83.8863360  80.5151701  63.9927467  85.8455338  81.5788167  63.9114601
  86.8520141  81.4288462  64.3021086  85.8790633  81.6036307  62.8222584
  85.4488079  82.5232929  64.2838478  85.4131434  79.0166216  63.8337679
  86.1856615  78.3872297  64.5050641  85.0858807  78.5866112  62.6411128
  84.4127752  79.1369956  62.1272012  85.6020345  77.3564077  62.0190591
  86.5990519  77.0507674  62.3362963  84.6061731  76.1908677  62.3122375
  84.0761862  76.5216105  63.2054465  83.5728386  75.7404752  61.2309385
  84.1021283  75.4091349  60.3375366  82.9715888  74.9196176  61.6218248
  82.9226865  76.5779332  60.9778222  85.3746475  74.9607308  62.7616372
  85.9352112  75.1926198  63.6672297  84.6757949  74.1494140  62.9652783
  86.0653578  74.6558762  61.9754541  85.8264097  77.4008138  60.4905311
  85.1748211  78.1876756  59.7373308  86.7751409  76.5351917  60.0338897
  87.2639009  76.0240901  60.7549917  87.3049741  76.4933264  58.6781582
  86.4733110  76.4440364  57.9753024  88.1669598  77.7461093  58.3421201
  87.5979264  78.5612102  58.7892339  89.0762397  77.5789924  58.9195125
  88.5531591  78.1281464  56.8401112  89.2443177  78.9674581  56.7629325
  88.9928865  77.2511757  56.3650730  87.2343223  78.4845723  56.1360209
  86.5969536  77.5319840  55.6350981  86.8603202  79.6674630  56.1631717
  87.9646993  75.1903993  58.1617430  88.3996304  74.2965665  58.8555570
  87.9978526  75.0043728  56.8432340  87.7117859  75.7439409  56.2176910
  88.5131149  73.7457882  56.2540850  88.6862728  73.0247764  57.0529952
  87.3835507  73.2203915  55.3160035  87.0872867  74.0441379  54.6665652
  87.8200617  71.9980009  54.4414245  88.1160471  71.1736400  55.0902098
  86.9865351  71.6839897  53.8131483  88.6620326  72.2838599  53.8109732
  86.1862748  72.7052713  56.1985241  86.5148422  71.7848548  56.6812017
  85.9954258  73.4645295  56.9569457  84.9322969  72.4437369  55.4295312
  85.1222566  71.6841925  54.6711728  84.1556447  72.0920766  56.1086819
  84.6028414  73.3638674  54.9469146  89.7875789  73.9959485  55.3736293
  89.7479316  74.5528019  54.2501345  90.9903606  73.7489182  55.9288142
  91.0517883  73.4904905  56.9032582  92.2218208  73.9873713  55.2020875
  92.2561685  74.9970395  54.7928324  93.4002575  73.8217664  56.2316806
  93.3244372  72.7699513  56.5074259  94.3730326  74.0083555  55.7767157
  93.2426424  74.7199792  57.5277826  92.2850478  74.5163835  58.0070135
  94.3603407  74.3884462  58.4798984  95.3183117  74.5922359  58.0015050
  94.2662355  74.9987538  59.3781020  94.3070041  73.3339280  58.7505399
  93.1508681  76.2036700  57.1952772  92.2863294  76.3803440  56.5553877
  93.0438893  76.7769768  58.1161333  94.0566212  76.5168848  56.6760403
  92.4466611  73.1702314  53.9273156  92.9684812  73.6295784  52.8072598
  92.1015889  71.9080572  53.8769418  91.7655221  71.6986053  54.8060749
  92.0660446  70.8887588  52.9100414  91.6065289  71.2391791  51.9858390
  93.5448530  70.4672500  52.6057174  93.6720884  69.7321805  51.8109953
  93.9315635  71.4308412  52.2739844  94.3001667  70.0177757  53.8314923
  94.2931073  68.8118033  54.1088039  95.0471183  70.8356034  54.3785794
  91.3131603  69.5793644  53.3787220  90.4898197  69.6004706  54.3194120
  91.4538412  68.4616781  52.6499255  92.0916319  68.5405518  51.8707584
  90.6889962  67.2296502  52.7947336  89.6196436  67.4258034  52.8728869
  90.9491520  66.3893122  51.5047084  92.0231756  66.5750434  51.5134563
  90.7661928  65.3158244  51.5521417  90.3509363  66.9472955  50.2297505
  89.7170932  68.0122626  50.3066077  90.2185947  66.2613223  49.1918529
  90.9500111  66.4714038  54.0843315  90.0145854  65.8131245  54.5817820
  92.0449944  66.7824731  54.7783845  92.5747019  67.5652420  54.4223196
  92.5379497  66.0961400  55.9958568  91.9055429  65.2481277  56.2586036
  93.8869718  65.6005772  55.6976588  94.3492250  66.4247297  55.1543412
  94.5593224  65.2638094  56.4867292  93.6166079  64.4591117  54.7457240
  92.8327471  63.5419600  55.0388878  94.3230978  64.3317104  53.7452572
  92.6001082  67.0531837  57.2270317  92.9061613  66.5765027  58.3563876
  92.4326056  68.3903814  56.9887334  92.1217059  68.7187829  56.0856314
  92.7828022  69.3734304  57.9938558  92.8004238  68.8815138  58.9663818
  94.1770174  70.0385698  57.7446275  94.0321829  70.2865148  56.6931307
  94.5085156  70.9257064  58.2842548  95.2703743  68.9623880  57.8496390
  95.8236959  68.6340683  58.8620838  95.7937873  68.6242265  56.7268244
  96.5204427  67.9231653  56.7026385  95.4763125  69.0609269  55.8732418
  91.6749530  70.4111071  58.0541480  91.4555273  71.1282826  57.0670737
  91.1675486  70.6428287  59.2738299  91.5990731  70.1034061  60.0106537
  90.1216796  71.5847944  59.6321001  89.8774545  72.2340831  58.7913400
  88.8551702  70.7774515  60.0190579  88.8970831  70.5258441  61.0787919
  87.9444051  71.3406766  59.8156264  88.7306986  69.4539385  59.2591729
  88.5153004  69.4025428  57.8481669  88.2418168  70.3158092  57.3197247
  88.6531139  68.1822393  57.1333517  88.7138268  68.2143327  56.0455169
  88.7108725  66.9600391  57.7981531  88.7123746  66.0125444  57.2593104
  88.7687344  66.9700273  59.2138205  88.7896153  66.0154234  59.7395537
  88.8000727  68.2084926  59.9613736  88.8758629  68.1870954  61.0485249
  90.5548606  72.4361813  60.8713308  90.8788956  71.8246580  61.8613159
  90.4532063  73.7829509  60.7983999  90.0621399  74.0815504  59.9163541
  90.7498551  74.7856986  61.7878510  91.4595691  74.4578072  62.5473854
  91.4307061  75.9227225  60.9147207  92.3106221  75.3851331  60.5613871
  90.8309466  76.2378788  60.0608676  91.8702107  77.1519046  61.7096038
  90.9855204  77.6425132  62.1154697  92.8151923  76.7499621  62.8694632
  93.7003897  76.2596740  62.4643189  93.1144607  77.6414947  63.4205610
  92.2965783  76.0654999  63.5407690  92.4084615  78.2228859  60.8003546
  91.6343126  78.5238164  60.0944979  92.7131470  79.0848216  61.3939327
  93.2684445  77.8370542  60.2529406  89.5831510  75.4338560  62.5130197
  88.6306617  75.9212529  61.9151658  89.7074634  75.5337837  63.8236814
  90.4981232  75.0914607  64.2701192  88.7247899  76.2772694  64.6869634
  88.0459228  76.8438656  64.0496194  88.1543890  75.5608135  65.2780921
  89.4345377  77.2316973  65.6211296  90.6619422  77.1318893  65.8588302
  88.5815623  78.0109526  66.2690864  87.5912316  77.9707568  66.0748473
  89.0466311  78.9387258  67.2835878  89.8642571  78.4688263  67.8301968
  89.5915324  80.1998727  66.5646169  88.7822793  80.6865145  66.0202006
  89.9998970  80.8910937  67.3018768  90.3760077  79.9098052  65.8656473
  87.9701916  79.4286716  68.2983276  86.7571831  79.2606461  68.0139898
  88.3670691  79.8469739  69.5066572  89.3291902  80.1249810  69.6375553
  87.4829188  79.8497254  70.6660051  86.4482192  80.0474204  70.3859826
  87.5672289  78.4209751  71.2857837  86.8350342  78.3985979  72.0929326
  87.2606665  77.7321227  70.4986357  88.9228288  78.0042112  71.8219133
  88.9606623  76.9233504  71.9575944  89.5692461  78.2884894  70.9915942
  89.4081504  78.7050553  73.1180936  88.7442857  78.4959321  74.1744202
  90.4922571  79.3685143  73.1683630  87.7134370  80.8937894  71.7749121
  88.5286524  81.7863965  71.5914090  86.8818303  80.9579983  72.8388654
  86.2124468  80.2016801  72.8360693  86.6639125  82.0744772  73.7608224
  86.5980115  82.9968730  73.1838109  85.3483817  81.9147908  74.6039018
  84.5267509  81.5775346  73.9720156  85.5777091  81.1460675  75.3418541
  84.8966493  83.2246503  75.3630533  84.5707920  84.2118749  74.7471552
  84.8389963  83.1107758  76.6919143  84.5587097  83.9032022  77.2519141
  85.0759272  82.2327162  77.1312044  87.8921948  82.5517237  74.5866841
  87.8858376  83.6579359  75.1583931  88.9041949  81.7024624  74.6697151
  88.7608439  80.8033640  74.2324831  90.1324169  81.9097811  75.4508442
  89.9766316  82.8111484  76.0436065  90.3818003  80.7324125  76.4044552
  90.5486087  79.8241680  75.8253464  91.2600760  80.9392229  77.0159792
  89.5139971  80.5968827  77.0499384  91.3430481  82.2138522  74.5153247
  92.3995315  82.3454573  75.0868201  91.1123364  82.3900707  73.1874466
  90.2407345  82.0046012  72.8530475  92.0789455  82.9479332  72.1788786
  91.4923884  83.2232337  71.3023744  92.8914825  84.1449058  72.6110892
  93.7765475  83.8653736  73.1825968  93.1949750  84.6757048  71.7087341
  92.1387350  85.1167681  73.4424471  90.9827720  85.7479444  72.9499352
  90.6569593  85.5470466  71.9293539  90.2427642  86.6388808  73.7679998
  89.3389497  87.1042120  73.3746972  90.6602586  86.9189575  75.0564207
  90.1631259  87.6917926  75.6426672  91.7169147  86.2102409  75.6003780
  91.9226839  86.2915858  76.6676841  92.5214817  85.3912262  74.7901473
  93.4407530  84.9634472  75.1902039  93.0103806  81.8568262  71.6155066
  94.1356806  82.2072370  71.2246854  92.5941224  80.5859966  71.5377170
  91.7541123  80.3209452  72.0319136  93.3723818  79.5293588  70.8650515
  94.3990277  79.8445070  70.6785604  93.3941416  78.3345060  71.8027946
  92.3563691  78.0246070  71.9256364  93.9499609  77.5473688  71.2933046
  94.0060867  78.5476861  73.1841123  95.1977017  78.3236317  73.3705691
  93.2329284  78.9520914  74.1007691  93.5949728  79.1067870  75.0308728
  92.2575736  79.1181927  73.8978055  92.8360673  79.1961631  69.4333227
  91.6532580  79.0375973  69.2116629  93.7188427  79.1438063  68.4205777
  94.5175694  79.7524451  68.5287158  93.6344600  78.3090341  67.2060993
  92.6441857  78.3743035  66.7553268  94.6970616  78.8449676  66.1690611
  95.6503593  78.5882859  66.6310537  94.4891698  78.1497016  65.3557431
  94.7663893  80.2803873  65.6122900  94.8604831  81.0320661  66.3960158
  96.0593974  80.2562193  64.7636165  95.9658674  79.5050479  63.9793381
  96.2160754  81.2354699  64.3112659  96.9086830  80.0110845  65.4013651
  93.6314022  80.7416696  64.6606005  92.6748381  80.6830554  65.1798776
  93.8129664  81.7704652  64.3496094  93.6078105  80.0960520  63.7826937
  93.9289769  76.8491937  67.5212099  95.0510107  76.6123685  68.0244464
  93.1967783  75.9071219  66.8959260  92.3682575  76.3443461  66.5184506
  93.3181998  74.4554715  66.7998531  94.3680756  74.1655353  66.8422441
  92.5762912  73.7853802  67.9666090  92.6061374  72.6980724  67.8961100
  93.0419945  74.1013513  68.9000878  91.1144879  74.1739077  68.0581700
  90.2301818  73.2590070  67.3714528  90.6821197  72.3795389  66.9127722
  88.8202941  73.4678809  67.2788608  88.1664793  72.8173314  66.6979887
  88.2825642  74.5641054  67.9751986  87.2050353  74.7271936  67.9543759
  89.1298674  75.4617842  68.7060201  88.6818136  76.3037906  69.2336310
  90.5408254  75.2637940  68.7478244  91.1713433  75.9522793  69.3104388
  92.9338573  73.8728351  65.5070122  91.9729438  74.2176293  64.8574715
  93.6271061  72.7553711  65.1192579  94.2887514  72.3459079  65.7632025
  93.3802903  72.0766504  63.8652143  92.4654054  72.4192997  63.3818134
  94.5604743  72.2177094  62.8553708  95.4130587  71.6910920  63.2841751
  94.2657318  71.6609410  61.4656450  93.4134947  72.1874207  61.0359800
  95.1374718  71.7988900  60.8260044  94.0353754  70.5982120  61.5407752
  95.1801001  73.5371753  62.5728964  95.5885047  73.9521118  63.4943818
  95.9811670  73.4143946  61.8439818  94.4261358  74.2150086  62.1726706
  93.3006366  70.6040143  64.1997843  94.2162885  70.0636695  64.7837631
  92.1862609  70.0008040  63.8080418  91.5273597  70.5945926  63.3249645
  91.8050327  68.6531384  64.0869960  92.5755287  68.1795855  64.6954224
  90.4369496  68.5888840  64.8671550  90.1868075  67.5765283  65.1844309
  90.4192465  69.2543886  65.7302252  89.0727730  69.1308642  63.7819887
  88.1071089  68.9716898  64.6825744  91.7952783  67.9234141  62.7301639
  91.9245185  68.5357470  61.6569089  91.8642288  66.5675843  62.7564969
  91.8621256  66.0427205  63.6194064  92.0310077  65.8418998  61.5096497
  91.6778682  66.4245266  60.6588044  93.5573640  65.5779052  61.3335695
  93.9795654  66.5406180  61.0454216  93.9142899  65.3080811  62.3275005
  93.9818041  64.5346353  60.3522243  93.9354575  63.6772482  61.0236706
  93.2276026  64.4262437  59.5727799  95.3328119  64.5660902  59.7093374
  96.1942843  63.7294857  59.9175492  95.6100578  65.6107616  59.0540533
  96.5066655  65.6930683  58.5964271  94.9336498  66.3581746  58.9912244
  91.1902833  64.5480024  61.5082303  91.1296546  63.9077250  62.5533150
  90.6385141  64.1173581  60.3854707  90.6008415  64.7129911  59.5706692
  89.9927634  62.8407988  60.3236305  89.4743872  62.6488496  61.2630670
  88.9689060  62.7954976  59.1800730  88.5074505  61.8082170  59.2009287
  88.2148552  63.5530184  59.3937774  89.5616436  63.0463959  57.8093902
  90.0123627  64.0388303  57.8145981  90.3345527  62.2978076  57.6352376
  88.5367947  62.9691527  56.7182131  87.8660819  62.1155523  56.8162418
  87.9498303  63.8815190  56.6125728  89.4181708  62.7849153  55.4831541
  90.2497600  63.4823324  55.5839972  89.7956801  61.7629184  55.5164421
  88.7420665  63.0136937  54.2048034  88.3925579  63.9607780  54.1735798
  89.3955414  62.8708488  53.4480565  87.9717253  62.3672657  54.1109721
  91.1962938  61.8437788  60.2047198  92.0799701  62.0823491  59.4546622
  91.1446861  60.7795081  60.9444565  90.3500999  60.6202156  61.5472484
  92.2660199  59.8692143  61.0326020  92.7613720  59.7745228  60.0662900
  93.2470501  60.4099220  62.0209847  93.2514400  61.4359382  61.6530571
  92.8639921  60.3920046  63.0413011  94.6652436  59.8586347  62.0022345
  95.0841811  59.2157674  61.0041128  95.3038430  59.8963227  63.0804976
  91.6967775  58.4437980  61.3457687  91.3390058  58.2204932  62.4983238
  91.6908884  57.5710163  60.3067127  91.8235622  57.9653922  59.3864059
  91.1546608  56.2029446  60.4095424  90.7361633  56.0162178  61.3985278
  90.0520589  56.0670138  59.3850753  89.2529025  56.7647426  59.6353206
  90.4541708  56.3132527  58.4023381  89.5349503  54.7398901  59.3672289
  88.8374209  54.6770687  58.7106424  92.2333287  55.1332520  60.5640325
  92.0413067  53.9451088  60.3202366  93.4475916  55.5426483  60.8928168
  93.4858304  56.5446977  61.0133749  94.6528973  54.7987544  61.0384152
  94.8786852  54.1957645  60.1589141  95.7648560  55.8247720  61.2241262
  95.5575314  56.4303429  62.1063962  96.7170310  55.3101050  61.3528929
  95.8162505  56.4685738  60.3460731  94.5419751  53.8156555  62.2157762
  94.9237368  52.6165922  62.0491290  93.9680075  54.2219305  63.3369215
  93.8735142  55.2275001  63.3368528  93.6540266  53.4935514  64.5720320
  94.6294830  53.2295492  64.9805500  92.9763932  54.5917788  65.5296742
  91.9948439  54.8595667  65.1385851  92.8673545  54.1814861  66.5336019
  93.6066925  55.4802634  65.5673211  92.9038694  52.1612625  64.4534602
  92.3298923  51.7877450  63.4360208  92.9409406  51.4563972  65.6072837
  93.4284353  51.8380435  66.4052777  92.3347961  50.0595790  65.7290413
  91.9620286  49.7487463  64.7530666  93.3763902  49.0270075  66.2110380
  92.9089985  48.0461448  66.2979493  94.4824602  48.9612879  65.2271883
  94.9506693  49.9417422  65.1400731  95.2228653  48.2339441  65.5601604
  94.0886298  48.6597666  64.2565787  93.8795952  49.4354833  67.4668956
  94.5285786  48.7983066  67.7741849  91.0810224  49.7969663  66.6315617
  90.6297391  48.7094181  66.9357397  90.4330744  50.8635288  66.9832344
  90.9395162  51.7222624  66.8213928  89.0836305  50.9444297  67.6518069
  88.5450782  49.9968049  67.6435646  89.2854754  51.3687275  69.0764981
  88.2806728  51.4980877  69.4786645  90.0730087  50.4607601  69.9791322
  91.0781434  50.3312866  69.5778337  90.1336547  50.9006277  70.9745907
  89.5791283  49.4910065  70.0404555  89.9367345  52.6728921  69.1112715
  90.0648620  52.9423429  70.0237297  88.1961682  51.9246472  66.8241002
  88.6403486  53.0281333  66.4478353  86.9339690  51.6084680  66.5994007
  86.6553253  50.6590422  66.8020030  85.9368801  52.5178130  65.9884060
  86.2085563  52.7538321  64.9595298  84.5780444  51.8184283  65.9865337
  84.4218483  51.7460630  67.0628539  83.7950328  52.4363460  65.5470220
  84.5283307  50.3765847  65.3505001  84.3193362  50.3627927  64.1381268
  84.5275361  49.3328091  66.0322198  85.8628713  53.8829055  66.6699478
  85.8443398  54.9066032  65.9717240  85.8500060  53.8946147  67.9680878
  85.6627156  52.9692429  68.3268477  85.9054042  55.0091580  68.9168708
  85.0266280  55.6454771  68.8122295  85.9360718  54.4480898  70.3398177
  84.9531460  54.0050796  70.5001242  86.6907816  53.6617334  70.3272933
  86.2592032  55.4833577  71.5319018  86.2481892  54.9992416  72.5084319
  87.2831388  55.7511357  71.2712295  85.4021887  56.7416515  71.5797021
  85.8006424  57.6867004  72.3638082  84.4532402  56.8923750  70.7739744
  87.0209477  55.9737371  68.5807863  86.7725418  57.1972531  68.4256210
  88.2822928  55.5380850  68.5918204  88.4639448  54.5892480  68.8864562
  89.3906166  56.3556287  68.2251181  89.3624667  57.2751758  68.8097033
  90.7746646  55.6327308  68.4856615  90.7544129  55.2002610  69.4859909
  90.8921221  54.8379055  67.7490772  91.9635467  56.6194545  68.3740700
  92.2793025  56.5169513  67.3358541  91.5790890  57.6260312  68.5386749
  93.1295495  56.3791605  69.2744156  93.6140750  57.3514317  69.9200709
  93.5499118  55.2290721  69.2529871  89.3589204  56.7466960  66.7827899
  89.5830393  57.9449857  66.4691444  89.0472022  55.7598226  65.8796517
  88.8583206  54.8109512  66.1695934  88.9688461  56.0837762  64.4262504
  89.9510749  56.3649678  64.0464385  88.4728910  54.8299342  63.6446421
  87.7502799  54.3707015  64.3192070  87.9509175  55.2483069  62.7840562
  89.5091234  53.7318178  63.1523081  90.4053867  54.2123647  62.7600230
  89.7813538  53.0766257  63.9797838  88.8467957  52.9073734  62.0458061
  88.3215627  53.5797457  61.3674664  89.6170163  52.3663305  61.4961405
  87.8812347  51.9339800  62.5875617  86.8942306  52.0680922  62.4204203
  88.2817071  50.8048552  63.2115810  89.4649143  50.3730534  63.4349748
  90.2620992  50.9095327  63.1238699  89.5962892  49.4977035  63.9213931
  87.3114989  50.0981094  63.7492830  86.3564060  50.4178445  63.6740021
  87.5260693  49.2389445  64.2349720  87.9841400  57.2311364  64.1783100
  88.3083297  58.0081803  63.2910307  86.9325360  57.4041694  64.9716464
  86.6568086  56.5227838  65.3805880  86.0071292  58.4719826  64.9944344
  86.0623200  59.0428600  64.0675299  84.5848162  57.9069334  65.1394110
  83.9277966  58.6124585  64.6308258  84.5823664  56.9577908  64.6034798
  84.0850176  57.6855124  66.5737760  83.1433880  57.1448301  66.6691550
  84.8924835  57.0844419  66.9918852  83.9830130  58.9919661  67.3710707
  83.1933177  59.8512105  67.1145838  84.6708741  59.0650046  68.4609796
  84.6366261  59.9049568  69.0208090  85.2400529  58.2818525  68.7487462
  86.2635887  59.8198287  65.7254559  85.5552557  60.7739013  65.4730675
  87.2865956  59.9958674  66.5526972  87.6464067  59.1835053  67.0330130
  87.7969561  61.2917407  66.9249330  87.0349183  61.9568318  67.3311983
  88.7931848  60.9622322  68.0278535  88.7075661  60.1047342  68.6952858
  89.6893175  60.8578453  67.4161757  88.9972668  62.1155022  68.8635111
  87.9966530  62.9261170  69.3651790  88.6117833  63.8630114  70.0885251
  88.0478883  64.5779714  70.6876525  89.9530857  63.7115602  69.9058850
  90.6659251  64.2575153  70.3683705  90.1838730  62.7477674  69.0368651
  91.1846676  62.6116138  68.6270192  88.3322053  62.1826397  65.7639075
  88.8321291  61.6353669  64.7442469  88.2891997  63.5004801  65.9572986
  87.7389531  63.8828206  66.7130392  89.0160278  64.4007436  65.1297380
  89.2478194  63.9504874  64.1645223  88.1133698  65.6560673  64.8918954
  87.6994768  66.0593888  65.8160835  88.8251642  66.3670757  64.4724722
  86.9843148  65.4156323  63.8909045  86.4120900  64.5359704  64.1856154
  86.0687073  66.6348333  63.8736463  86.6401599  67.5148684  63.5785548
  85.2595503  66.4721452  63.1616784  85.6509710  66.7902566  64.8683525
  87.5029932  65.3596833  62.4612729  88.2235987  64.5472949  62.3671871
  86.6707776  65.1873338  61.7787671  87.9866289  66.3042912  62.2124530
  90.2530637  64.7157171  65.9606844  90.2375158  65.5660738  66.8801052
  91.4106472  64.1544523  65.6157044  91.4100959  63.6466638  64.7426352
  92.6924224  64.2281845  66.3959947  92.4576231  64.0434558  67.4442522
  93.7824667  63.2029393  65.9396477  94.0527458  63.4399917  64.9106410
  94.6528011  63.3337223  66.5826982  93.3118833  61.7782227  66.0179784
  92.3125045  61.9109683  65.6035854  93.8773884  61.0912241  65.3884237
  93.1859418  61.1746511  67.4015419  93.3792798  61.7727546  68.4713356
  93.0417360  59.8967084  67.5615797  92.9594595  59.5135393  68.4924468
  93.0123053  59.2899536  66.7546821  93.3812049  65.6276625  66.2732996
  93.5339544  66.1549484  65.1537054  93.7703132  66.3572397  67.3407193
  93.2110783  66.2808159  68.1782843  94.7061439  67.4832255  67.2288494
  94.2910564  68.2046408  66.5250303  94.9638039  68.1820431  68.5389957
  95.4791043  69.1230751  68.3465808  94.0115672  68.3835546  69.0296467
  95.8400620  67.2917719  69.4577470  96.0047329  66.2704805  69.1143111
  96.7822219  67.8393192  69.4327309  95.2961773  67.2671175  70.9072212
  94.1498711  66.9599923  71.1820033  96.1124298  67.3994359  71.8239899
  95.9476995  67.2456523  66.3582475  96.6294729  66.2440020  66.5824944
  96.2161906  68.1922793  65.4210758  95.4010071  68.7115646  65.1279578
  97.4284546  68.3190517  64.6395319  98.3585201  67.9390612  65.0622430
  97.2540857  67.7333747  63.2333296  98.2309935  67.6891124  62.7518825
  96.6163900  66.2548537  63.2903868  95.6391962  66.2983838  63.7713218
  96.5054337  65.8671308  62.2777368  97.2725136  65.5973750  63.8607597
  96.6058286  68.6376404  62.2748703  97.2019622  69.5440584  62.1693562
  96.5228996  68.1432132  61.3070045  95.6107765  68.8977896  62.6358337
  98.1828421  69.6313695  64.6369953  99.4290749  69.5423141  64.4251229
  97.4940733  70.7498033  64.7962568  96.4887697  70.8262209  64.7360544
  98.2663452  71.9604686  65.0812458  99.2582568  71.6760275  65.4323920
  98.3594264  72.5471735  64.1673461  97.5767060  72.8227310  66.1650204
  96.3676050  73.0860398  66.0664689  98.2712889  73.2635767  67.2536156
  99.2718588  73.1261660  67.2624225  97.6514151  73.9932983  68.3872473
  96.6114905  74.2418372  68.1753878  97.6949793  73.0734890  69.6070625
  98.7158844  72.8861999  69.9398912  97.1770238  73.6807939  70.3493581
  96.9605357  71.7389091  69.4367042  97.4249305  71.1587714  68.6392842
  97.0485114  70.9649160  70.7438935  96.5838777  71.5442586  71.5417510
  96.5299300  70.0120303  70.6381435  98.0948346  70.7832539  70.9894683
  95.4614934  71.9548829  69.2559189  95.2859842  72.5641747  68.3693190
  94.9666794  70.9909176  69.1374648  95.0590375  72.4641172  70.1315951
  98.4684838  75.2343832  68.7275255  99.6977756  75.1417457  68.7711255
  97.8589242  76.3547906  69.0659294  96.8668632  76.2864856  69.2427028
  98.4626882  77.6309276  69.1204936  99.3404436  77.5821710  69.7649060
  98.9052516  78.1256076  67.7149505  99.4949024  77.3584443  67.2130824
  97.9856006  78.2996793  67.1563442  99.6943123  79.3863820  67.6401156
 101.0372741  79.2606347  67.7545455 101.4036956  78.2517867  67.9444423
 101.9280828  80.3094499  67.6461001 103.0025256  80.1837630  67.7798018
 101.4007941  81.5770513  67.3511246 102.0391198  82.4335185  67.1340896
  99.9865104  81.7237731  67.3411086  99.5422977  82.7169614  67.2751379
  99.1620777  80.5894375  67.4161850  98.0839290  80.6900714  67.2914132
  97.5882083  78.6937065  69.7642124  96.4765420  79.0855980  69.3699940
  98.1406723  79.2789176  70.8096700  99.0068514  78.9069282  71.1722399
  97.4863530  80.3710264  71.5490188  96.4020382  80.3051301  71.4594731
  97.8686782  80.2443002  73.0472313  98.1717270  79.2948380  73.4885727
  98.7500244  80.8621273  72.8751307  97.0326629  80.9616374  74.0918436
  97.2859000  81.0932655  75.4818745  96.1678163  81.5503777  76.0137047
  96.1965690  81.8559074  77.0596129  95.1378846  81.5513636  75.1007000
  94.1572812  81.7462093  75.2440600  95.6840040  81.2368898  73.9452616
  95.0754094  81.2210582  73.0411248  97.7826972  81.7818603  70.9824494
  98.8028612  82.4748101  71.2581576  96.8692802  82.2178464  70.0796458
  96.1128436  81.5670675  69.9234733  96.9163836  83.4020751  69.2874705
  97.8357381  83.4916798  68.7088018  95.7705401  83.2433066  68.3417854
  96.0542505  82.3151929  67.8455873  94.8237820  83.1013695  68.8629408
  95.6156577  84.3624771  67.2896020  95.4483435  85.2937933  67.8306722
  96.8566381  84.5226799  66.3459047  97.0243105  83.5918478  65.8041147
  96.6716001  85.3279763  65.6350183  97.7383185  84.7597926  66.9413186
  94.3108551  84.1694686  66.5325691  93.4753293  84.2099632  67.2313940
  94.2010119  84.9593867  65.7895582  94.3197108  83.2005253  66.0334005
  96.8902394  84.6707306  70.1406802  97.4411238  85.7033375  69.7487180
  96.1600892  84.6653190  71.2686223  95.6788251  83.8314041  71.5736963
  96.0417098  85.8864221  72.0966438  95.5651706  85.6284908  73.0424138
  97.0389102  86.2823023  72.2889187  95.1990754  86.9694312  71.3882910
  95.3892653  88.1858246  71.5379404  94.1994926  86.5245141  70.6075114
  94.2063957  85.5440244  70.3652477  93.1763840  87.3603886  70.0385056
  92.8391556  88.1164337  70.7475699  93.7903222  88.0629221  68.8323532
  94.6159565  88.6436614  69.2436549  94.1861486  87.2554953  68.2163309
  92.9009617  88.9756361  67.9711401  93.5435056  89.5060207  67.2683383
  92.1494560  88.4102402  67.4200814  92.2079087  89.9844930  68.8893598
  92.8273833  90.6049698  69.7912698  90.9665029  90.1336971  68.7309623
  91.9430170  86.5149806  69.6932635  91.9681379  85.3182589  69.3560795
  90.7937409  87.1472787  69.7005836  90.8411560  88.1365682  69.8984659
  89.4680695  86.5342088  69.5229390  89.4924808  85.5040744  69.8783634
  88.3627410  87.3239817  70.3362388  88.6531138  87.5776110  71.3557754
  88.2457297  88.2381515  69.7542577  87.0169587  86.6983080  70.4205134
  86.0013216  87.0175011  69.3994032  86.1749646  87.7006062  68.5679494
  84.7464579  86.3821934  69.5420471  84.0263195  86.6180996  68.7585615
  84.4046857  85.5417171  70.5427160  83.4067181  85.1062827  70.5932877
  85.3556674  85.2316526  71.5257297  85.0759583  84.6582919  72.4095399
  86.7021409  85.6753823  71.3595165  87.4999386  85.2304595  71.9542118
  89.0808091  86.4460914  68.0329653  88.3848547  87.3568634  67.5019269
  89.5425094  85.3754374  67.4135147  90.2149932  84.7702860  67.8625767
  89.1280763  85.0582215  65.9930358  89.6550311  85.7409887  65.3265173
  89.5214182  83.6427202  65.6432099  89.0211352  82.9766620  66.3461911
  89.1301422  83.2390423  64.1658622  89.6304450  83.9044129  63.4622429
  89.4390593  82.2111956  63.9755941  88.0507247  83.3227603  64.0395662
  91.0357721  83.4908614  65.7203717  91.3731512  83.7178616  66.7316818
  91.3122084  82.4674381  65.4668219  91.5066689  84.1785136  65.0178822
  87.6042903  85.2556359  65.7683724  86.8691877  84.6695001  66.5561795
  87.1227865  85.8779619  64.6960653  87.8101701  86.1618229  64.0126723
  85.7048580  86.1168518  64.3979924  85.0792520  85.7613830  65.2167466
  85.4709013  87.6260674  64.2203793  86.4068500  88.1344907  64.4519066
  85.2423023  87.7510407  63.1619728  84.3667993  88.2574428  65.0294726
  83.5796690  87.6561884  65.7354840  84.2971855  89.5890893  64.9709880
  83.5809355  90.0775178  65.4891803  84.9610789  90.1022180  64.4088090
  85.2490725  85.5075433  63.1063773  84.0433960  85.4219984  62.8618037
  86.2446666  85.1677003  62.2594562  87.2085454  85.2785555  62.5400770
  85.9582214  84.9130059  60.8474722  85.3413310  84.0247391  60.7113564
  85.3656444  86.0606863  59.9986029  84.3852765  86.3432828  60.3821614
  86.3071832  87.2524555  60.0869203  87.2876976  86.9707431  59.7030838
  85.9084591  88.0758575  59.4943592  86.4009228  87.5658277  61.1266859
  84.9512091  85.8069288  58.5670319  84.1800870  85.0369473  58.5425121
  84.5592856  86.7268594  58.1331848  85.8150249  85.4737579  57.9917752
  87.2464427  84.1884112  60.2339273  88.3749143  84.7010046  60.5017590
  87.0733318  83.2954168  59.2805819  86.1436747  82.9680497  59.0599740
  88.2351271  82.7829463  58.4447471  89.1777925  83.2563550  58.7192744
  88.3323668  81.3184421  58.7374531  87.2983329  80.9745404  58.7620449
  88.8794386  80.7686983  57.9715586  88.9419055  80.9402866  60.0551044
  90.1926472  81.4617032  60.3161408  90.5907946  82.1845571  59.6040588
  90.9569245  81.0927299  61.4574808  91.9563314  81.5064635  61.5920586
  90.4384561  80.2126052  62.3959769  90.9747663  79.9210957  63.2990237
  89.1285191  79.6784362  62.1331262  88.6896940  78.9818764  62.8475051
  88.4148304  80.0420587  60.9750480  87.4290367  79.6169345  60.7864213
  87.8358665  83.0051697  56.9524068  86.6551976  82.8683713  56.6291713
  88.8056511  83.0629011  56.0485517  89.7389354  82.8502106  56.3707975
  88.6392771  83.5117334  54.6991702  87.7416246  83.0690593  54.2674772
  88.4990622  85.0307593  54.6642113  87.5927084  85.3042861  55.2044013
  89.3644319  85.4668798  55.1632446  88.3902661  85.8201886  53.0994152
  88.2877198  87.0580084  53.5750039  89.7708989  82.9765736  53.8944604
  90.8905148  83.4227803  54.0861319  89.5638145  81.9591208  53.0514777
  88.6870568  81.4603903  53.1030830  90.5298253  81.5492963  52.0511278
  91.4978476  81.4521832  52.5426571  90.1965513  80.2154773  51.3505164
  89.1854434  80.0897351  50.9632840  90.9020351  80.2448772  50.5201380
  90.5024270  79.0140730  52.1147682  91.5021677  78.0622264  51.7882397
  91.2901669  77.0733820  52.6347002  91.9421376  76.2044932  52.5448923
  90.2815284  77.3297038  53.4729582  89.9779420  76.7375548  54.2327573
  89.7151971  78.5345344  53.1391947  88.8325196  78.8880976  53.6720875
  90.6273216  82.6080619  50.9023202  89.5987191  82.9595422  50.2955521
  91.8983078  83.0172413  50.7168736  92.6870851  82.5719547  51.1636952
  92.1496215  84.1380455  49.8445266  91.9651494  83.8023397  48.8240508
  91.4342305  84.9181761  50.1047409  93.5416842  84.7020055  49.9302506
  94.1296963  84.5873653  51.0036104  94.0653889  85.2185036  48.8248642
  93.5662133  85.0721075  47.9591326  95.4345504  85.7444741  48.7585247
  95.8476668  85.8332487  49.7632899  96.3302880  84.7958302  47.9401567
  96.3547499  83.8054667  48.3947786  95.9673367  84.7158078  46.9154798
  97.6505658  85.3521133  47.9367181  98.2364515  84.7825622  47.4327843
  95.5106693  87.2460079  48.3874248  94.7473876  87.7097320  47.5237362
  96.4628446  88.0157038  49.0169289  96.9220106  87.5953108  49.8122501
  96.8117396  89.3862391  48.6620963  95.9595933  89.9119143  48.2312698
  97.2336293  90.1102552  49.9601336  98.0941782  89.5201373  50.2752774
  97.5377279  91.1470452  49.8162912  96.1650787  90.0433114  51.0182981
  96.0007998  88.9920320  51.2547827  96.5288744  90.7932968  52.2814543
  96.6928642  91.8448135  52.0458302  95.7168893  90.7055907  53.0033190
  97.4392608  90.3704175  52.7062721  94.7049581  90.4214887  50.6922816
  94.3266086  89.7678409  49.9063454  94.0913171  90.3072655  51.5858693
  94.6641173  91.4568673  50.3540181  97.9102010  89.5429619  47.6141338
  97.9166224  90.5746547  46.9770609  98.6818342  88.4828055  47.4364811
  98.5086780  87.7205167  48.0760373  99.8231515  88.3537162  46.4656667
 100.3772323  89.2921931  46.4468314 100.8260551  87.1785975  46.8479771
 100.2542217  86.2611494  46.9872423 101.8828963  86.9648779  45.7299128
 102.4554754  87.8818216  45.5903832 102.5561761  86.1565950  46.0153484
 101.3797240  86.7060284  44.7982927 101.6034311  87.4226012  48.1395590
 100.9051552  87.5324021  48.9692918 102.2647893  86.5776571  48.3313257
 102.1960058  88.3321586  48.0412665  99.1817392  88.1912687  45.1054884
  98.2314424  87.3661670  44.9601161  99.6883768  88.8729714  44.0417216
 100.3830000  89.5782068  44.2423230  99.3313970  88.6165667  42.6143775
  98.2940002  88.8531559  42.3778765 100.2716357  89.6210758  41.8285388
  99.9213797  90.6217221  42.0817719 101.2733002  89.4742387  42.2325278
 100.3063872  89.4686899  40.3570176 100.9153802  90.3098289  40.0257872
 100.8578754  88.5404359  40.2076613  98.7657333  89.4176178  39.3730282
  98.5197192  91.2243918  39.5250733  99.3722147  91.7456036  39.0895408
  97.6101407  91.5133363  38.9985006  98.4300424  91.4920656  40.5778839
  99.6236453  87.1992809  42.1185005 100.6244434  86.5467669  42.4677834
  98.7588584  86.6610731  41.2365334  97.9771064  87.2148439  40.9166880
  98.7854538  85.2233590  40.8949329  99.2323569  84.6549413  41.7105788
  97.3733395  84.7144172  40.6655394  97.4438334  83.6298189  40.7478588
  96.7902127  85.1044545  41.4997660  96.6592180  85.0971413  39.2941705
  95.5921074  85.1903497  39.4958832  97.0331516  86.0331749  38.8793007
  96.8685465  83.9763312  38.2513314  97.7843955  83.2151931  38.2422577
  95.9831758  83.9475838  37.3128895  96.0427193  83.2468774  36.5879298
  95.2348924  84.6259256  37.3078265  99.7480480  84.8843842  39.8200267
  99.7556357  85.5907456  38.8256722 100.6007831  83.9087609  40.0999214
 100.4980177  83.3610203  40.9422509 101.8272239  83.7499780  39.3130670
 101.7041037  84.2341911  38.3443161 103.0111499  84.3761560  40.0201097
 102.6678242  85.2786051  40.5258885 103.3535086  83.6532100  40.7605418
 104.1914905  84.7427501  39.1103457 104.1465863  84.9645523  37.9019445
 105.2732725  84.8301171  39.6871297 106.1036116  85.0675142  39.1634129
 105.3265328  84.6640824  40.6819647 102.0559253  82.3001405  38.8545554
 101.9122533  81.3193846  39.5528142 102.4602760  82.1058377  37.5627296
 102.3442061  82.9009710  36.9508552 102.9055051  80.8392703  36.9782307
 102.2870713  80.0573281  37.4189179 102.8270461  80.7183320  35.4044626
 101.9242016  81.1066590  34.9331099 103.6916644  81.2790327  35.0492868
 102.9993947  79.2004322  35.0345732 102.7825173  78.6013334  35.9189632
 102.0544652  78.7914355  33.8953696 102.2710639  79.3898248  33.0104323
 102.1988968  77.7361102  33.6640071 101.0217336  78.9576386  34.2018699
 104.3869079  78.9447278  34.4055031 105.1653659  79.2241703  35.1154428
 104.4846736  77.8878886  34.1572411 104.4911172  79.5414414  33.4993175
 104.3413738  80.4038121  37.4189326 104.5616362  79.2115269  37.7717987
 105.2659300  81.3331200  37.5344473 105.0494240  82.2917770  37.3016355
 106.5989787  81.0244315  37.9893787 107.0205267  80.2761963  37.3181555
 107.1940497  81.9361010  37.9360058 106.6381539  80.4909346  39.4116597
 105.8019261  80.8183255  40.2442865 107.6107389  79.6545164  39.7016026
 108.1646243  79.3925295  38.8986872 107.9472104  79.0537753  41.0130953
 107.0811335  78.5460208  41.4375894 109.0516348  78.0401860  40.8131139
 109.7700325  78.5542768  40.1745886 109.4771007  77.9127178  41.8085187
 108.7216035  76.6323572  40.2011650 109.6049516  75.9937847  40.2058795
 107.9575008  76.1994269  40.8467791 108.1741335  76.7443428  38.7579426
 108.8670527  77.3787642  37.9482480 107.1158186  76.1677965  38.4309242
 108.4002840  80.1162762  42.0810246 109.4614391  80.7441275  41.9090142
 107.6474751  80.3481913  43.1063188 106.7173834  79.9662869  43.0105189
 107.9507560  81.1524311  44.2974444 108.2031622  82.1486991  43.9343462
 106.7672199  81.2660529  45.2447783 105.8727169  81.2193646  44.6236626
 106.6841060  80.1731248  46.3612273 107.5781147  80.2195071  46.9830768
 105.8032489  80.3497714  46.9784679 106.6129701  79.1875905  45.9010508
 106.9005573  82.4810359  45.9342385 106.1663070  82.5852742  46.5438378
 109.1954582  80.5776361  45.0099029 109.7029904  79.4956736  44.6970018
 109.7808215  81.3101084  45.9608683 109.4087813  82.2385421  46.1012120
 110.9004825  80.9009815  46.7527801 111.2094657  79.8963909  46.4639438
 112.0728362  81.8478912  46.5475635 111.7754373  82.8629794  46.8107153
 112.9080860  81.5399517  47.1765556 112.4580857  81.8101494  45.2183372
 113.1982372  82.4062753  45.0826556 110.6508731  80.8118399  48.2511259
 111.3786240  80.0684546  48.9707688 109.5171109  81.2946248  48.7100376
 109.0121983  81.9653842  48.1485714 109.0872242  81.0859501  50.1041676
 109.9903298  81.2403716  50.6946364 108.0195793  82.0376081  50.5960561
 108.4111605  83.0494223  50.4911914 106.6505382  81.9169628  49.8069452
 106.2580842  80.9054799  49.9117400 105.9322056  82.6287906  50.2136374
 106.8183691  82.1335190  48.7519396 107.6163583  81.8200336  51.8887774
 106.9414106  82.4603502  52.1255063 108.7519433  79.5966879  50.4475286
 108.0525974  79.0108822  49.6243555 109.0142685  79.0294306  51.6830203
 109.8002535  79.5709341  52.8089738 109.3451095  80.4989052  53.1551153
 110.8195538  79.7684796  52.4771582 109.7339073  78.4701033  53.8439650
 108.8722578  78.6027795  54.4982251 110.6440369  78.4449324  54.4432410
 109.6010564  77.1892574  52.9881201 109.2963934  76.2508220  53.4513894
 110.5536811  77.0492041  52.4772475 108.5469562  77.6414669  52.0003750
 108.7018262  77.1034816  51.0651289 107.1179517  77.3775632  52.5133810
 106.7533518  76.4583250  53.2410582 106.2017262  78.2429103  52.0073068
 106.4941422  78.8068400  51.2220836 104.8006235  78.4249860  52.5362763
 104.4055223  77.6843686  53.2316036 104.6711954  79.8116748  53.1727036
 103.6038722  79.9885055  53.3055654 105.3949094  79.9997387  54.5215579
 106.4624181  79.8235139  54.3893852 105.2367836  81.0166762  54.8806311
 104.9977465  79.2921288  55.2493288 104.9820620  80.8657027  52.2200609
 104.8921609  81.7203926  52.6478733 103.7947320  78.2728810  51.3208079
 104.1318915  78.5886863  50.1817734 102.5561107  77.7754398  51.5871208
 102.3593270  77.6901122  52.5740832 101.5250141  77.3228784  50.6233263
 101.5352398  77.9314578  49.7190997 101.8546519  75.8645321  50.2400772
 102.9122578  75.9169926  49.9815873 101.7381126  75.3351471  51.1857358
 101.0911659  75.1100855  49.1310662 100.6702735  75.7886495  48.3891084
 101.8351971  74.4701406  48.6567350  99.9692584  74.2303022  49.6800971
  99.6304718  74.2214825  50.8629293  99.2770585  73.5033757  48.8027129
  98.5270660  72.9084171  49.1246398  99.5058194  73.5509563  47.8201113
 100.1716335  77.4582629  51.2584019  99.9028038  77.1710028  52.4129677
  99.2077788  77.8850263  50.3805579  99.3798182  77.9371101  49.3866821
  97.9033721  78.2752836  50.8727127  97.2029191  78.2766516  50.0375702
  97.5801250  77.5466635  51.6161664  97.9188867  79.6683781  51.5132126
  98.9801744  80.2409286  51.8914773  96.7361899  80.2580702  51.6526416
  95.9992755  79.7130185  51.2284067  96.3821495  81.5920689  52.2520946
  97.0492017  81.8033256  53.0878645  96.5182572  82.7081809  51.2273417
  97.5019373  82.6234470  50.7655052  95.7480642  82.5654314  50.4693672
  96.3765004  84.0067976  51.8124823  96.4693890  84.6766523  51.1311114
  94.9531527  81.4315000  52.8178824  93.9725048  81.2846415  52.0685913
  94.8983181  81.4273289  54.1837600  95.6942510  81.0034490  54.6386403
  93.6429694  81.7278110  55.0335483  92.9008778  82.1520026  54.3571899
  92.9824716  80.5766723  55.8345779  93.5993578  80.3628657  56.7074108
  91.5768370  80.9512316  56.2861680  90.9591906  81.1647443  55.4137998
  91.1413945  80.1229034  56.8450622  91.6226014  81.8344715  56.9232666
  92.9115467  79.3020717  55.0193184  93.9184910  78.9930682  54.7388154
  92.4429008  78.5165704  55.6121578  92.3221382  79.4780448  54.1194674
  93.8416889  83.0223916  55.8699589  94.5677987  82.9977983  56.8330527
  93.3103535  84.1753137  55.3793171  93.0965223  84.2090492  54.3927891
  93.1980192  85.4448450  56.1767908  94.1295822  85.6300415  56.7115729
  92.9326117  86.5818216  55.2907795  91.8979077  86.5097899  54.9556701
  93.0626431  87.4938462  55.8733626  93.8982318  86.6184111  54.0259802
  94.2494764  85.5992953  53.8643286  93.2448566  87.1405102  52.7470532
  92.8937498  88.1598161  52.9077963  93.9734112  87.1313309  51.9363592
  92.4006944  86.5033246  52.4834528  95.0573244  87.5411998  54.3871454
  95.5771555  87.1476582  55.2606442  95.7507244  87.5998720  53.5481846
  94.6737646  88.5365956  54.6111278  92.2161751  85.1788923  57.2615532
  91.1518434  84.7017869  56.9593605  92.4512890  85.5661491  58.5131804
  93.4058987  85.8720954  58.6365351  91.6003486  85.4777153  59.6851910
  90.6060297  85.1318136  59.4027354  92.1731230  84.5261179  60.6418995
  91.5183096  84.2098917  61.4538844  92.3327817  83.6919135  59.9587362
  93.5404458  84.8438823  61.2766532  93.6514327  85.5612196  62.4678456
  92.7937057  86.0954836  62.8764606  94.8801814  85.5908155  63.1399778
  94.9578020  86.2185428  64.0276907  95.9869654  84.8491486  62.7077367
  96.9046463  84.7676287  63.2902453  95.8791691  84.1853673  61.4515937
  96.7592128  83.6918576  61.0391965  94.6610045  84.1600334  60.7442505
  94.5898898  83.6191788  59.8005774  91.2960408  86.8417352  60.3024036
  92.2149205  87.6551715  60.4464057  89.9929844  87.1450247  60.5537706
  89.2787445  86.4362981  60.4662069  89.5906607  88.4824541  60.9517120
  90.4095803  89.1862409  60.8028694  88.7243627  88.8065960  60.3750326
  89.2386120  88.4582870  62.3598496  88.7468221  87.4585003  62.8368804
  89.5667805  89.5853983  62.9828990  89.9662976  90.3795694  62.5035477
  89.4850505  89.6257590  64.4403712  88.7861723  88.8841569  64.8272752
  90.8174510  89.4336691  65.1209735  90.6067578  89.2068750  66.1660922
  91.6982499  88.3156178  64.5190402  91.9097628  88.5419651  63.4739905
  92.6346971  88.2520715  65.0732311  91.1724281  87.3630965  64.5847301
  91.5863911  90.5895532  65.1765808  92.4169325  90.4003713  65.6193127
  88.7887534  90.8918208  65.0130131  88.6279214  91.9204452  64.3091055
  88.3664920  90.8080154  66.3135614  88.3559376  89.9383497  66.8270489
  87.7390088  91.9935101  66.9313869  86.9826374  92.5161435  66.3458479
  87.0910956  91.4870290  68.2312312  87.8493897  90.8968449  68.7457912
  86.5618842  92.5936801  69.1842960  85.8031642  93.1840319  68.6705551
  86.1246810  92.1326115  70.0699424  87.3859413  93.2420236  69.4820916
  85.9800033  90.4827072  67.9562481  86.3887279  89.6252218  67.4216779
  85.5486448  90.1497754  68.9002745  85.2061804  90.9532028  67.3496734
  88.5840418  93.2366141  67.1343663  88.1140453  94.3634142  67.0186048
  89.9183251  93.1303637  67.4511266  90.3592945  92.2268645  67.5477416
  90.7044230  94.3357300  67.7984754  90.0746910  95.1224116  68.2140100
  91.7431422  93.8923790  68.8934303  92.1414615  92.9481672  68.5220748
  92.5581615  94.6047840  69.0211906  91.1101481  93.6532394  70.2156348
  90.2718747  94.4776267  70.5969122  91.4424122  92.6977229  71.0489071
  90.9567209  92.6086880  71.9299727  92.1826036  92.0548709  70.8060926
  91.2879044  94.9532242  66.5506371  92.2646389  95.7206942  66.6133133
  90.8994815  94.6362098  65.2815928  90.1730628  93.9362916  65.2312962
  91.4138296  95.1909767  64.0328155  90.5935586  95.1449590  63.3164797
  91.6579867  96.2332063  64.2383491  92.6041595  94.5219140  63.4482270
  92.8866522  94.8865643  62.3191773  93.2194273  93.5981066  64.1537123
  93.0282480  93.4878552  65.1393058  94.2639516  92.8347605  63.5842024
  94.9095680  93.4654010  62.9729977  95.1194401  92.2085457  64.7322740
  95.6297149  92.9940857  65.2896301  94.4799817  91.6408756  65.4082500
  96.1502851  91.2779985  64.1081958  96.4077525  91.6923133  63.1334370
  97.0289882  91.2943654  64.7529555  95.5978065  89.5707912  63.9006275
  95.8868489  88.7839891  65.4592310  95.3166356  89.2940805  66.2356089
  95.5731104  87.7415626  65.4043146  96.9490846  88.8310260  65.6991146
  93.6603416  91.8313843  62.5890540  92.6014455  91.2668036  62.8026302
  94.4221210  91.6037303  61.5078996  95.3069928  92.0865575  61.4448197
  94.1073911  90.6116913  60.4995699  93.3327132  89.9094404  60.8074935
  93.7273018  91.2311812  59.1863519  94.5827534  91.8468769  58.9084638
  93.3559796  90.2735431  57.9858274  92.5002610  89.6578129  58.2628159
  93.1049896  90.8700864  57.1087636  94.2061475  89.6311143  57.7564827
  92.5942753  92.2753886  59.3530700  91.8716390  91.7989919  60.0155982
  93.0619087  93.1138860  59.8691519  91.8683315  92.7908477  58.0809767
  91.4000274  91.9529208  57.5645761  91.1043350  93.5141739  58.3659468
  92.5902982  93.2678132  57.4181283  95.4209285  89.9238958  60.2614420
  96.4039858  90.5759617  59.8734932  95.4428085  88.6328438  60.4973655
  94.6060172  88.2541007  60.9174053  96.5831184  87.6916807  60.2015475
  97.4274781  88.3296452  59.9404781  96.7912205  87.1811544  61.1418431
  96.3868586  86.6359259  59.0883172  95.4718339  86.7502093  58.3214906
  97.3330506  85.7389968  58.9323690  98.0528016  85.7840373  59.6394964
  97.4608571  84.7509453  57.8877117  96.5187274  84.5891842  57.3639521
  98.4980785  85.3172507  56.8799207  98.2120382  86.3153364  56.5480997
  99.3802616  85.3854749  57.5164727  98.8134965  84.4487370  55.6654350
  98.9997169  83.4188211  55.9698951  97.6011878  84.4944349  54.7467291
  97.4146085  85.5240447  54.4414578  97.7900573  83.8829564  53.8643895
  96.7293229  84.1090825  55.2753646  99.8696897  85.0271134  54.8847394
 100.7678878  85.1147932  55.4960102 100.0769171  84.3904741  54.0245950
  99.5676077  86.0159877  54.5398147  97.9032861  83.3963543  58.3533466
  98.8512712  83.3249002  59.1806486  97.2523849  82.3439258  57.9187171
  96.3718531  82.5350775  57.4624014  97.6546927  80.9389683  58.0990058
  98.4916796  80.9162248  58.7968846  96.4811209  80.1308822  58.7069885
  95.6129821  80.1073058  58.0482941  97.0704777  78.6536835  58.8640418
  97.9384281  78.6763846  59.5230167  96.3083433  78.0012788  59.2902105
  97.3671972  78.2744539  57.8861645  96.0239001  80.6035276  60.1046825
  95.6942053  81.6409309  60.0481328  95.1992800  79.9789721  60.4482398
  96.8551186  80.5246819  60.8053679  98.1267589  80.3350864  56.7447583
  97.3524538  80.5312824  55.8271693  99.2856084  79.7382721  56.6259832
  99.9413885  79.9708533  57.3580746  99.7404146  78.8576257  55.5336356
  98.8741415  78.6906197  54.8934957 100.8853382  79.4868898  54.6717159
 100.9741130  78.8892838  53.7644749 100.6420347  80.9485253  54.2968142
 100.5536095  81.5468715  55.2036010 101.4774469  81.3150641  53.7002952
  99.7212879  81.0274824  53.7188075 102.0386581  79.4488380  55.4897497
 102.7820309  79.8245961  55.0124625 100.1972676  77.4800144  56.0608579
 100.4599232  77.2926939  57.2215375 100.2964983  76.4973128  55.1354349
  99.6343309  76.4910388  54.3728116 101.2135833  75.3564387  55.2715615
 101.0988025  74.8293219  56.2187005 100.7912819  74.3894126  54.1032546
  99.7095065  74.2759456  54.1738688 101.0425189  74.9013819  53.1743480
 101.3908001  73.1341234  54.1173221 101.0732224  72.6194755  53.3717473
 102.7103951  75.6936436  55.3275574 103.0722945  76.7269796  54.8114253
 103.5767850  74.8006097  55.8166065 103.2080887  73.9976915  56.3059784
 105.0444956  75.0258928  55.8389474 105.3583486  75.7383202  55.0760302
 105.3791261  75.6383460  57.2792118 104.8923733  76.6095592  57.3681836
 104.9747001  74.9596717  58.0301717 106.9021685  75.8028514  57.4998037
 107.3437854  74.8068191  57.4682613 107.5896005  76.7038265  56.4506659
 107.1488011  77.7002285  56.4819332 108.6549476  76.7713116  56.6710794
 107.4509315  76.2767519  55.4574496 107.2073075  76.4357234  58.8410614
 106.8109049  75.8072408  59.6385412 108.2863054  76.5348055  58.9595830
 106.7446881  77.4213651  58.8919813 105.7818592  73.7663011  55.4176287
 105.4365782  72.6998059  55.9189519 106.8136385  73.8913545  54.5086357
 107.0415435  74.7965228  54.1228521 107.6179924  72.7403435  54.0987853
 107.0180220  72.0791426  53.4735269 108.8379058  73.1851307  53.3054936
 108.5221750  73.6151822  52.3549837 109.3948813  73.9301783  53.8736330
 109.6481966  72.0841861  53.0682095 110.4205585  72.3572648  52.5677247
 108.1272700  71.9764818  55.3947937 108.8310686  72.4803788  56.2052728
 107.8757015  70.6726160  55.2858292 107.1551813  70.3562514  54.6526915
 108.4991213  69.6820288  56.1897660 108.2499081  69.9112967  57.2258298
 107.9954214  68.3160504  55.8697499 106.9091125  68.3107635  55.9592162
 108.2763971  68.0672908  54.8463872 108.6033736  67.2599215  56.8477816
 109.6580256  67.2060277  56.5777715 108.5048715  67.7011465  57.8396067
 107.9990957  65.8336157  56.8552021 108.3108648  64.9628650  57.6775786
 107.1613461  65.5383839  55.9930508 110.0806131  69.8337246  56.1746938
 110.7325849  69.7710795  57.2115753 110.6231310  70.0995593  54.9700709
 110.0171129  70.0074802  54.1673488 112.0959000  70.3461873  54.7319108
 112.6684392  69.6097240  55.2957546 112.4875868  70.2390013  53.2376268
 112.3770134  71.2307670  52.7991366 113.5344066  69.9382173  53.1952314
 111.7066839  69.3190599  52.5174528 111.9976420  69.2993072  51.6028200
 112.5146590  71.6883390  55.4085041 113.7023116  71.9309766  55.4412051
 111.6792297  72.5395985  55.9716462 110.6969904  72.3049327  55.9870487
 112.1448525  73.8526978  56.7063235 113.2312724  73.8882418  56.7871164
 111.6600304  75.0963283  55.8562454 110.7009886  75.1001165  55.3382457
 111.6725610  75.8908929  56.6023084 112.7077155  75.4522550  54.8283217
 112.5156155  75.6663538  53.4807656 111.5073395  75.4844594  53.1087526
 113.7063639  76.0877443  52.8598805 113.8306262  76.2002535  51.8638885
 114.6960556  76.2695195  53.8248868 116.0811156  76.6864327  53.7561465
 116.3988327  77.0895134  52.7945434 116.9064079  76.5658532  54.8503833
 117.9748847  76.7781859  54.8133421 116.3262473  76.1422966  56.0867681
 116.9479374  76.0658719  56.9788221 114.9864873  75.8201223  56.1997629
 114.7248718  75.3584143  57.1518574 114.0694239  75.8787059  55.0664034
 111.4681890  73.9955709  58.0662135 112.0717537  74.6146366  58.9376952
 110.3572696  73.3005449  58.3426513 109.9968187  72.7386502  57.5847272
 109.6306823  73.3036831  59.6073165 109.2963890  74.3147974  59.8396849
 108.3894061  72.3795899  59.5192652 107.9026119  72.7958621  58.6373083
 108.6850861  71.3498597  59.3184439 107.4022431  72.4099970  60.7178500
 106.3383469  73.3525679  60.7026504 106.1396157  73.9221466  59.7948037
 105.5530580  73.5511334  61.8348457 104.7279959  74.2624430  61.8724359
 105.7948698  72.6683783  62.9483646 105.0644983  72.8228386  64.1018395
 104.4305674  73.5419640  64.0509491 106.8236749  71.7052497  62.9885840
 106.9989157  71.0404604  63.8344246 107.6541568  71.6295680  61.8452008
 108.5082214  70.9523786  61.8358055 110.4756701  72.8388560  60.7964463
 110.6442660  73.5664697  61.7615311 111.0949690  71.6555839  60.7232482
 110.7727124  71.0250379  60.0030665 111.9489792  71.0966825  61.8327876
 111.4386982  71.2626314  62.7815623 112.2258167  69.5625758  61.6747884
 112.8206162  69.3461828  60.7873839 112.8113556  69.3407430  62.5669960
 110.9840582  68.6590689  61.6655658 110.2740536  68.5986873  62.6565318
 110.6896829  68.0858281  60.5025503 109.8847783  67.4799232  60.4310828
 111.2723268  68.2589235  59.6959123 113.1415500  72.0201133  62.1857188
 113.3647523  72.3301225  63.3244748 113.8038397  72.6044321  61.2123612
 113.6947107  72.2252748  60.2826140 114.8308053  73.6492834  61.4283948
 115.5100262  73.3647251  62.2320021 115.6413950  73.8078879  60.1338652
 115.9769487  72.8285868  59.7925848 114.9558290  74.2323969  59.4004543
 116.8505756  74.7330375  60.2971146 117.1925665  74.6182777  61.3256929
 118.0041155  74.4641031  59.3477237 117.6629863  74.5791330  58.3188904
 118.8095756  75.1717373  59.5441632 118.3692620  73.4480547  59.4974368
 116.6340590  76.1596555  60.0549919 115.8821999  76.5363992  60.7484410
 117.5687759  76.7000609  60.2045497 116.2896706  76.3068194  59.0313521
 114.1460786  74.9471392  62.0146111 114.8384850  75.5395088  62.8527093
 113.0024634  75.3517726  61.4664676 112.6097754  74.9193301  60.6425205
 112.3930760  76.6524853  61.9561395 113.1678496  77.3862341  62.1784858
 111.4974468  77.2079696  60.8461723 110.8766061  76.3993220  60.4604973
 110.8596361  77.9923799  61.2536009 112.3688674  77.7946008  59.6864900
 113.1860171  77.1096506  59.4601926 111.4822437  77.9787493  58.4224137
 110.6650844  78.6639815  58.6478161 112.0851621  78.3873665  57.6114746
 111.0740918  77.0141677  58.1205946 112.9708737  79.1501000  60.0822162
 113.6003489  79.0253604  60.9632954 113.5718079  79.5356979  59.2586305
 112.1685406  79.8531140  60.3061178 111.7318901  76.5463316  63.3786083
 111.8034298  77.4745767  64.1048708 111.2183714  75.3491201  63.7503193
 111.0333922  74.6653358  63.0303741 110.8797606  74.9895573  65.1930134
 110.0269766  75.5743834  65.5377410 110.5117874  73.4643878  65.2823609
 109.6640174  73.2061172  64.6477890 111.4216506  73.0321346  64.8659404
 110.2783536  72.9009797  66.7137920 111.0869325  73.2406002  67.3610624
 108.9526667  73.3760493  67.2710470 108.1435114  73.0363958  66.6245163
 108.8121039  72.9691250  68.2724237 108.9469095  74.4650295  67.3178358
 110.0602415  71.3527419  66.6483250 110.9413387  70.8791590  66.2153281
 109.8974596  70.9653809  67.6540858 109.1897882  71.1337548  66.0298958
 112.0486004  75.2842978  66.1440637 111.7455996  75.7721036  67.2279036
 113.2647121  74.8631381  65.8303410 113.3040476  74.2910817  64.9988944
 114.5321830  75.0840246  66.6024458 114.4070352  74.7743030  67.6399957
 115.6643661  74.2376805  65.9659412 115.3570961  73.1970565  66.0697972
 115.7380076  74.4904014  64.9082034 117.0079514  74.4330908  66.6241048
 117.9854410  74.4601341  65.8515657 117.1609231  74.5304866  67.8596916
 114.8557244  76.5812266  66.6270836 115.2785484  77.1680694  67.6396202
 114.7648846  77.3278985  65.4240448 114.6409779  76.8180682  64.5610156
 114.9518409  78.8293347  65.3506849 115.9259601  79.1235564  65.7413566
 114.8715939  79.2378160  63.8829484 115.6306885  78.6380916  63.3807480
 113.8820881  78.9196398  63.5547072 115.0729279  80.7025673  63.5360605
 114.8212667  80.7936666  62.4794298 114.3427710  81.2506853  64.1314929
 116.7087642  81.3996402  63.8170212 117.3212521  81.3458740  62.1730301
 116.6816820  81.9468866  61.5266301 118.3361514  81.7427816  62.1496980
 117.3268251  80.3145140  61.8203735 113.9266337  79.6086426  66.2602449
 114.3665019  80.5841218  66.8676454 112.6468215  79.2044581  66.4135955
 112.2137659  78.5872823  65.7415417 111.8007154  79.7462006  67.5329518
 111.5682919  80.7990227  67.3728140 110.4628587  78.9382917  67.5631012
 110.2059829  78.7546981  66.5198335 110.7007129  77.9925525  68.0500332
 109.2728944  79.5940542  68.2744453 109.4137047  79.6169910  69.3550688
 109.2420228  80.6138637  67.8908602 107.9445752  78.9211565  67.9720664
 107.0338615  79.5600277  67.5045056 107.7581049  77.5844030  68.1320195
 106.8598601  77.1740144  67.9202677 108.5186190  77.0074374  68.4619139
 112.5874469  79.6990457  68.8935491 112.6355355  80.6796890  69.6501178
 113.1719488  78.5520111  69.2980476 112.9272893  77.6713172  68.8683741
 113.9836727  78.5276139  70.5326193 113.4520011  78.9958763  71.3609639
 114.2539207  77.0547321  70.8912264 114.8922879  76.8883762  70.0235211
 114.8339629  76.9066397  71.8021159 113.1349137  76.0489551  70.8648598
 112.0496044  76.2148735  71.4691054 113.3730090  74.8422732  70.4394562
 112.6275009  74.1611857  70.4185462 114.3021768  74.5925636  70.1322216
 115.1810030  79.4144495  70.5559202 115.3325761  80.2684290  71.4478005
 115.9138615  79.3719916  69.4252983 115.6284784  78.7900869  68.6506741
 117.1841751  80.0669451  69.3321486 117.8464021  79.8041054  70.1570546
 117.8390971  79.6226159  68.0165366 117.0350105  79.6850055  67.2832893
 118.5783059  80.3968757  67.8111292 118.5189389  78.2156199  67.9263632
 119.3123079  78.1291547  68.6687851 117.7833791  77.4276211  68.0879547
 119.1089666  78.0777608  66.5397316 118.3487556  78.3167487  65.7960496
 119.9494286  78.7635267  66.4327353 119.5847099  76.7109031  66.3028384
 118.8558632  76.1551275  65.8785798 120.8013317  76.1455989  66.4923415
 121.7858578  76.8134156  66.9014935 121.6778253  77.7983748  67.0971572
 122.6795177  76.3613583  67.0323211 120.8283073  74.8766352  66.2992812
 119.9841593  74.3918119  66.0300959 121.6935470  74.3692088  66.4175071
 116.9609018  81.5899723  69.4634433 117.7749658  82.3177291  69.8296902
 115.7643719  82.0835163  69.1453954 115.2044562  81.4011506  68.6545076
 115.2588994  83.4188422  69.2632049 116.0810819  84.1312111  69.1950455
 114.2644219  83.7155495  68.1490588 113.5879917  82.8608827  68.1397794
 113.6975474  84.6247462  68.3493454 114.9673588  83.8366044  66.7626984
 115.5903338  82.9561950  66.6049572 113.9275725  83.9379614  65.6327293
 113.3044788  84.8184514  65.7895431 114.4391999  84.0216395  64.6739091
 113.3015184  83.0456855  65.6332505 115.9536583  84.9996511  66.6435899
 116.7427153  84.8851413  67.3868100 116.3927363  85.0036507  65.6459448
 115.4293686  85.9401369  66.8130173 114.7406591  83.6479991  70.6692600
 115.1980782  84.5235831  71.3488542 113.9051001  82.8325632  71.2336841
 113.5282339  82.1397086  70.6027930 113.3587977  82.8999000  72.6137049
 112.8242882  83.8365735  72.7719500 112.3778755  81.7367733  72.8087151
 111.5977626  81.8948144  72.0640366 112.8695179  80.7820133  72.6221108
 111.7345494  81.6907152  74.1829080 112.2469293  82.0574213  75.2351382
 110.5730855  81.1579768  74.2468182 110.0958962  81.0994343  75.1350541
 110.1389326  80.7985077  73.4087287 114.4105518  82.9724879  73.6771613
 114.3629850  83.8547110  74.5398077 115.4743658  82.2122751  73.4312871
 115.3998242  81.6361592  72.6050708 116.6695618  82.1103030  74.2296336
 116.4234622  81.8222358  75.2516666 117.6055152  81.0121357  73.6103622
 117.4830885  80.9884161  72.5275195 118.6452605  81.2313393  73.8532191
 117.2335718  79.6967455  74.1774606 117.3638473  79.7404648  75.2587644
 116.1854411  79.5075594  73.9456572 118.0667694  78.6034305  73.6236546
 117.4935275  77.6798303  73.5433088 118.4604827  78.8725134  72.6435099
 119.1892400  78.4065987  74.5690001 119.9021014  79.2262723  74.4791986
 118.8139404  78.3625341  75.5914030 119.8591800  77.1331179  74.2354717
 120.2073921  77.1739020  73.2882734 120.6293006  76.9813195  74.8710591
 119.1989086  76.3734090  74.3190368 117.4395451  83.4187492  74.3396350
 118.1953487  83.5577101  75.3057777 117.3106663  84.3624613  73.3559365
 116.6676891  84.0776487  72.6309804 118.1418928  85.5866943  73.1267618
 118.7459087  85.8737315  73.9875019 119.0635633  85.3831169  71.9316066
 118.4886591  84.8906645  71.1473394 119.6388085  86.6991887  71.3936095
 120.2142697  87.1920260  72.1772273 120.2878041  86.4917484  70.5428018
 118.8237450  87.3504257  71.0779144 120.1933820  84.4047345  72.2523676
 119.7707075  83.4388206  72.5288788 120.8303767  84.2845620  71.3760709
 120.7858498  84.7921701  73.0812080 117.3574281  86.9106297  73.1190579
 117.8457133  87.8311527  73.7935748 116.2338074  87.0020618  72.3887766
 115.8342005  86.1657982  71.9874330 115.6057971  88.3123890  72.0609433
 116.2626435  89.1459388  71.8122536 114.5265500  88.1239187  70.9044794
 113.9095124  87.2585684  71.1464174 113.6172882  89.3864783  70.7557269
 114.2336093  90.2522062  70.5133139 112.8933966  89.2215566  69.9576777
 113.0898555  89.5674115  71.6923042 115.1589435  87.6253752  69.6423023
 115.6802727  86.7018861  69.8942633 114.3475047  87.4061870  68.9483117
 116.1513824  88.6142288  68.9802823 116.9634033  88.8335468  69.6735510
 116.5592222  88.1678816  68.0733423 115.6306352  89.5378492  68.7276013
 115.0148403  88.9309726  73.3354230 114.4289125  88.2060877  74.0895910
 115.1819853  90.2138070  73.5974312 115.8253283  90.6828695  72.9759896
 114.5830687  90.9773793  74.6658867 114.7817529  90.4992341  75.6250535
 115.1985199  92.4482836  74.6925562 115.2321377  92.8638696  73.6854527
 114.6019753  93.0976631  75.3332909 116.6112173  92.3487108  75.2469246
 116.5937624  91.6941750  76.1183481 117.2522979  91.9144451  74.4797668
 117.1511819  93.7066898  75.6464823 116.3932506  94.2784276  76.1819774
 118.0351445  93.5982232  76.2749285 117.5322732  94.4488279  74.3457373
 118.2051036  93.8084254  73.7754003 116.6203845  94.6182382  73.7731482
 118.1988217  95.7539429  74.6152070 119.0440480  95.5971469  75.1454025
 118.4288334  96.2016190  73.7395469 117.5753673  96.3476624  75.1433175
 113.0445003  91.0648244  74.5136681 112.4928063  91.1478839  73.3851208
 112.2785496  91.1341604  75.6195619 112.6186919  90.7585135  76.4932277
 110.8910167  91.5894154  75.5543673 110.7452084  92.2173186  74.6754038
 109.9356643  90.3714871  75.4573963 110.2931320  89.6991966  74.6774338
 109.9283089  89.8471822  76.4129853 108.6508362  90.7917765  75.1514817
 108.0699397  90.0296108  75.0943633 110.5212129  92.5476772  76.6679150
 110.8760304  92.2705459  77.7893363 109.7823178  93.5929250  76.2575677
 109.6281956  93.7359892  75.2697021 109.1990213  94.5555352  77.1993192
 109.9798201  95.0522298  77.7752940 108.4153554  95.6406618  76.3754102
 107.8095850  95.0980909  75.6496290 107.5108801  96.5764609  77.2020646
 108.1160530  97.1197540  77.9278051 107.0173285  97.2857784  76.5377032
 106.7589153  95.9863679  77.7259357 109.3600464  96.5790147  75.6193964
 109.9698509  96.0000293  74.9258430 108.7762127  97.3127999  75.0637013
 110.0075338  97.0931499  76.3296962 108.2482801  93.8895588  78.1915901
 107.5169649  93.0177250  77.7421239 108.3607011  94.2569204  79.5328089
 109.0249805  95.0004500  79.6940419 107.6578287  93.7100870  80.6672593
 107.8371451  94.3406607  81.5380760 106.5899481  93.6865606  80.4500570
 108.1398702  92.2740303  80.9780292 107.7357735  91.7198039  81.9968274
 109.1043360  91.7081523  80.2243509 109.1859976  92.1434976  79.3166587
 109.8588524  90.4681163  80.4744965 110.4891466  90.2410934  79.6146774
 110.7349537  90.6165117  81.6862578 110.1131115  90.9906368  82.4995486
 111.1125873  89.6270159  81.9439223 111.8878627  91.5500878  81.4689531
 112.5974275  91.1997059  80.7193857 111.5845483  92.5700220  81.2326556
 112.5495414  91.5214749  82.8510904 111.7790226  91.7742068  83.5794628
 112.8889709  90.4998211  83.0217089 113.7291020  92.4821588  83.0034326
 114.3295029  92.4027327  82.0971706 113.3180876  93.4888431  83.0792806
 114.6096002  92.1963347  84.2262951 114.9909002  91.2637212  84.1559956
 115.3641501  92.8667708  84.2619305 114.0535429  92.2703012  85.0661930
 108.9861070  89.2287234  80.4600807 109.4038963  88.2397299  81.0945095
 107.8869253  89.2554596  79.8231491 107.5185955  90.1718987  79.6120289
 107.0225822  88.0495933  79.5276793 106.8435539  87.4561910  80.4242961
 105.6630203  88.5299080  78.9442042 105.7450015  88.8914523  77.9191846
 104.8068042  87.2213466  78.9681614 104.7239837  86.8594309  79.9929826
 103.8116436  87.4304443  78.5756896 105.2872026  86.4608732  78.3525342
 105.0157298  89.6918338  79.7417438 104.9238552  89.3769132  80.7812075
 105.6804927  90.5535259  79.6811088 103.6767100  90.0621149  79.2168146
 103.0112148  89.2009958  79.2775602 103.2669064  90.8798908  79.8096070
 103.7678522  90.3776066  78.1774600 107.7604461  86.9882781  78.6708526
 108.7325224  87.2559579  77.9427969 107.5173780  85.7046955  78.9847230
 107.1114633  85.6126329  79.9049714 107.8411330  84.4705739  78.2337299
 108.8608891  84.4843185  77.8490119 107.7058370  83.2767370  79.2673814
 108.3570727  83.5237261  80.1058250 106.6682182  83.2782185  79.6012153
 108.0670915  81.8900368  78.7329860 108.1483464  81.3472172  79.6747106
 107.3963378  81.3536989  78.0617704 109.4139336  81.9995685  78.1054828
 109.5672381  81.4299521  76.9883552 110.4538847  82.4094408  78.7078492
 106.9594802  84.2457832  76.9100047 105.7308812  84.0428831  76.9903362
 107.5640793  84.3397154  75.7512887 108.5442932  84.5781328  75.7019209
 106.8582834  84.0278563  74.4989110 106.0630661  84.7473876  74.3039662
 107.8944940  84.1085557  73.3448199 108.0831212  85.1718459  73.1967225
 108.8374149  83.5958171  73.5348181 107.3717659  83.5779169  72.0374642
 107.5150841  82.2750910  71.6238778 106.8454744  82.1716179  70.5161751
 106.8066389  81.2033980  70.0170349 106.3027299  83.3505443  70.1890926
 105.7600674  83.5238693  69.3550808 106.5900873  84.2863861  71.1489081
 106.2004657  85.3000913  71.0556452 106.2875794  82.4923609  74.5245355
 105.1779828  82.2208654  74.0103696 107.0414943  81.5547350  75.1572472
 107.9933814  81.7387578  75.4403479 106.5600158  80.1725897  75.1981214
 106.1497882  79.9646611  74.2099017 107.5648793  79.0881555  75.5443421
 107.0122487  78.1624604  75.3837578 108.3314735  79.1909511  74.7763144
 108.1729857  79.0568037  76.8119215 108.7759656  78.3112970  76.8591958
 105.2857804  80.0695441  76.0126439 104.2819786  79.5634532  75.4202892
 105.2400256  80.6790446  77.2223367 106.0859542  81.0929536  77.5872796
 104.0489194  80.7477516  78.0213488 103.7325494  79.7451704  78.3091684
 104.3149394  81.5445439  79.2690444 105.2209756  81.2176091  79.7792516
 104.4149344  82.5929804  78.9881852 103.2086710  81.4742442  80.2740290
 102.4215791  82.6140042  80.5436887 102.7294680  83.5639824  80.1068298
 101.2766397  82.5509603  81.3445216 100.6396091  83.4296784  81.4452548
 100.9426986  81.3509626  82.0240006 100.1092434  81.2984359  82.7244956
 101.7102976  80.2258603  81.7758159 101.4223247  79.2722762  82.2183644
 102.8325180  80.3045508  80.9751598 103.4808091  79.4360901  80.8585641
 102.8955033  81.3915580  77.2643676 101.7614168  81.0200848  77.4907864
 103.1106374  82.3613383  76.4149509 104.0742611  82.6622218  76.3833634
 102.1259575  83.1238940  75.6663774 101.2581143  83.3729888  76.2770321
 102.8230892  84.4390019  75.2370669 102.5861580  85.0976651  76.0726061
 103.9051986  84.3636547  75.1300058 102.3019236  85.1350247  73.9657680
 103.0901314  85.2779943  72.8417101 104.0587175  84.7780536  72.8416782
 102.4668605  86.0326231  71.9566571 102.8418982  86.2587121  71.0465307
 101.2244324  86.4737070  72.4647903 100.1818003  87.3288964  72.0045768
 100.3510566  87.8147371  71.0436347  99.0439869  87.5000815  72.7658116
  98.2242120  88.1171170  72.3979310  98.9200580  86.8731064  74.0470363
  98.0589145  86.9963579  74.7038014  99.9576066  86.0599370  74.4791700
  99.7936623  85.6206779  75.4631794 101.1372787  85.8440035  73.7244480
 101.4307998  82.3524683  74.5065537 100.2137526  82.4282631  74.4160879
 102.2117113  81.5757588  73.7055795 103.2063600  81.7312358  73.7868211
 101.7385607  80.6701248  72.6740328 100.8220953  81.0589028  72.2301386
 102.8127436  80.5220302  71.5513178 103.6685952  80.0546673  72.0383385
 102.3784146  79.8255128  70.8341555 103.2722690  81.7936628  70.8169841
 104.0766995  82.2888135  71.3608759 103.6074196  81.5606682  69.8062964
 102.0069316  82.7582269  70.7471609 101.0997577  82.1690766  70.6128611
 101.9311822  83.3361551  71.6682257 102.1338499  83.6742202  69.6342202
 103.0839420  83.7695808  69.3050838 101.2043653  84.5030207  69.1485062
  99.9766103  84.5550851  69.5786038  99.6798076  83.9426966  70.3249205
  99.3267344  85.2076169  69.1639192 101.4772523  85.1865850  68.0242151
 102.3700257  85.0659147  67.5676032 100.7883437  85.8179201  67.6409142
 101.2821335  79.3370288  73.2052148 100.7580320  78.5773033  72.4025911
 101.4573637  78.8905831  74.4406801 102.0530939  79.4433318  75.0404081
 101.0091713  77.5756140  74.9235650 101.2061386  76.8250227  74.1581137
 101.7455762  77.1651340  76.2188087 102.7405331  77.6098246  76.1985567
 101.1876286  77.5627915  77.0665486 101.8599418  75.7561150  76.3470698
 102.3217621  75.5454193  77.1618884  99.5084071  77.4754380  75.0231284
  98.8332624  78.3674935  75.4967913  98.9556556  76.3535407  74.6270311
  99.5679977  75.5808277  74.4078253  97.4878226  76.1900423  74.3755862
  97.0774531  77.0426114  73.8344559  97.3193524  74.9396457  73.5159862
  98.0338755  75.0006021  72.6951084  97.5956454  74.1183778  74.1772586
  96.0297794  74.5839190  72.9229558  95.2069518  73.5596035  73.3375259
  95.5234378  72.9160496  74.1583638  93.9375139  73.3358622  72.6954096
  93.2810033  72.5429808  73.0537860  93.5511525  74.1226720  71.6283007
  92.5609882  73.9743939  71.1973853  94.3972142  75.0871729  71.1048435
  94.2236846  75.6165674  70.1679715  95.5411289  75.3672807  71.8674246
  96.1314549  76.2591079  71.6570455  96.7717429  76.1666325  75.7370130
  97.1243513  75.3404131  76.5597316  95.7925106  77.0445143  75.9121062
  95.7105572  77.7607313  75.2047052  94.9956976  77.1651127  77.0958119
  94.7283618  76.1793067  77.4763607  95.8283521  77.9319043  78.2120565
  96.7622294  77.4536912  78.5074963  96.0253180  78.9636863  77.9209717
  94.9957102  77.9872573  79.4006954  95.0850204  79.0402462  80.3470243
  94.2418696  78.7551219  81.3692277  94.1714560  79.3829309  82.2574826
  93.6080779  77.6507277  81.0409178  92.8689084  77.2426291  81.5951596
  94.0612149  77.1591549  79.9111549  93.6711196  76.2144163  79.5324786
  93.6194734  77.7169765  76.8231375  93.4138472  78.9296190  76.8379036
  92.7590580  76.8171680  76.3096672  93.1510056  75.9196088  76.0629609
  91.3691506  77.0726856  75.9858196  91.1936809  78.0425942  75.5204306
  90.8227615  75.9679961  75.0484327  89.9098469  76.3700992  74.6091148
  91.7751337  75.4957915  73.9190258  92.6881409  75.0931060  74.3576166
  91.2841739  74.7219694  73.3288927  92.0233482  76.3399724  73.2757151
  90.3596896  74.7776246  75.6750953  90.0453124  74.1652244  75.0059665
  90.5102834  77.2388119  77.2421234  91.0024833  77.2107851  78.4174985
  89.2035630  77.3722187  76.9722654  88.9081957  77.6949091  76.0619202
  88.2168955  77.2745426  78.0143463  88.4693075  77.9394600  78.8403441
  86.8285178  77.6905235  77.4475086  86.5951502  77.0314743  76.6112712
  86.0881875  77.5527943  78.2355706  86.8023753  79.1819714  76.9606681
  87.8333779  79.2479368  76.6131295  86.1258430  79.3775182  76.1287037
  86.5690687  80.2155640  78.0595263  87.3994590  80.2605313  78.9250706
  85.4503106  80.8614132  78.1873703  88.1642252  75.9445644  78.8292388
  87.5743522  75.9784882  79.9090244  88.6885882  74.7976789  78.3138562
  89.1303711  74.8719969  77.4086468  88.6480651  73.4785078  78.9640166
  88.4763295  73.5285852  80.0392367  87.4387112  72.8174630  78.3070510
  86.6621893  73.5807554  78.3570282  87.7453613  72.6792055  77.2702527
  86.8889332  71.4888469  78.8612670  85.9610617  71.2711950  78.3323219
  87.6222805  70.7128753  78.6417858  86.6188135  71.5255385  80.3774827
  86.0820332  70.6182647  80.6546476  87.5759871  71.5541816  80.8981531
  85.8453933  72.6554007  80.7799284  85.4357342  73.1202894  79.9823337
  85.6537824  73.1363421  81.9093994  85.9760052  72.5590580  83.0639853
  86.4165543  71.6502041  83.0650243  85.7785832  73.0323290  83.9341225
  85.0772699  74.2250735  81.9786760  84.7805154  74.6906209  81.1329204
  84.9049798  74.6453103  82.8807935  89.9245789  72.6477646  78.7570691
  90.0396897  71.5802074  79.3672600  90.9187390  73.1454952  78.0075206
  90.9302493  74.0961189  77.6665200  92.0735909  72.2640839  77.6803934
  92.2068187  71.4665081  78.4112986  91.7180825  71.6176268  76.2894632
  90.6483701  71.4116324  76.3266247  91.9128506  72.3921956  75.5477027
  92.4528087  70.3705791  75.9123224  93.5188033  70.5975537  75.9277841
  92.2316183  69.6156702  76.6668351  92.0571548  69.8290047  74.5037018
  91.0477018  69.4552781  74.6752598  92.0100200  70.7420607  73.9102319
  92.8435927  68.8083806  73.7762537  93.8851381  69.1242308  73.7169038
  92.7826288  67.8564505  74.3037115  92.2965778  68.6503557  72.4070999
  92.3533716  69.5322193  71.9180285  92.8322039  67.9539476  71.9088828
  91.3315901  68.3572717  72.4618684  93.4237405  73.0192825  77.5485558
  93.4847584  74.0583608  76.8425650  94.4102157  72.3479186  78.1327674
  94.2789749  71.4045341  78.4687747  95.7244997  72.9476121  78.2628264
  95.6387820  73.9023231  77.7439057  96.0149988  73.2212798  79.7553187
  95.7442042  72.3140987  80.2954973  97.4446391  73.5906974  80.0766678
  97.7160269  74.4981093  79.5371756  97.5439543  73.7623995  81.1484672
  98.1066033  72.7784231  79.7764772  95.3833950  74.3815638  80.2647954
  95.6080559  74.4871352  81.1921478  96.8429003  72.0291831  77.7663889
  96.9108963  70.8393077  78.1868947  97.5805813  72.4850792  76.7488864
  97.5568624  73.4697523  76.5253787  98.3676114  71.6056040  75.9023516
  98.7273138  70.7858166  76.5241731  97.6065532  71.0120097  74.6935778
  97.4646482  71.8830817  74.0538936  98.3507279  70.3519518  74.2479010
  96.2625021  70.2524280  74.8374817  95.6139128  70.9084852  75.4180174
  95.8647311  70.1497936  73.8278563  96.3213044  68.9230143  75.4810425
  95.2493523  68.4567150  75.8337996  97.4194201  68.2963961  75.6649902
  99.6237062  72.2831485  75.3587257  99.6292652  73.4742520  75.0563012
 100.7239644  71.5628778  75.2034189 100.8848852  70.2529243  75.7708607
  99.9257437  69.7363809  75.7343833 101.2009771  70.3583039  76.8086854
 101.9397226  69.5842177  74.9101206 101.4746691  69.1072267  74.0473902
 102.4803020  68.8365314  75.4905002 102.8642858  70.7165894  74.4876928
 103.3028958  70.5622587  73.5018417 103.6572236  70.8983502  75.2131667
 101.8824205  71.9412511  74.4492194 102.3410865  72.7900470  74.9564366
 101.5572336  72.3350338  72.9543285 100.9684353  71.5032446  72.2518755
 101.9118248  73.5759789  72.5942128 102.2727759  74.2071963  73.2951966
 101.7506142  74.0810210  71.2098484 100.6892972  74.0187433  70.9693764
 102.1821766  75.5487778  71.1430889 103.2448996  75.6263622  71.3726546
 101.9981085  75.9369468  70.1413185 101.6111428  76.1292498  71.8677074
 102.5367899  73.2922059  70.1430797 103.6599804  72.8892137  70.3931004
 102.0089282  73.0128861  68.9266273 101.0947253  73.4200873  68.7905404
 102.5574881  72.1110404  67.8494725 103.6239978  72.2917506  67.7153079
 102.3534318  70.6550248  68.1763785 102.7821544  70.4545556  69.1582691
 100.8408128  70.2890066  68.1866089 100.4114728  70.4887841  67.2048473
 100.7238511  69.2319535  68.4254764 100.3262047  70.8895695  68.9366777
 103.0085859  69.7683018  67.2581136 102.8425273  68.8590862  67.5176359
 101.9419674  72.4978830  66.4366437 101.0424629  73.2966187  66.4347048
 102.4029065  71.9038870  65.3285517 103.1263026  71.2066480  65.4317749
 101.9236090  72.2043838  63.9941872 102.5711751  71.6334480  63.3287627
 100.9147896  71.7930550  63.9596712 101.8844275  73.6570921  63.5238155
 101.3912523  73.8283415  62.4213465 102.4646980  74.6413327  64.1748213
 103.0548798  74.3133986  64.9259830 102.4363621  76.1188421  63.8817665
 102.3205313  76.2291756  62.8035694 101.3078352  76.9315250  64.5903859
 101.3128952  76.4125654  65.5489028 101.4468979  77.9999307  64.7555244
  99.9079245  76.7583585  64.0074730  99.3811284  77.5112920  62.9602510
 100.0997255  78.1847171  62.4931142  98.0626404  77.4625720  62.4942671
  97.7292663  78.0370255  61.6299954  97.1589921  76.6395784  63.1793673
  96.1211593  76.5524366  62.8577943  97.6112957  75.9185126  64.3000147
  96.9050935  75.3029248  64.8571775  98.9538518  75.9851908  64.7027592
  99.2885097  75.4286841  65.5782044 103.6433042  76.7422380  64.4102497
 104.0919286  76.3507247  65.4631801 104.0593871  77.7560888  63.6218852
 103.6540481  77.9250011  62.7123424 105.2534554  78.5007946  63.9944160
 105.3838298  78.3430058  65.0650254 106.5460098  78.0387377  63.2372738
 106.4420789  78.1839111  62.1619955 107.7033165  78.9222496  63.7679800
 107.8081666  78.7772567  64.8431935 108.6323413  78.6416150  63.2717363
 107.4846002  79.9701864  63.5628192 106.9307610  76.5455283  63.5022817
 107.2228437  76.4766285  64.5501564 106.0302549  75.9540312  63.3369956
 108.0537447  76.0131234  62.6276878 108.9547782  76.6038715  62.7927794
 108.2508729  74.9718134  62.8824686 107.7621899  76.0812765  61.5796177
 105.0026544  79.9755131  63.9077601 104.4320390  80.4621160  62.9207780
 105.4611074  80.7675586  64.8734841 106.1637337  80.4181182  65.5093355
 105.0024559  82.1795489  65.0319430 103.9428481  82.2915198  64.8021756
 105.2208887  82.5308108  66.4827990 104.9205029  81.7860165  67.2197854
 106.3081356  82.6063074  66.4656417 104.6189867  83.8939838  66.8580302
 103.9615962  84.5588902  66.0164714 104.6025445  84.2161683  68.0251994
 105.8660412  83.1227304  64.1334493 107.0229055  83.4236571  64.4517591
 105.2285578  83.6194396  63.0259743 104.2898549  83.3150458  62.8108450
 105.8591357  84.5764742  62.1419605 106.7908696  84.1160790  61.8133158
 105.1889917  84.6877191  61.2895340 106.1683854  85.9796704  62.7275909
 107.0991738  86.6308490  62.3078904 105.3740319  86.3506846  63.7569499
 104.5149822  85.8777110  63.9986706 105.7297678  87.5367049  64.4907276
 105.9502531  88.3645566  63.8168233 104.5264609  87.9243832  65.3688438
 104.2822912  87.0520089  65.9750149 104.8602101  88.7346794  66.0170194
 103.3025325  88.3638183  64.6048378 103.3372652  88.6030763  63.3916168
 102.2074187  88.4843603  65.2443802 107.0275156  87.3748049  65.3373834
 107.6418493  88.4439233  65.5122952 107.4743973  86.2635201  65.8948677
 106.8495716  85.4706792  65.8617690 108.7779587  86.1192507  66.6522521
 108.9749953  87.0564647  67.1727382 108.7698008  84.9591062  67.6987760
 107.9092309  85.2046967  68.3210331 108.5959812  84.0061868  67.1989446
 110.0224733  84.8540386  68.5776699 110.8708085  84.7721726  67.8981655
 110.2471979  86.0108089  69.5276500 109.3994286  86.0930240  70.2078167
 111.1575929  85.8385594  70.1017683 110.3466309  86.9350454  68.9584397
 109.9871102  83.5389612  69.3476243 109.9634201  82.7062784  68.6446467
 110.8757792  83.4599550  69.9738246 109.0968076  83.5089274  69.9757631
 109.9565873  85.9544068  65.7499539 110.9541825  86.6238108  65.9502814
 109.8229758  85.1126640  64.7427191 108.9381165  84.6489448  64.5940994
 110.9820144  84.7168744  63.8882571 111.9516704  84.5700886  64.3639885
 110.6473168  83.4685980  62.9795149 109.5699621  83.5007034  62.8171063
 111.3539797  83.3897879  61.6489498 112.4314374  83.3571780  61.8105732
 111.0386788  82.4890521  61.1222991 111.1031196  84.2661122  61.0512675
 110.7130503  82.2268873  63.8844761 111.7402789  82.1100802  64.2298140
 110.0591904  82.3933148  64.7405535 110.2849855  80.9860615  63.1636170
 110.9387150  80.8187101  62.3076198 110.3465922  80.1330770  63.8394286
 109.2576266  81.1019459  62.8183572 111.5509606  85.8603968  63.0318625
 112.7174613  85.7955549  62.6882498 110.7106842  86.8691468  62.7900256
 109.7248874  86.8415215  63.0080640 111.2370051  88.0508727  62.1193877
 111.7121789  87.8454645  61.1601606 109.9250216  88.8658939  61.8634273
 110.2472012  89.6852455  61.2208057 109.2989060  88.1809666  61.2916285
 109.1416907  89.4139292  63.0151668 108.1617956  89.6059824  62.5781062
 109.0333054  88.7454279  63.8692498 109.7742240  90.7615793  63.4864278
 110.5719889  90.7105404  64.4592259 109.3010173  91.8056547  62.9319234
 112.2882516  88.8058800  62.9334078 113.0473424  89.4820035  62.3095390
 112.4352491  88.5833751  64.2291845 111.7065419  88.1062972  64.7405374
 113.5682029  89.1160490  64.9757600 113.6205047  90.1951567  64.8312251
 113.4380108  88.8344830  66.4448766 114.2307581  89.3391499  66.9971105
 112.4687080  89.1745744  66.8094172 113.5458632  87.4696997  66.6290464
 113.4653733  87.2655867  67.5636368 115.0131644  88.6764362  64.5090888
 116.0389536  89.3934191  64.6533597 115.0989400  87.4980816  63.7625508
 114.2888584  86.8951096  63.7796348 116.3419240  86.9664090  63.2320039
 117.0862467  86.8941965  64.0250160 116.1084091  85.5717408  62.6530458
 115.7198395  84.8397966  63.3611210 115.3991279  85.6971526  61.8349430
 117.3808334  84.9607547  62.0424262 118.3122736  84.3722869  62.8959804
 118.1625982  84.3500578  63.9754261 119.4640609  83.7997360  62.3355149
 120.2302292  83.3621375  62.9755105 119.6287397  83.7926796  60.9199867
 120.4879397  83.3095642  60.4547181 118.6733507  84.4140078  60.1329054
 118.8875622  84.4944890  59.0671961 117.4922880  84.9201732  60.6402116
 116.7096867  85.2609508  59.9623431 117.0570130  87.9618539  62.4215805
 118.2878126  87.9470487  62.4167774 116.3290778  88.7554329  61.6649029
 115.3479155  88.7017088  61.8984269 116.7220007  89.5540665  60.5103061
 117.3649224  88.9643074  59.8569033 115.4971979  89.9946449  59.7193942
 114.9415944  90.7098817  60.3258926 115.8386787  90.4815707  58.8059424
 114.5582727  88.7772093  59.3481043 114.3502186  88.1574289  60.2202778
 113.2323191  89.4064240  58.8311520 113.4395162  90.0260190  57.9586440
 112.5363706  88.6138277  58.5562927 112.7909321  90.0208119  59.6158847
 115.1430763  87.8678124  58.2741708 116.0903208  87.4560178  58.6223842
 114.4476178  87.0541880  58.0681269 115.3101731  88.4418504  57.3627664
 117.6365559  90.7381569  60.8820489 118.0033950  91.5151874  59.9504182
 117.7979243  91.0098608  62.1992517 117.1428725  90.5500049  62.8153191
 118.7288785  91.9997047  62.7795571 119.5341773  92.1913343  62.0704230
 118.0234058  93.3335011  63.0961016 117.4458851  93.5889863  62.2076781
 117.3449886  93.1469830  63.9286045 118.9524894  94.4895132  63.4474843
 120.1091971  94.4415157  63.0244401 118.4845508  95.4283774  64.1650089
 119.5570833  91.5393140  64.0325668 119.1757218  91.8609231  65.1285417
 120.6717233  90.8006333  63.8874203 120.8632866  90.5570652  62.9261309
 121.5903596  90.3857787  64.8803751 121.6132648  91.1043648  65.6996483
 121.2569193  88.9883439  65.4331838 121.3122615  88.3006019  64.5893541
 122.1938960  88.4802326  66.5835514 122.1387295  89.1672650  67.4279705
 121.8741837  87.4879252  66.9016878 123.2209351  88.4318501  66.2216826
 119.7608037  88.8526076  65.9909468 119.7189066  89.4463949  66.9040525
 119.1111599  89.2987285  65.2379271 119.2758022  87.3769464  66.2986456
 119.9247312  86.9303047  67.0519731 118.2513667  87.4006832  66.6702200
 119.3169868  86.7826375  65.3858475 122.9206970  90.2983595  64.2339261
 123.0446080  89.7015972  63.1730935 123.9262378  90.8842988  64.8327766
 123.6797070  91.3963761  65.6677009 125.3539734  90.8871641  64.3963950
 125.5047166  91.5558720  63.5489250 126.1899610  91.3807987  65.5562647
 126.2565095  90.5627093  66.2734817 127.1827820  91.6010306  65.1639580
 125.6688895  92.5356560  66.2019991 126.2497037  92.7883711  66.9233796
 125.8742838  89.5343963  63.9562059 125.6941202  88.5217747  64.6348956
 126.6570440  89.4604233  62.8415408 126.8362759  90.2919231  62.2969461
 127.0731828  88.2160312  62.3199943 126.2149396  87.5518359  62.2181988
 127.7281938  88.4061796  60.9115163 128.4883669  89.1825729  60.9978274
 128.2012373  87.4646852  60.6323780 126.6953905  88.8109776  59.8201199
 126.1792106  89.7096377  60.1578611 127.2400870  89.0290248  58.9014997
 125.6445999  87.6746409  59.5484196 126.1608097  86.7974926  59.1582435
 125.1479805  87.4171035  60.4839105 124.6334052  88.0910045  58.5812460
 123.8770449  88.6839421  58.8917995 124.6029089  87.6265750  57.3476755
 125.4143262  86.7028130  56.8291742 126.1375857  86.2916278  57.4018194
 125.3015169  86.4190312  55.8664481 123.8215309  88.1420752  56.4938740
 123.2221348  88.9098073  56.7611042 123.8018081  87.7827942  55.5501438
 127.9354992  87.3397841  63.2208025 127.5667098  86.1895156  63.4431824
 128.9165363  87.9439037  63.9545012 129.5095596  89.2556208  63.7787098
 128.9697430  89.9751330  64.3943400 129.4307524  89.5437788  62.7304477
 131.0158877  89.0653066  64.2425171 131.4907666  89.9679364  64.6270277
 131.6641603  88.6032962  63.4979432 130.6912851  88.0846337  65.3658242
 130.2802084  88.6110802  66.2272005 131.5973926  87.5561651  65.6621175
 129.6890701  87.1180402  64.8377712 130.0751596  86.3123478  64.2133571
 128.9902870  86.5319216  66.0377651 129.4529013  85.4697658  66.4862181
 127.8762386  87.1366101  66.5503877 127.8376095  88.1129066  66.2945513
 126.8074969  86.5939177  67.4814136 127.2946004  85.9507741  68.2143499
 126.0218297  87.6723056  68.2241509 125.6008448  88.3591957  67.4899487
 125.2141743  87.1916056  68.7761656 126.9394280  88.4723322  69.2262466
 127.2153486  87.8680412  70.0904231 127.8416849  88.8421975  68.7391796
 126.0982093  89.6387585  69.6772353 125.8881419  90.2782883  68.8199300
 125.1610023  89.2635000  70.0882384 126.8479160  90.4585902  70.7630100
 126.8698052  89.8770858  71.6846792 127.8677898  90.6366616  70.4220597
 126.1606186  91.7891536  71.0202147 125.2157037  91.6243636  71.3365687
 126.6687300  92.2991319  71.7286249 126.1406110  92.3283204  70.1664010
 125.8145956  85.6390969  66.7293323 125.7120891  84.5106001  67.1554606
 125.1281799  86.0317271  65.5754657 125.2517350  87.0026844  65.3263164
 124.2391059  85.2059397  64.7436896 123.3210906  84.9155854  65.2546118
 123.8726336  86.1480336  63.5588427 123.3102964  86.9860935  63.9705851
 124.8066420  86.5128371  63.1314707 123.0458656  85.4666343  62.4688186
 123.6009710  84.5595052  62.2299133 122.1099732  85.2004912  62.9601182
 122.6825730  86.3574172  60.9450705 121.2498391  87.3199009  61.5623456
 121.5643240  87.9450231  62.3980611 120.8637282  87.9513086  60.7621310
 120.4683016  86.6365067  61.8944191 124.8408506  83.8732935  64.2427998
 124.0743696  82.9098137  64.2063643 126.1612383  83.7743367  63.9271150
 126.7173277  84.6169776  63.8984761 126.7570761  82.5400349  63.4491052
 126.0831554  82.0790610  62.7270020 128.1341951  82.7761806  62.7637815
 128.3417172  81.8735054  62.1891413 127.9900918  83.6148092  62.0825794
 129.3601432  83.0828590  63.7298362 129.0943552  83.8507542  64.4563310
 129.5838547  82.1521020  64.2511295 130.6127898  83.5347727  62.9770385
 130.5884892  83.6697224  61.7575869 131.6367207  83.8009649  63.7329672
 132.5038082  84.1060648  63.3144284 131.5601676  83.7013830  64.7351271
 126.7790623  81.4935812  64.5632956 126.8227891  80.2934493  64.3226268
 126.9952987  81.9727380  65.8047236 127.2759289  82.9333789  65.9407931
 126.9705173  81.0774896  66.9790784 127.3179829  80.0832943  66.6981109
 127.8920997  81.6270567  68.0793738 128.8766333  81.7512823  67.6284185
 127.4956790  82.6029533  68.3596889 128.0077965  80.7620645  69.3052693
 128.2291090  79.7303720  69.0318973 128.9115492  81.2386231  69.6850352
 126.9319277  80.7816617  70.3841484 127.1029725  80.1669944  71.4443483
 125.9638881  81.6024942  70.2533232 125.5358960  80.8210113  67.4649677
 125.1858485  79.7708558  67.9722320 124.5553953  81.6684617  67.1837789
 124.8467488  82.5805449  66.8623497 123.0965161  81.4170775  67.3709248
 122.9493759  81.1208056  68.4095161 122.1182939  82.5996133  67.0433940
 122.4393019  83.0293366  66.0945047 120.6055934  82.1714813  66.9406029
 120.2837116  81.7420608  67.8893343 119.9949663  83.0449519  66.7119457
 120.4900441  81.4308017  66.1493105 122.2129245  83.6495036  68.0765738
 123.2324694  84.0333055  68.1129929 121.5279186  84.4618230  67.8336671
 121.9483689  83.2297903  69.0471159 122.6799774  80.1949229  66.5296932
 122.0218240  79.3567741  67.1272287 123.0466987  80.1380939  65.2667118
 123.4403074  80.9705199  64.8516955 122.7683404  78.9957751  64.3980679
 122.1276458  78.2172007  64.8121109 122.1145914  79.5326599  63.0748098
 121.7852606  78.6716162  62.4932221 120.9110147  80.4691451  63.3357647
 121.2396818  81.3307155  63.9169492 120.5009125  80.8082688  62.3844962
 120.1433008  79.9291598  63.8899604 123.1293733  80.2106484  62.1050890
 123.8959943  79.4905483  61.8189946 122.6056462  80.5563601  61.2138579
 123.5970919  81.0598035  62.6033618 123.9646990  78.0273801  64.1217939
 124.1393967  77.4879712  62.9729198 124.6992406  77.7356101  65.2205141
 124.5570518  78.2460955  66.0803317 125.8223712  76.7954869  65.1477404
 126.4192851  77.1496129  64.3072716 126.6868965  76.8788967  66.4432684
 126.1057527  76.5190048  67.2922972 127.5781822  76.2624438  66.3262395
 126.9817775  77.9136141  66.6179233 125.4031386  75.3207458  64.8095046
 124.2924219  74.9233795  65.1664508 126.3584129  74.5518711  64.2899734
 127.1945900  74.9099722  63.8510306 126.0817276  73.1547150  64.1812803
 126.7943121  72.6836761  63.5041947 126.2011103  72.4861125  65.5649968
 127.1352569  72.8918554  65.9533810 125.3881348  72.7277884  66.2496600
 126.3246921  71.0139707  65.4785382 126.7343854  70.4705428  64.4639434
 125.8517062  70.2627549  66.4697966 125.9315303  69.2571658  66.4196122
 125.4150466  70.7016017  67.2678208 124.7297627  72.7737009  63.4365601
 123.9221333  72.1688872  64.0802006 124.4658889  73.1100574  62.1764030
 125.2232114  73.4870536  61.6246460 123.1278383  73.0719396  61.5840985
 122.5823752  72.2037770  61.9540483 122.3187602  74.3817592  61.9704859
 122.5428083  74.6711046  62.9972190 122.6573959  75.1638924  61.2910055
 120.7903377  74.1861230  61.8113344 120.6238321  73.7950244  60.8076320
 120.1605810  73.2436502  62.8357237 120.3262855  73.6343524  63.8397121
 119.0895356  73.1662355  62.6487223 120.6159922  72.2570108  62.7506137
 120.1215751  75.5448880  62.0223425 120.4917337  76.2518315  61.2798380
 119.0418879  75.4394052  61.9162750 120.3536930  75.9134126  63.0215471
 123.1735717  72.8544386  60.0692019 124.0815073  73.1510791  59.3844155
 122.1740235  72.1869922  59.4729371 121.3998276  72.0219543  60.1002189
 122.0631140  71.7129833  58.0978499 122.7253514  72.2424989  57.4129017
 122.5054154  70.2417939  58.1702180 121.8538801  69.8090043  58.9293585
 122.2401983  69.8397070  57.1924215 123.9893007  69.8846636  58.4939407
 124.3123635  70.5861619  59.2631165 124.1329036  68.8644812  58.8499017
 124.7972537  70.0804311  57.3273680 124.6088810  69.3208777  56.3534663
 125.7953138  70.9771400  57.2844955 126.3399218  71.0820491  56.4403997
 125.9970842  71.5428183  58.0965289 120.6002779  71.8167397  57.5912268
 119.6875566  71.8143959  58.3637883 120.4363247  71.8016504  56.2803669
 121.2351975  72.1754638  55.7882641 119.2009131  71.5474594  55.5165089
 118.6341862  70.7651914  56.0214611 118.3030629  72.8054617  55.3879308
 117.3267404  72.4563323  55.0517729 118.1922201  73.3394808  56.3316667
 118.9075917  73.7610096  54.3197969 119.8687510  74.7295047  54.6753627
 120.1828740  74.7735113  55.7181904 120.4336283  75.6432217  53.7128504
 121.2252850  76.3269390  54.0193016 119.9441916  75.6782659  52.3902811
 120.3294744  76.6287961  51.5510556 120.9477235  77.2487690  51.9447577
 119.0594352  74.6406331  51.9983344 118.8192457  74.5104945  50.9431219
 118.4748279  73.7550625  52.9911535 117.6800474  73.0657670  52.7060291
 119.5495389  70.7982980  54.2227627 120.7298785  70.7138904  53.8765680
 118.5618580  70.1504425  53.5590785 117.7970811  70.0487241  54.2108983
 118.5505771  69.3281235  52.3329786 119.1515494  68.4239343  52.4297947
 117.0743696  68.9212575  52.1472838 116.6859459  68.5231454  53.0846915
 116.6214472  69.8929589  51.9504139 116.7375644  67.9667732  51.0137491
 115.5672828  67.6913316  50.6751786 117.7158720  67.5419796  50.3391317
 119.4800055  69.7986328  51.1325434 119.4695899  70.9594495  50.7280721
 120.2094103  68.8557280  50.5081482 120.3479854  68.0085621  51.0403195
 121.0146772  69.0595356  49.3142782 120.6488482  69.9406417  48.7870968
 122.4691483  69.2621371  49.6369860 122.4535069  69.9775298  50.4592195
 122.8776549  68.3145833  49.9882184 123.3620465  69.8173448  48.4808082
 124.4696452  69.2843286  48.2568800 122.9629527  70.8231852  47.8471938
 120.7232449  68.0606349  48.1512904 121.4079166  68.1066542  47.0934889
 119.7823487  67.1041280  48.3092172 119.4056048  66.9534276  49.2341241
 119.2697835  66.2577585  47.1885908 118.1839411  66.2340227  47.2806892
 119.5443339  66.7601783  46.2610695 119.7939776  64.8328196  47.1526655
 121.0234532  64.6612070  47.2294754 118.8943791  63.8541914  47.0694405
 117.9252700  64.1157227  47.1813706 119.2378006  62.3853925  47.0182001
 118.3286786  61.7842601  47.0335671 120.0173718  62.0770048  45.7018979
 120.8439351  62.7875017  45.7111962 120.4036642  61.0690224  45.8530593
 119.3644165  62.1433287  44.4788887 119.9805511  61.9273744  43.7750836
 119.9107349  61.9481031  48.3162257 120.6099052  60.9370768  48.3534901
 119.6208958  62.6337071  49.4008701 119.0941238  63.4942942  49.3561432
 120.0726389  62.1454506  50.7454338 119.2052623  62.1924875  51.4038748
 120.3743636  61.1060040  50.6165448 121.2256945  62.9232079  51.3843244
 121.6631006  62.7123950  52.5434551 121.7604455  63.8256253  50.5256713
 121.5383569  63.7025633  49.5481072 122.6978690  64.8643699  50.8901600
 123.4502803  64.4762295  51.5766900 123.4104329  65.3745037  49.6109297
 122.6718177  65.4780720  48.8160584 123.8552896  66.3469950  49.8217928
 124.5009489  64.4014922  49.1683458 125.4404159  64.8254321  49.5229971
 124.3010805  63.4694048  49.6968983 124.6316827  64.0657379  47.4067548
 123.5938023  62.5670861  47.3517896 122.5885976  62.8077542  47.6978265
 123.5458439  62.1950482  46.3283696 124.0257850  61.8014963  47.9962773
 122.1057137  66.0434559  51.6939959 120.9491244  66.3718889  51.5673665
 122.9389325  66.6620496  52.5365856 123.7609704  66.1464297  52.8167446
 122.6443088  67.9746543  53.2300916 121.7819158  68.4578373  52.7708402
 122.3306991  67.7171068  54.7169313 123.2178848  67.2655290  55.1608664
 122.1459878  68.6860123  55.1808319 121.0755418  66.7666056  54.9559808
 120.2534432  67.1326519  54.3409483 121.3483224  65.7610110  54.6358678
 120.6322537  66.7335131  56.4477648 121.5528037  66.7181310  57.0312457
 120.1073414  67.6726061  56.6228959 119.7087667  65.5227564  56.8866736
 119.0176788  65.8509915  57.6630496 119.1439577  65.1616643  56.0271956
 120.5712505  64.4141718  57.4203956 121.0943778  64.7484375  58.2170788
 119.9876775  63.6393614  57.7018406 121.2114121  64.1095861  56.7010072
 123.7205453  69.0395060  52.9904922 124.7863082  68.7531574  52.5008088
 123.4836497  70.2624127  53.4407418 122.5869075  70.3176747  53.9021514
 124.2497355  71.5222561  53.2335577 125.3138815  71.2863577  53.2268973
 123.8927932  72.2264868  51.9088421 124.6766307  72.9573288  51.7099253
 123.8982797  71.4667604  51.1272504 122.5160253  72.9381390  51.9274484
 121.7647017  72.2204645  52.2569282 122.5669224  73.7624646  52.6387844
 122.1267642  73.4891314  50.5202252 122.1906238  72.7065705  49.7641700
 121.1186059  73.9034180  50.5293282 123.0970426  74.5868729  50.1625574
 124.0682628  74.4444395  50.4003461 122.7694709  75.6600523  49.4570053
 121.6057950  75.8274792  48.8281112 120.9024516  75.1040068  48.8727848
 121.4329649  76.6770120  48.3099188 123.6507110  76.6197822  49.5323675
 124.4822965  76.4948642  50.0917966 123.4969672  77.4829162  49.0309083
 124.0839540  72.4346372  54.5284087 123.0587752  72.4673613  55.1900443
 125.0894716  73.2278487  54.8578018 125.8960104  73.2103327  54.2501114
 125.1801678  73.9625670  56.0889339 124.6953125  73.3820578  56.8738057
 126.6136916  74.2486721  56.5109059 126.6165193  74.3611384  57.5950842
 127.2126297  73.3809005  56.2345987 127.2143285  75.5191149  55.8587192
 127.1622976  75.2318864  54.8085319 126.6156993  76.4156726  56.0197362
 128.6659482  75.8021402  56.2371934 129.1108499  76.9166269  56.0207799
 129.4681337  74.8776866  56.6128556 124.3141230  75.2078864  56.0623292
 124.1202349  75.8525732  55.0491932 123.5567784  75.4293760  57.1446385
 123.7513436  74.8470578  57.9466044 122.3993409  76.3358660  57.2051304
 122.0259675  76.5327655  56.2001815 121.2820359  75.8053880  58.0319572
 121.6381958  75.6118833  59.0437903 120.4747661  76.5370378  58.0651892
 120.9133921  74.8780370  57.5935269 122.9912674  77.6382775  57.6497350
 122.8529618  78.1048848  58.8036614 123.8797181  78.1884000  56.8359011
 124.1711628  77.7166540  55.9917358 124.5796957  79.3541638  57.2289659
 124.9245259  79.2423305  58.2569176 125.7743024  79.6744153  56.3486949
 126.4506253  78.8228169  56.4226391 125.4405415  79.9490354  54.8351559
 124.7645822  80.8008492  54.7603765 126.3608319  80.1675119  54.2934615
 124.9647551  79.0691853  54.4020373 126.5413558  80.8148041  56.7583112
 127.2725387  80.9439603  56.1497962 123.6804388  80.5699413  57.4155212
 122.6384394  80.6003383  56.7777043 124.1321401  81.5950302  58.1678108
 124.9383237  81.3556085  58.7271360 123.5763502  82.9075033  58.3049050
 122.6980420  82.8933493  58.9502527 124.6566624  83.7399093  58.9736439
 125.5395202  83.7710266  58.3351348 124.2885042  84.7533459  59.1333498
 124.9183034  83.2935434  59.9330191 123.1218303  83.4888117  56.9827832
 121.9764753  83.9569006  57.0319833 123.9821682  83.4809659  55.9179869
 124.9470298  83.2204728  56.0638803 123.5940622  84.0137064  54.6002653
 123.4068655  85.0843332  54.6828176 124.6844657  83.7914082  53.5768212
 124.9619534  82.7376887  53.6046591 124.2160507  84.0180588  52.6190545
 125.9545731  84.6650040  53.7504690 127.0980364  84.2085761  53.4555974
 125.7997899  85.8702429  54.1608386 122.1865735  83.4830372  54.1505526
 121.2544526  84.2710742  54.0037492 122.0834830  82.1738709  53.9635420
 122.9258154  81.7081582  54.2696258 120.9656231  81.3415631  53.4498972
 120.8009075  81.6504908  52.4176512 121.1498229  79.8573662  53.4810784
 121.5740029  79.6443752  54.4623049 120.2089019  79.3188853  53.3679145
 122.1509062  79.3972131  52.3692209 122.5919129  80.1287216  51.4674385
 122.4259313  78.2188466  52.3791521 119.6749212  81.5062792  54.2606117
 118.5350650  81.6466460  53.7932521 119.8686821  81.6134820  55.5824080
 120.8205408  81.4925651  55.8977547 118.7993600  81.8668480  56.6162619
 117.9454951  81.2120262  56.4424162 119.3439563  81.5907208  57.9858143
 120.3049237  82.0626925  58.1904689 118.5834289  82.0178763  58.6394474
 119.4478626  80.1180844  58.2372234 120.0658868  79.6084192  57.4980426
 120.1302936  80.0515038  59.6054398 119.5125956  80.5605948  60.3452873
 120.2604773  79.0092572  59.8967729 121.1045453  80.5371728  59.5501253
 118.1636758  79.3548661  58.4487517 117.5329436  79.4519464  57.5650936
 118.3898353  78.3023018  58.6192260 117.6391762  79.7581842  59.3149697
 118.2546003  83.3186479  56.5870601 117.0043481  83.5016281  56.5052388
 119.1680958  84.2742917  56.4743269 120.1384056  84.0724516  56.6689006
 118.7850028  85.6878431  56.1700143 118.0971113  86.1021619  56.9070655
 120.0032760  86.6510357  55.9957374 120.8769304  86.0269380  55.8077734
 119.8499716  87.6739586  54.8575720 118.9767294  88.2987689  55.0450843
 120.7406423  88.3004125  54.8089724 119.7237345  87.1487085  53.9108537
 120.3497552  87.3342052  57.2986525 120.7071741  86.5308264  57.9428070
 121.1794857  87.9955756  57.0491814 119.2534955  88.1386862  58.0378751
 118.4235776  87.4778362  58.2881018 119.6678654  88.5630106  58.9523945
 118.8958875  88.9425845  57.3944748 117.8596884  85.7043768  54.9036408
 116.9327788  86.5400984  54.8320240 118.0874870  84.8751636  53.9236596
 118.8895443  84.2751424  54.0531898 117.4285821  84.8648677  52.6478962
 117.1991988  85.8815423  52.3287485 118.3707620  84.2125171  51.5927087
 119.3484087  84.6919272  51.6424296 118.4755579  83.1507622  51.8158555
 117.7853229  84.3845693  50.1751640 116.8740042  83.7967405  50.0653624
 117.5660953  85.4339814  49.9782490 118.9086570  83.8530378  49.1099314
 119.7281634  84.5686585  49.0436356 119.2967058  82.8855460  49.4284865
 118.2332896  83.7070684  47.7143903 119.0590825  83.4565559  47.0484998
 117.5825868  82.8399569  47.8275395 117.4734906  84.8131823  47.1498342
 118.0763711  85.6166377  47.0445052 117.1090296  84.5450450  46.2468555
 116.7079896  85.0451895  47.7665027 116.1037830  84.2885965  52.7646223
 115.1121810  85.0283318  52.5070175 115.9984574  83.0410811  53.2936418
 116.8504857  82.5678911  53.5586670 114.7331682  82.2754795  53.3220412
 114.2740962  82.5463317  52.3712567 114.9130912  80.6987577  53.3676041
 115.6344349  80.4398266  52.5925446 115.3751498  80.1716321  54.6642430
 114.6540366  80.4297871  55.4397768 115.4699378  79.0874707  54.6033352
 116.3436515  80.6072806  54.9098373 113.5787596  80.0099741  53.2347082
 113.1197666  80.2859834  52.2853682 113.7218897  78.9299276  53.2680708
 112.9284498  80.3152761  54.0544574 113.8489484  82.8276610  54.4287335
 112.6547876  83.0289343  54.2231055 114.4156824  83.3773768  55.5849451
 115.3808650  83.1616114  55.7898042 113.5925192  83.9858909  56.6504947
 112.6971505  83.3642827  56.6463462 114.1729661  83.9949553  58.0607713
 115.0705047  84.6116129  58.0132622 113.2499253  84.5198212  59.1698690
 112.3523145  83.9033388  59.2182970 113.7706154  84.4783349  60.1265619
 112.9706514  85.5509205  58.9532080 114.4360677  82.5569351  58.4995507
 115.1440869  82.0911332  57.8141023 114.8513756  82.5542275  59.5073263
 113.5008971  81.9970387  58.4910145 112.9638064  85.3152836  56.3041677
 111.9338673  85.6954113  56.8139544 113.5540608  86.0495686  55.3532386
 114.5501595  85.9374429  55.2294868 112.8823715  87.1096141  54.6166117
 112.3647067  87.7863636  55.2964148 113.9876656  87.9420612  53.8085822
 114.8375667  88.0889054  54.4750685 114.2951320  87.3354009  52.9568030
 113.4794848  89.3238792  53.3043546 114.1366605  89.6344544  52.4920960
 112.4698952  89.1801292  52.9194337 113.4620298  90.4570613  54.4410153
 114.6466488  90.8675157  54.7187006 112.4360479  90.9163074  55.0184823
 111.7286742  86.7118054  53.7543120 110.6049069  87.1548019  54.0074983
 111.9349826  85.7983945  52.7979511 112.9105753  85.6255044  52.6019225
 110.9285344  85.1077409  51.9830911 110.4992649  85.7999478  51.2587456
 111.5654091  83.9444655  51.2278680 112.0788332  83.2961899  51.9379622
 110.7847040  83.3789559  50.7191456 112.5610506  84.4641051  50.2059911
 113.2550987  85.1875102  50.6338732 113.0944532  83.5418300  49.9757965
 111.9765857  85.0161999  48.9680229 110.7968165  85.4054851  48.8993305
 112.6270571  85.2523406  48.0077570 109.7756020  84.6421415  52.8124578
 108.6269438  84.9843626  52.4960497 110.0042776  83.9069659  53.8662212
 110.9525269  83.5848764  53.9972969 108.9905760  83.4713506  54.8145404
 108.2855708  82.7542907  54.3939553 109.8163747  82.7661930  55.9098245
 110.3384781  81.9769557  55.3688885 110.5445627  83.4495242  56.3467462
 108.9514187  82.1345360  57.0433366 108.2029015  82.8379671  57.4080386
 108.2669974  80.9524741  56.4264831 109.0149216  80.2483328  56.0619378
 107.6418116  80.4633265  57.1734624 107.6457858  81.2848511  55.5947848
 109.9431487  81.8514691  58.2036063 110.4033386  82.7858213  58.5250261
 109.4061754  81.4048172  59.0404234 110.7172644  81.1647318  57.8612090
 108.1221439  84.6583024  55.3367130 106.9097462  84.5663742  55.4042485
 108.7661996  85.7034167  55.9066518 109.7750392  85.6708763  55.8708307
 108.1317666  86.7975873  56.6490470 107.1530495  86.5358422  57.0511682
 108.9995311  87.2897879  57.7770862 108.4801383  88.1233572  58.2498375
 109.2973909  86.2331703  58.8098125 109.8172288  85.3994232  58.3378654
 109.9265964  86.6566722  59.5926571 108.3640620  85.8781912  59.2468338
 110.2621490  87.8970854  57.3936845 110.7357453  88.1749497  58.1811477
 107.6914597  88.0024015  55.7801884 106.9297615  88.8934224  56.2300091
 107.9167874  87.9744705  54.4749369 108.4997121  87.1915003  54.2155996
 107.6466025  89.0345099  53.4433892 107.2231640  89.9223099  53.9130808
 108.9774967  89.4271790  52.7510182 109.7194824  89.5816624  53.5344027
 109.2798581  88.5873468  52.1254310 108.8706804  90.7020480  51.8846671
 108.2347176  90.5028380  51.0221315 108.4372200  91.5081875  52.4765736
 110.2706332  91.1155862  51.4039027 110.2061426  92.1046918  50.9504603
 110.9383098  91.1538823  52.2646238 110.8292331  90.1787502  50.4148778
 110.1606870  89.5172901  50.0466171 112.0092684  90.2240541  49.8850644
 113.0353264  90.8811739  50.3503919 112.9438790  91.4177977  51.2011400
 113.9165206  90.8503311  49.8578016 112.3028296  89.4534632  48.8927260
 111.6090673  88.8149119  48.5307231 113.2250006  89.4924450  48.4826287
 106.4286752  88.6259387  52.5763271 106.5756885  88.1532046  51.4376531
 105.2920673  88.7166522  53.2272492 105.4378795  88.8911622  54.2113145
 103.9896047  88.5543592  52.7732379 103.8855811  87.6578111  52.1621080
 102.8739007  88.5665666  53.8781852 102.8567504  89.5643920  54.3165351
 101.5210631  88.2317715  53.3540711 101.5373094  87.2338311  52.9159481
 100.7981526  88.2583274  54.1694213 101.2359557  88.9577147  52.5926123
 103.2567924  87.6705360  55.0986490 104.1525540  88.1317321  55.5145938
 102.4305468  87.7850325  55.8002957 103.5159080  86.1827350  54.8549601
 104.3423852  86.0674268  54.1537188 103.7698535  85.6984195  55.7978543
 102.6203780  85.7207275  54.4394183 103.6979667  89.6645458  51.7358586
 103.2072681  89.2885479  50.6494879 103.8938624  90.9656471  52.0282596
 104.1646618  91.1690992  52.9797711 103.6192734  92.1199753  51.1021406
 102.8255590  91.8326452  50.4125334 103.1819024  93.3998345  51.8538268
 103.9881868  93.9798259  52.3028419 102.6419626  94.0215083  51.1396233
 102.2284731  93.0818751  52.9458623 101.0696762  92.2790458  52.8039017
 100.4711886  92.1701777  54.0109557  99.5879946  91.5525045  54.1738888
 101.1972098  92.9613816  54.8807548 100.9924942  93.0767605  55.8630374
 102.2357686  93.5667850  54.2159194 102.8700609  94.2853564  54.7349855
 104.8059192  92.3842870  50.1902410 105.9096584  92.6575244  50.7647696
 104.6597838  92.3271958  48.9868071  56.2764009  50.0273768  88.0730283
  55.2973439  50.5192652  87.1535115  56.1487119  51.2661833  85.8041980
  57.0724833  52.2688531  86.0458769  57.7923373  52.7960277  84.9871970
  55.9411897  50.7941764  84.5181164  56.6710874  51.3343142  83.4727435
  57.6040676  52.3366233  83.6909902  58.4631703  52.8472678  82.5600709
  59.5935538  51.9665984  82.2979572  59.6797240  51.2267350  81.1897145
  60.8662608  50.3212034  81.0676246  61.8917283  50.3361918  82.0068380
  62.9403936  49.4370509  81.9226905  60.9221886  49.3834385  80.0409319
  61.9725539  48.4853833  79.9603803  63.0020539  48.4910118  80.8999569
  64.0821077  47.4714197  80.8654205  64.1131386  46.4827055  79.8814514
  65.0779218  45.4893833  79.8929211  66.0457772  45.4517431  80.8919432
  67.0500163  44.3699270  80.9601409  67.7271815  44.2880166  82.0468235
  68.3523731  42.9978739  82.3754575  69.0508171  43.0932017  83.7350554
  68.9210002  44.4503896  84.3644438  69.7010685  45.3384995  83.7559260
  69.6567344  46.6862870  84.2787764  68.2055735  44.7179325  85.2926234
  67.2783992  41.9148074  82.3628147  66.8287155  41.1921962  83.3644547
  65.8937705  40.3003320  82.8479462  65.8041147  40.5062765  81.5570354
  64.9227997  39.7654229  80.6197555  66.6624496  41.5238774  81.1919441
  66.9451696  42.1487876  79.9722590  67.1578463  43.4820171  79.8435279
  67.4977361  43.8247076  78.4859672  67.8168165  45.2123130  78.0154942
  67.5202024  42.7395157  77.6658721  67.8313536  42.6706087  76.2019976
  67.1345643  41.2803517  78.5069844  66.0232395  46.4367711  81.8738443
  65.0586764  47.4279003  81.8584833  58.8319279  51.2747179  80.3026691
  54.5100842  51.7113395  87.9472182  53.1544280  52.1320638  87.8056330
  52.2183247  51.3826448  87.0962256  50.9189643  51.8354690  86.9530970
  50.4905495  53.0400843  87.4999634  49.0737870  53.5052409  87.2820842
  51.4188986  53.8022097  88.2264418  52.7394447  53.3424515  88.3741621
  53.4281638  54.2621452  89.1257541  52.5865220  55.2959364  89.4618135
  51.3403616  55.0570082  88.9297949  50.2042405  55.9262380  89.0654285
  49.2706029  56.5840790  89.1430169  54.3233000  49.6191747  86.6168136
  57.2260695  52.6109340  86.9503552  58.4434727  53.5040584  85.1672366
  55.2883250  50.0869938  84.3405849  56.5219620  50.9979071  82.5658341
  57.9314348  52.9212339  81.7410151  58.7968566  53.7463248  82.7568730
  60.2332601  51.9351706  82.9043540  61.8930258  50.9821752  82.7422323
  63.6477795  49.4727474  82.5989071  60.2157172  49.3530366  79.3643531
  61.9803496  47.8398879  79.2247113  63.4457777  46.4819305  79.1652037
  65.0647420  44.8124664  79.1861088  69.0131191  42.7920037  81.6833721
  70.0071054  42.9005330  83.6756805  68.7005055  42.4343603  84.3681895
  70.3386036  47.2426579  83.8490883  68.7648934  47.0734439  84.1633203
  69.8491839  46.6442181  85.2374731  64.7114831  40.3299222  79.8481858
  65.3684516  38.9645816  80.2759888  64.0746059  39.5232167  81.0418485
  68.0754105  45.2163392  77.0708493  67.0443472  45.8067662  78.0952601
  68.5457779  45.5935164  78.5455038  67.8783929  41.7396638  75.9013003
  67.1513129  43.1176313  75.6577225  68.6952023  43.0962405  76.0269146
  66.6951660  46.4339994  82.5856674  65.0763994  48.1044423  82.5657639
  54.7805525  51.7324509  88.7868337  52.4536441  50.5260670  86.6876852
  50.2895624  51.2814744  86.4484861  48.6890381  53.8883385  88.0949714
  49.0488247  54.2010909  86.5929952  48.5160648  52.7514627  87.0005059
  54.2189376  54.0993864  89.4831997  52.9221288  56.0421956  90.0002736
  94.1216084  61.9010683  73.5661788 112.0897494  96.6662083  61.2906876
  75.1445911 128.0446497  82.4941310  84.7840110  42.3885216  77.6815947
  63.9840951  96.8773438  84.1014103  79.5813510  79.6394481 101.6134622
  94.6829073 118.4524171  59.0189816  99.8251911  59.2132762  68.7912600
  57.0462186 106.5677945  56.7648260  53.0635815  79.6996326  48.0237185
  99.7233645  68.0579558  53.3349706  50.4673652  72.0530729  81.5953298
 112.0897493 119.6599960  74.5661569  84.7840107 134.3636724 104.2325331
  78.8388029 109.5295040  50.2564917  83.6013718  33.8498711  83.0524448
 117.5354836  71.5670951  46.0926127  90.5151366  94.1451622  29.9471880
  52.0427988  92.5127029  77.7451729  65.2590066  53.9212062  54.9665973
 100.3888187 127.2822219  85.3083377 132.4811577  80.2126231  51.2839800
 100.1414996  74.8484503  42.6640030  48.9002194  16.8827182  85.2732994
  79.1191730  61.6391188 154.2578104  79.3717250  61.1172709 153.4961567
  78.1816289  61.4757333 154.3604787  84.1502275  62.1301966 155.5524183
  83.6348898  62.9006570 155.7912570  83.8779583  61.4567102 156.1757244
  80.5287610  63.9799491 152.0311891  79.6214671  63.7488745 152.2303040
  81.0258642  63.1837111 152.2185873  81.4051931  65.6220830 153.8923960
  80.9671361  64.9056689 153.4329597  82.1462372  65.8496945 153.3309051
  85.5263159  64.4805212 153.4856017  84.9092329  63.7552040 153.3889070
  85.0579647  65.2414572 153.1423092  81.8774096  61.7105047 152.4739547
  82.8233201  61.5811255 152.5427965  81.4988341  60.9719708 152.9508975
  80.0617013  59.6355023 152.4094432  79.1548469  59.3388136 152.4857145
  80.3392994  59.3384841 151.5428718  82.8569826  45.3971507 142.9517826
  82.2057806  45.9825588 142.5651840  83.6514189  45.9277702 143.0112864
  79.1191731  38.6453310 140.9823411  79.3717252  38.1234832 140.2206874
  78.1816290  38.4819456 141.0850094  84.3345091  43.0861939 143.4886811
  83.6990924  43.1596566 144.2007715  84.0042498  43.6755538 142.8105890
  78.5621161  50.2642762 146.5192621  78.4845190  51.2150587 146.5981102
  77.9582804  49.9188635 147.1767548  86.4999335  37.9660594 143.6982824
  87.4117191  38.1987981 143.5230522  85.9908982  38.5497638 143.1357903
  88.9858149  43.8840850 148.4440769  88.3009187  44.2639751 147.8937803
  89.0701998  44.4936177 149.1772717  80.8359529  45.6224915 145.2398161
  80.7005204  46.4676451 145.6683009  81.3769342  45.8244193 144.4764095
  84.1502276  39.1364088 142.2769490  83.6348899  39.9068693 142.5157877
  83.8779584  38.4629224 142.9002551  89.1236550  41.8896443 144.2122663
  88.3465993  41.5507602 143.7677825  89.8028031  41.8949066 143.5377628
  80.5287611  40.9861614 138.7557198  79.6214673  40.7550867 138.9548347
  81.0258643  40.1899233 138.9431179  83.4355690  49.6959121 141.6753884
  82.7617389  49.9990818 142.2838842  83.8221512  50.4988202 141.3259341
  81.7075844  41.0874209 143.2781188  80.7987064  40.8033242 143.3753658
  81.7370928  41.5073287 142.4184495  86.9395112  44.6980798 147.0472355
  86.4857439  43.8571708 147.1037546  86.3089079  45.3342197 147.3847136
  85.3828051  46.5357295 147.9822174  85.6751025  47.0962352 147.2634539
  85.8926672  46.8285856 148.7375333  81.4051932  42.6282953 140.6169266
  80.9671362  41.9118811 140.1574904  82.1462373  42.8559067 140.0554358
  89.5225047  40.9040150 146.6745585  89.3842946  41.0941746 145.7466774
  89.1661266  41.6659532 147.1313636  81.6346905  49.8638794 143.8900963
  81.8098661  49.3926837 144.7046586  80.9479693  50.4904560 144.1182224
  85.5263160  41.4867334 140.2101324  84.9092330  40.7614162 140.1134377
  85.0579648  42.2476694 139.8668398  80.5025632  48.0579049 146.5785149
  79.7193154  48.6000729 146.6723373  81.2018377  48.5753028 146.9779390
  86.3500845  44.8106506 144.3293964  86.6260689  44.6963101 145.2387838
  85.4805344  44.4123991 144.2906137  82.9854909  49.0592857 147.9726777
  83.1677304  48.2414513 148.4354530  83.8087895  49.2760549 147.5351667
  83.3197075  47.9861042 145.2341826  83.8484841  47.4753497 144.6211988
  83.5825294  47.6703572 146.0987359  86.4137258  47.9577840 145.8496809
  86.5874136  47.3924263 145.0970661  86.9066149  48.7578735 145.6676299
  92.2676649  40.7214263 147.4687109  92.7107795  39.9721588 147.0706232
  91.3903160  40.7124400 147.0860841  87.4012431  47.2744605 142.9493707
  88.0963335  47.8951297 143.1681022  87.7435581  46.4239956 143.2246085
  89.3003854  44.7244310 144.4781038  89.8255178  45.0631583 143.7530358
  89.2126206  43.7891326 144.2944173  77.9931894  44.8858226 144.3857053
  78.1420014  45.5693690 143.7323726  78.7998337  44.8663316 144.9006509
  81.4927299  47.3806356 141.8568801  80.9201266  47.9996544 141.4039273
  82.0660093  47.9305718 142.3908723  84.7124559  47.6643507 142.9877383
  85.6455232  47.5989068 143.1910259  84.6247772  48.4999773 142.5291916
  87.3412575  46.9809377 139.9481331  87.2626207  46.6469240 140.8417088
  88.1622242  47.4731145 139.9472803  81.8774098  38.7167169 139.1984853
  82.8233202  38.5873377 139.2673271  81.4988342  37.9781831 139.6754281
  80.0617015  36.6417146 139.1339738  79.1548470  36.3450258 139.2102452
  80.3392996  36.3446964 138.2674025  84.9116527  44.2977372 139.5691309
  85.6152377  44.5027375 140.1848965  84.1879176  44.8654134 139.8340392
  86.8203225  44.7359901 141.6189769  87.6548829  44.3041100 141.4367244
  86.6587568  44.5641915 142.5466663  86.4749117  41.2392015 142.9846108
  86.4197921  41.0736286 142.0434552  85.8495172  41.9468048 143.1408298
  95.4487500  55.2529553 151.7144946  96.0865910  55.1336300 151.0108286
  95.3308343  56.2010397 151.7732898  92.2577206  55.2056981 151.6506470
  91.9195718  55.0898045 150.7627005  93.1266974  54.8048146 151.6307477
  88.1164022  57.0592457 147.6403361  87.5528887  56.9682394 146.8719649
  88.0016417  56.2392362 148.1205854  85.6628454  58.5543649 150.4787582
  86.4549746  58.2134473 150.0633881  85.9025104  58.6638624 151.3989735
  93.6963580  60.7263425 142.9517826  93.0451560  61.3117505 142.5651840
  94.4907943  61.2569620 143.0112864  87.6219208  57.8152562 143.3504961
  88.3950084  57.2681549 143.2117836  87.9744606  58.6796811 143.5619422
  90.3860457  56.5205793 153.1473220  90.9824029  56.2961815 152.4330182
  90.4435429  55.7790538 153.7498667  89.9585485  53.9745228 140.9823411
  90.2111006  53.4526749 140.2206874  89.0210045  53.8111373 141.0850094
  95.0028768  52.9781006 148.7898154  95.7891857  52.5600430 148.4388571
  95.2667473  53.8827099 148.9579802  95.1738846  58.4153857 143.4886811
  94.5384679  58.4888483 144.2007715  94.8436252  59.0047456 142.8105890
 100.4037195  52.9156240 149.6931132 101.1362367  52.3455456 149.9268962
  99.6476551  52.5277840 150.1337638  89.6781774  55.8773334 143.1847785
  89.5618032  55.2018237 143.8528870  89.7884034  55.3905708 142.3679939
  92.0213315  55.3383481 146.8894475  91.6571522  54.8114102 147.6007396
  92.8780431  54.9481950 146.7160960  91.6618802  50.3673381 141.8855823
  91.8293204  51.2353617 142.2526294  91.4715971  50.5300663 140.9617112
  94.4194135  58.8290360 153.5521654  94.1194858  59.7315399 153.4437461
  94.0745195  58.5622543 154.4042806  87.8706617  55.2804157 149.5858358
  86.9457113  55.1480371 149.7936050  88.1191030  56.0598376 150.0828300
  97.8191279  51.3472900 151.2319091  96.9108156  51.2788308 150.9377852
  97.7678875  51.8244845 152.0600916  91.6408023  52.8231038 142.8702490
  91.5207648  53.2688089 143.7087970  90.9460611  53.1716356 142.3116028
  85.2315428  54.9237430 150.4202147  85.3607809  55.1771909 151.3341559
  84.5512879  55.5165138 150.1006802  89.4014915  65.5934680 146.5192621
  89.3238945  66.5442505 146.5981102  88.7976559  65.2480553 147.1767548
  97.3393089  53.2952511 143.6982824  98.2510945  53.5279898 143.5230522
  96.8302736  53.8789556 143.1357903  95.9462671  58.2778330 151.0896406
  95.3171534  58.4424044 150.3872473  95.5588334  58.6919939 151.8607370
  99.8251903  59.2132768 148.4440769  99.1402941  59.5931669 147.8937803
  99.9095753  59.8228094 149.1772717  94.6829064  49.4710547 151.9472685
  93.8213543  49.7691801 152.2389423  94.7091499  49.6880946 151.0153718
  91.4990633  58.0152738 148.3546491  91.9628979  58.2940441 147.5651113
  91.2347431  57.1136183 148.1719581  88.3914714  57.5624220 151.2926254
  88.9616071  57.9911488 150.6543738  88.9822826  57.2806804 151.9910440
  90.4359519  54.1375890 145.1636056  91.1383563  54.5896934 145.6309982
  90.1040148  53.4959709 145.7915949  84.1784853  52.3959443 150.4653189
  83.3883907  52.6516972 149.9893300  84.6696101  53.2107781 150.5705230
  86.1299599  52.7604022 147.4236666  85.3330762  52.8722717 147.9420162
  85.9025191  53.0990675 146.5577557  91.6753284  60.9516833 145.2398161
  91.5398959  61.7968369 145.6683009  92.2163096  61.1536111 144.4764095
  85.1282681  58.4692271 145.8126086  85.6407202  59.2635521 145.9631651
  85.7805394  57.7718562 145.7459688  86.9377566  61.5858027 147.8948839
  87.1144194  62.5075992 147.7069823  87.7334400  61.2716447 148.3243219
  88.0608882  63.1036201 153.8959182  88.6116307  62.9753264 153.1236176
  87.2220357  63.4031090 153.5454074  83.0931598  56.7980925 146.5885657
  83.9306820  57.2077934 146.3719364  83.2709866  55.8580368 146.5585851
  94.9896030  54.4656006 142.2769490  94.4742654  55.2360611 142.5157877
  94.7173339  53.7921142 142.9002551  92.5743141  49.3105707 147.3354728
  91.7184738  48.9212557 147.1560367  92.9870093  49.3897668 146.4754513
  94.1042288  46.8452050 151.7346288  93.6007084  46.8082185 150.9214093
  94.3972895  47.7544793 151.7942944  99.9630304  57.2188361 144.2122663
  99.1859747  56.8799520 143.7677825 100.6421785  57.2240984 143.5377628
  94.7782333  52.3383098 144.1029271  94.4732469  52.6529247 144.9539414
  95.7312776  52.4164518 144.1456604  93.2228765  58.4973321 145.7522225
  92.6950127  57.7626081 145.4395462  92.7216268  59.2747998 145.5062193
  98.2021611  56.6922342 150.8689271  97.5445286  57.3821603 150.9569400
  99.0062011  57.0818774 151.2123257  87.9547493  49.1592988 148.1128836
  88.5291245  48.9368169 147.3802029  88.5418475  49.2281682 148.8657438
  97.0127070  55.0466715 148.9193213  97.5258952  55.6796706 149.4214923
  97.6628294  54.4467910 148.5536573  88.2817080  51.1897449 142.1324722
  87.4454392  51.5272135 142.4533996  88.1421850  51.0546429 141.1951859
  90.2570161  46.0334237 146.8403906  89.6034573  45.7183254 146.2160520
  90.2150635  45.4109977 147.5663729  91.3681365  56.3153532 138.7557198
  90.4608427  56.0842785 138.9548347  91.8652397  55.5191151 138.9431179
  94.2749444  65.0251039 141.6753884  93.6011143  65.3282736 142.2838842
  94.6615266  65.8280119 141.3259341  93.4907901  52.5216170 151.1651553
  92.5730462  52.7431117 151.0073241  93.9068045  52.5962481 150.3063261
  94.2742949  53.9207586 146.2954234  95.0214768  54.4328983 145.9861356
  94.5434538  53.5991639 147.1558627  92.5469599  56.4166127 143.2781188
  91.6380818  56.1325159 143.3753658  92.5764683  56.8365205 142.4184495
  97.7788866  60.0272716 147.0472355  97.3251193  59.1863626 147.1037546
  97.1482833  60.6634114 147.3847136  96.7221786  50.9564702 148.2773023
  95.9844543  50.4442088 148.6083265  96.9748559  50.5165084 147.4656300
  96.2221806  61.8649213 147.9822174  96.5144780  62.4254270 147.2634539
  96.7320426  62.1577774 148.7375333  83.1157769  54.1371641 147.2596390
  82.9182169  53.5441001 146.5347457  82.5604433  53.8323851 147.9772329
  91.0954493  54.0294747 149.3790983  91.1503103  53.0768584 149.3033460
  90.2845695  54.1854186 149.8632282  92.2445687  57.9574870 140.6169266
  91.8065117  57.2410729 140.1574904  92.9856128  58.1850985 140.0554358
  89.0346853  52.6471807 147.1381362  88.2214718  52.9465977 147.5446554
  89.5305847  52.2527496 147.8555844  91.1855431  62.6429564 149.0715627
  91.1431610  62.8690410 148.1424159  92.1018130  62.4092938 149.2201428
 100.3618802  56.2332067 146.6745585 100.2236700  56.4233663 145.7466774
 100.0055020  56.9951450 147.1313636  89.3021232  59.5192593 148.8677590
  90.0961830  59.0242913 148.6660164  88.5912924  58.9910456 148.5045295
  85.6103995  53.6635675 144.9437342  84.6801583  53.6020130 145.1607304
  85.7061467  53.1411627 144.1473983  85.5289544  50.1890487 147.5315584
  85.7896361  51.1035821 147.4224744  86.3506716  49.7214930 147.6812197
  93.0804176  56.0670950 154.7776889  94.0096236  56.2182110 154.6045856
  92.6595206  56.1554971 153.9225535  91.8792508  60.0921615 152.5475427
  91.7403593  59.7240399 153.4201365  91.0907104  60.6069254 152.3759384
  92.4740660  65.1930711 143.8900963  92.6492415  64.7218754 144.7046586
  91.7873448  65.8196477 144.1182224  93.4297723  59.4703218 149.9364264
  93.0947555  59.4303987 150.8321914  92.9301668  58.8047933 149.4634675
  96.3656914  56.8159252 140.2101324  95.7486085  56.0906080 140.1134377
  95.8973403  57.5768612 139.8668398  88.1555460  51.0344676 139.3322628
  87.2784927  50.9133477 138.9684875  88.6313213  50.2430754 139.0801517
  79.6757600  55.8221836 149.4264135  80.3628640  55.5083566 148.8385151
  79.5205729  56.7263201 149.1531387  91.3419386  63.3870967 146.5785149
  90.5586908  63.9292647 146.6723373  92.0412131  63.9044946 146.9779390
  94.6516036  49.1965596 149.2219354  95.1484736  48.4435558 148.9020424
  93.8803018  49.2329913 148.6562564  95.7345817  57.9537283 146.7957778
  94.8002096  58.0738746 146.6262482  95.9122486  57.0509750 146.5317787
  91.2351005  51.3382979 148.9491039  90.8648793  50.7854019 149.6371944
  91.7310098  50.7341112 148.3966039  99.1218368  53.7954602 147.3307812
  99.5878821  54.6282594 147.2568114  99.5725869  53.3299584 148.0353070
  97.1894600  60.1398424 144.3293964  97.4654443  60.0255018 145.2387838
  96.3199098  59.7415909 144.2906137  96.8641490  54.3525081 153.8698607
  96.2112940  54.6000989 153.2151060  97.2421870  53.5389220 153.5361084
  93.8248664  64.3884775 147.9726777  94.0071058  63.5706431 148.4354530
  94.6481650  64.6052467 147.5351667  94.1590829  63.3152960 145.2341826
  94.6878595  62.8045414 144.6211988  94.4219049  62.9995490 146.0987359
  84.6607922  61.3316829 152.9777159  85.2461359  60.5860517 153.1105064
  84.4632760  61.6420786 153.8613823  87.5146577  64.3668076 147.9939602
  86.8456952  64.8514204 147.5103642  87.3759447  64.6137297 148.9082980
  82.8834154  52.6286531 144.7735534  83.1787595  51.7197210 144.7202588
  81.9822190  52.6074271 144.4516536  86.4128401  50.7042528 150.7563083
  85.6914987  51.3178496 150.6170556  87.2021657  51.2400293 150.6779729
  84.6121996  50.3100629 144.8974859  84.2834702  49.4298008 144.7149965
  84.9661366  50.2548298 145.7851248  93.8601575  61.9455532 149.4069845
  93.7126537  61.0172239 149.5877415  94.6855068  61.9675622 148.9226920
  87.7263819  50.5973599 145.2650337  88.0659891  51.1259520 144.5428945
  88.1735939  50.9354005 146.0408903  89.7131966  49.0948220 143.4643630
  90.4340328  49.4729473 142.9607346  89.0897270  49.8137097 143.5678608
  93.8563089  49.7993369 144.4001962  94.0726703  50.6818007 144.0990790
  93.3757156  49.4079583 143.6707604  88.5962310  52.7579083 150.9772706
  88.4506891  53.0719386 151.8696988  88.1187514  53.3763983 150.4243605
  90.4558693  49.7481631 151.0253596  90.4420262  48.8522724 150.6885894
  91.1731121  49.7552294 151.6591882  97.2531013  63.2869758 145.8496809
  97.4267890  62.7216180 145.0970661  97.7459904  64.0870653 145.6676299
  89.8595589  48.6296011 146.2941166  89.9811500  47.7012657 146.4932054
  89.5697631  48.6434697 145.3819482  92.7286779  46.3150921 149.4307886
  92.7508476  46.3790254 148.4759866  93.1454838  45.4755430 149.6248392
 103.1070404  56.0506181 147.4687109 103.5501550  55.3013506 147.0706232
 102.2296914  56.0416317 147.0860841  98.2406185  62.6036522 142.9493707
  98.9357090  63.2243215 143.1681022  98.5829335  61.7531874 143.2246085
 100.1397608  60.0536228 144.4781038 100.6648932  60.3923501 143.7530358
 100.0519961  59.1183243 144.2944173  91.8238269  66.1208211 148.8376291
  91.3843259  65.6284590 149.5309148  92.5746386  65.5781179 148.5968366
  84.3030608  62.3119752 148.8400919  85.1288628  62.0123524 148.4599563
  83.9524660  61.5427374 149.2890708  89.2712141  61.6646220 150.9098593
  88.6492150  61.0016925 150.6100821  89.9417008  61.6907352 150.2272241
  82.5039213  60.2306078 149.7989853  81.6671121  59.8028253 149.6173854
  82.4762858  60.4238522 150.7360644  88.8325648  60.2150144 144.3857053
  88.9813768  60.8985608 143.7323726  89.6392091  60.1955234 144.9006509
 102.6503268  57.5211419 149.8609556 103.4850160  57.9601223 150.0247117
 102.7862397  57.0450072 149.0417802  86.5878281  56.2415321 145.3918122
  86.3424323  55.3377651 145.5898332  86.7574196  56.2432472 144.4497600
  85.8573929  51.9743679 142.8904284  85.1643173  52.0488034 142.2344320
  85.6125680  51.2104022 143.4125801  92.3321054  62.7098274 141.8568801
  91.7595021  63.3288461 141.4039273  92.9053847  63.2597636 142.3908723
  95.5518313  62.9935424 142.9877383  96.4848986  62.9280986 143.1910259
  95.4641526  63.8291691 142.5291916  98.1806330  62.3101295 139.9481331
  98.1019962  61.9761158 140.8417088  99.0015997  62.8023062 139.9472803
  92.7167852  54.0459087 139.1984853  93.6626957  53.9165295 139.2673271
  92.3382097  53.3073749 139.6754281  90.9010769  51.9709063 139.1339738
  89.9942225  51.6742176 139.2102452  91.1786750  51.6738881 138.2674025
  81.8188710  53.2915427 149.5838785  81.4991494  52.4380735 149.2913159
  81.2722138  53.5064005 150.3396752  85.5968617  56.0077868 153.3008291
  85.8154627  56.9394975 153.3196325  86.0094391  55.6485842 154.0863095
  92.5172835  46.5145953 145.2883980  91.7073563  46.1693038 145.6639226
  93.2057252  46.2053497 145.8771591  94.4463383  45.5924000 146.9108276
  94.9994422  46.0119453 147.5698299  94.6833470  44.6659748 146.9531232
  89.6709554  48.8295998 139.2751718  90.5328718  49.1550897 139.5347535
  89.8559898  48.0427494 138.7624783  81.6876970  56.9118338 151.5531906
  80.9940441  56.4972291 151.0401861  82.4349961  56.9538875 150.9565325
  97.8242190  47.7024525 146.4186941  97.2440859  48.3609329 146.0364993
  97.5578123  46.8801869 146.0074358  96.2745757  47.1029583 148.6208261
  96.7745535  47.2146117 147.8122580  96.9181365  46.7990635 149.2609069
  83.6013712  56.8436592 149.4297921  83.5784400  56.9424279 148.4779804
  83.9114349  57.6901743 149.7515087  86.2601090  58.9012747 153.5444536
  87.2144344  58.8696689 153.4774467  86.0613614  58.4403371 154.3594762
  96.6067068  49.8624615 145.4743289  95.7192923  50.1474266 145.2563484
  97.0221057  49.7018379 144.6270566  99.9581604  49.8871136 149.1897628
 100.7341995  50.3767589 149.4622245  99.2329739  50.3129190 149.6469498
  84.6151319  64.4432366 150.5614734  84.4805787  63.6832767 149.9952732
  84.1983381  65.1673266 150.0943522  95.7510282  59.6269290 139.5691309
  96.4546132  59.8319292 140.1848965  95.0272931  60.1946052 139.8340392
  96.5808092  55.3779151 145.6893579  96.5243293  55.8347703 144.8501211
  97.1336435  54.6169836 145.5116422 100.3912898  51.1668883 146.5143699
 100.1349832  50.7665519 147.3451906  99.7665766  51.8812677 146.3893838
  87.7720445  65.3401683 150.7733176  87.6552829  66.2847116 150.6711867
  86.9512891  65.0375245 151.1618975  97.6596979  60.0651819 141.6189769
  98.4942583  59.6333018 141.4367244  97.4981322  59.8933833 142.5466663
  97.3142871  56.5683932 142.9846108  97.2591675  56.4028204 142.0434552
  96.6888927  57.2759965 143.1408298  90.6238997  46.0692041 142.5631427
  90.6117667  47.0133881 142.7199698  91.5162419  45.8862187 142.2690888
  90.5528561  64.7460932 150.6499183  89.6024192  64.7462793 150.5363556
  90.8561047  63.9993666 150.1335218  94.4391116  42.6634818 146.8177363
  93.6723512  42.1093305 146.9634046  94.8501821  42.7356687 147.6791515
  98.4612962  73.1444480 143.3504961  99.2343838  72.5973467 143.2117836
  98.8138361  74.0088729 143.5619422 100.7979240  69.3037146 140.9823411
 101.0504761  68.7818667 140.2206874  99.8603799  69.1403291 141.0850094
 100.5175529  71.2065252 143.1847785 100.4011787  70.5310155 143.8528870
 100.6277789  70.7197626 142.3679939 102.5012557  65.6965298 141.8855823
 102.6686959  66.5645535 142.2526294 102.3109726  65.8592580 140.9617112
 102.4801777  68.1522956 142.8702490 102.3601403  68.5980007 143.7087970
 101.7854366  68.5008274 142.3116028  96.9693353  68.0895940 147.4236666
  96.1724516  68.2014634 147.9420162  96.7418945  68.4282592 146.5577557
 105.8289785  69.7947924 142.2769490 105.3136408  70.5652528 142.5157877
 105.5567093  69.1213060 142.9002551  99.1210835  66.5189366 142.1324722
  98.2848147  66.8564053 142.4533996  98.9815604  66.3838346 141.1951859
 101.0963915  61.3626154 146.8403906 100.4428327  61.0475171 146.2160520
 101.0544389  60.7401895 147.5663729 102.2075120  71.6445449 138.7557198
 101.3002182  71.4134703 138.9548347 102.7046152  70.8483069 138.9431179
  93.9551524  69.4663558 147.2596390  93.7575924  68.8732919 146.5347457
  93.3998188  69.1615769 147.9772329 103.0839441  73.2866788 140.6169266
 102.6458871  72.5702647 140.1574904 103.8249882  73.5142903 140.0554358
  96.4497749  68.9927592 144.9437342  95.5195338  68.9312048 145.1607304
  96.5455221  68.4703545 144.1473983  96.3683299  65.5182405 147.5315584
  96.6290116  66.4327738 147.4224744  97.1900471  65.0506848 147.6812197
 107.2050669  72.1451170 140.2101324 106.5879839  71.4197998 140.1134377
 106.7367157  72.9060530 139.8668398  98.9949215  66.3636594 139.3322628
  98.1178681  66.2425395 138.9684875  99.4706968  65.5722672 139.0801517
  93.7227909  67.9578449 144.7735534  94.0181350  67.0489127 144.7202588
  92.8215944  67.9366189 144.4516536  95.4515750  65.6392547 144.8974859
  95.1228456  64.7589926 144.7149965  95.8055121  65.5840215 145.7851248
  98.5657573  65.9265517 145.2650337  98.9053646  66.4551438 144.5428945
  99.0129694  66.2645923 146.0408903 100.5525720  64.4240138 143.4643630
 101.2734083  64.8021391 142.9607346  99.9291025  65.1429015 143.5678608
 104.6956843  65.1285287 144.4001962 104.9120458  66.0109925 144.0990790
 104.2150910  64.7371501 143.6707604 100.6989344  63.9587929 146.2941166
 100.8205255  63.0304575 146.4932054 100.4091386  63.9726615 145.3819482
  97.4272035  71.5707239 145.3918122  97.1818077  70.6669569 145.5898332
  97.5967950  71.5724389 144.4497600  96.6967683  67.3035596 142.8904284
  96.0036928  67.3779951 142.2344320  96.4519435  66.5395940 143.4125801
 103.5561607  69.3751004 139.1984853 104.5020711  69.2457213 139.2673271
 103.1775851  68.6365666 139.6754281 101.7404524  67.3000981 139.1339738
 100.8335979  67.0034094 139.2102452 102.0180505  67.0030799 138.2674025
 103.3566589  61.8437871 145.2883980 102.5467318  61.4984956 145.6639226
 104.0451006  61.5345414 145.8771591 105.2857138  60.9215917 146.9108276
 105.8388176  61.3411371 147.5698299 105.5227224  59.9951666 146.9531232
 100.5103308  64.1587916 139.2751718 101.3722472  64.4842814 139.5347535
 100.6953652  63.3719412 138.7624783 101.4632751  61.3983959 142.5631427
 101.4511421  62.3425799 142.7199698 102.3556173  61.2154105 142.2690888
 105.2784871  57.9926736 146.8177363 104.5117267  57.4385222 146.9634046
 105.6895576  58.0648605 147.6791515  82.8569827  22.4033630 129.6763133
  82.2057807  22.9887710 129.2897147  83.6514190  22.9339825 129.7358170
  79.1191732  15.6515433 127.7068717  79.3717253  15.1296954 126.9452180
  78.1816291  15.4881578 127.8095401  84.3345092  20.0924062 130.2132117
  83.6990925  20.1658688 130.9253022  84.0042499  20.6817660 129.5351196
  78.5621162  27.2704885 133.2437928  78.4845192  28.2212710 133.3226408
  77.9582805  26.9250757 133.9012854  86.4999336  14.9722716 130.4228131
  87.4117192  15.2050103 130.2475828  85.9908983  15.5559761 129.8603209
  88.9858150  20.8902973 135.1686076  88.3009188  21.2701874 134.6183109
  89.0701999  21.4998299 135.9018024  80.8359531  22.6287038 131.9643468
  80.7005206  23.4738574 132.3928315  81.3769343  22.8306316 131.2009401
  84.1502277  16.1426211 129.0014796  83.6348900  16.9130816 129.2403184
  83.8779585  15.4691347 129.6247858  89.1236551  18.8958566 130.9367970
  88.3465994  18.5569725 130.4923132  89.8028032  18.9011189 130.2622935
  80.5287612  17.9923737 125.4802504  79.6214674  17.7612990 125.6793653
  81.0258644  17.1961356 125.6676486  83.4355691  26.7021244 128.3999191
  82.7617390  27.0052941 129.0084148  83.8221513  27.5050324 128.0504648
  81.7075846  18.0936331 130.0026495  80.7987065  17.8095364 130.0998964
  81.7370929  18.5135410 129.1429801  86.9395113  21.7042921 133.7717662
  86.4857440  20.8633831 133.8282853  86.3089080  22.3404319 134.1092442
  85.3828052  23.5419418 134.7067480  85.6751027  24.1024475 133.9879846
  85.8926673  23.8347979 135.4620639  81.4051933  19.6345075 127.3414573
  80.9671363  18.9180934 126.8820210  82.1462374  19.8621190 126.7799664
  89.5225048  17.9102272 133.3990892  89.3842947  18.1003868 132.4712081
  89.1661267  18.6721655 133.8558943  81.6346906  26.8700916 130.6146270
  81.8098662  26.3988959 131.4291892  80.9479694  27.4966682 130.8427530
  85.5263161  18.4929457 126.9346631  84.9092332  17.7676285 126.8379683
  85.0579650  19.2538817 126.5913705  80.5025633  25.0641171 133.3030455
  79.7193155  25.6062852 133.3968680  81.2018378  25.5815151 133.7024697
  86.3500846  21.8168629 131.0539270  86.6260690  21.7025223 131.9633144
  85.4805345  21.4186114 131.0151444  82.9854910  26.0654980 134.6972084
  83.1677305  25.2476635 135.1599836  83.8087896  26.2822672 134.2596974
  83.3197076  24.9923165 131.9587133  83.8484842  24.4815619 131.3457295
  83.5825295  24.6765695 132.8232666  86.4137259  24.9639963 132.5742116
  86.5874137  24.3986385 131.8215968  86.9066151  25.7640858 132.3921605
  92.2676651  17.7276386 134.1932415  92.7107797  16.9783711 133.7951539
  91.3903161  17.7186522 133.8106147  87.4012432  24.2806727 129.6739014
  88.0963336  24.9013420 129.8926328  87.7435582  23.4302079 129.9491392
  89.3003855  21.7306433 131.2026345  89.8255179  22.0693706 130.4775665
  89.2126208  20.7953448 131.0189479  77.9931895  21.8920349 131.1102360
  78.1420015  22.5755813 130.4569033  78.7998338  21.8725439 131.6251816
  81.4927300  24.3868479 128.5814107  80.9201267  25.0058666 128.1284579
  82.0660094  24.9367841 129.1154029  84.7124560  24.6705629 129.7122690
  85.6455233  24.6051191 129.9155565  84.6247773  25.5061896 129.2537222
  87.3412577  23.9871499 126.6726637  87.2626208  23.6531363 127.5662395
  88.1622244  24.4793267 126.6718110  81.8774099  15.7229292 125.9230160
  82.8233204  15.5935500 125.9918578  81.4988344  14.9843954 126.3999588
  80.0617016  13.6479268 125.8585045  79.1548471  13.3512381 125.9347759
  80.3392997  13.3509086 124.9919331  84.9116529  21.3039495 126.2936616
  85.6152379  21.5089497 126.9094271  84.1879177  21.8716257 126.5585699
  86.8203226  21.7422024 128.3435076  87.6548830  21.3103223 128.1612550
  86.6587569  21.5704038 129.2711970  86.4749118  18.2454137 129.7091415
  86.4197922  18.0798409 128.7679859  85.8495173  18.9530170 129.8653605
  95.4487501  32.2591675 138.4390252  96.0865911  32.1398423 137.7353592
  95.3308344  33.2072519 138.4978204  92.2577207  32.2119103 138.3751777
  91.9195719  32.0960168 137.4872312  93.1266976  31.8110268 138.3552783
  88.1164023  34.0654580 134.3648668  87.5528888  33.9744517 133.5964956
  88.0016418  33.2454484 134.8451161  85.6628455  35.5605771 137.2032888
  86.4549747  35.2196596 136.7879188  85.9025105  35.6700746 138.1235042
  93.6963582  37.7325547 129.6763133  93.0451561  38.3179628 129.2897147
  94.4907945  38.2631742 129.7358170  87.6219209  34.8214685 130.0750267
  88.3950085  34.2743672 129.9363143  87.9744608  35.6858934 130.2864729
  89.4604251  36.1491067 143.2817167  89.1694117  37.0536698 143.1663833
  90.0961236  36.1907594 143.9961236  90.3860458  33.5267915 139.8718526
  90.9824031  33.3023938 139.1575489  90.4435430  32.7852661 140.4743974
  89.9585487  30.9807351 127.7068717  90.2111007  30.4588872 126.9452180
  89.0210046  30.8173496 127.8095401  95.0028770  29.9843129 135.5143460
  95.7891859  29.5662552 135.1633877  95.2667474  30.8889221 135.6825109
  95.1738847  35.4215979 130.2132117  94.5384680  35.4950606 130.9253022
  94.8436253  36.0109578 129.5351196 100.4037197  29.9218362 136.4176439
 101.1362369  29.3517579 136.6514268  99.6476552  29.5339963 136.8582944
  89.6781775  32.8835457 129.9093092  89.5618034  32.2080360 130.5774176
  89.7884035  32.3967831 129.0925245  92.0213316  32.3445604 133.6139781
  91.6571524  31.8176225 134.3252703  92.8780432  31.9544073 133.4406267
  91.6618803  27.3735503 128.6101130  91.8293206  28.2415740 128.9771601
  91.4715972  27.5362785 127.6862419  94.4194137  35.8352482 140.2766960
  94.1194860  36.7377521 140.1682767  94.0745196  35.5684666 141.1288113
  87.8706618  32.2866279 136.3103665  86.9457114  32.1542493 136.5181356
  88.1191031  33.0660498 136.8073607  97.8191280  28.3535023 137.9564398
  96.9108158  28.2850431 137.6623159  97.7678876  28.8306967 138.7846223
  91.6408024  29.8293161 129.5947797  91.5207649  30.2750212 130.4333277
  90.9460613  30.1778479 129.0361335  85.2315429  31.9299553 137.1447454
  85.3607810  32.1834032 138.0586865  84.5512880  32.5227261 136.8252109
  89.4014916  42.5996803 133.2437928  89.3238946  43.5504628 133.3226408
  88.7976560  42.2542675 133.9012854  97.3393090  30.3014634 130.4228131
  98.2510946  30.5342021 130.2475828  96.8302737  30.8851678 129.8603209
  95.6233858  34.7239262 144.0589423  96.0317214  34.2821672 143.3144056
  94.9011120  34.1491889 144.3123616  95.9462673  35.2840453 137.8141712
  95.3171535  35.4486167 137.1117780  95.5588335  35.6982062 138.5852676
  99.8251905  36.2194890 135.1686076  99.1402943  36.5993792 134.6183109
  99.9095754  36.8290217 135.9018024  97.0802836  33.8654849 141.7681419
  97.2919731  34.5086609 141.0915801  97.0332584  33.0317166 141.3003350
  94.6829065  26.4772670 138.6717992  93.8213544  26.7753924 138.9634729
  94.7091500  26.6943069 137.7399024  91.4990635  35.0214861 135.0791797
  91.9628980  35.3002564 134.2896420  91.2347433  34.1198305 134.8964888
  88.3914716  34.5686342 138.0171561  88.9616073  34.9973611 137.3789045
  88.9822827  34.2868927 138.7155746  90.4359521  31.1438013 131.8881362
  91.1383564  31.5959057 132.3555289  90.1040149  30.5021832 132.5161256
  84.1784855  29.4021566 137.1898496  83.3883909  29.6579094 136.7138607
  84.6696102  30.2169904 137.2950537  98.1948664  36.7426805 139.9403777
  99.0166108  36.3406992 139.6586458  98.1911067  36.6395039 140.8919893
  86.1299600  29.7666145 134.1481973  85.3330763  29.8784839 134.6665468
  85.9025192  30.1052797 133.2822863  91.9605268  36.2910848 142.0964487
  92.0249700  36.7531255 142.9322659  91.2516191  35.6608213 142.2246797
  91.6753285  37.9578956 131.9643468  91.5398960  38.8030491 132.3928315
  92.2163098  38.1598233 131.2009401  85.1282683  35.4754394 132.5371393
  85.6407203  36.2697644 132.6876957  85.7805395  34.7780684 132.4704994
  86.9377567  38.5920150 134.6194146  87.1144196  39.5138115 134.4315130
  87.7334401  38.2778569 135.0488526  93.3021762  38.5802522 146.0943810
  92.8585616  37.7938901 145.7764714  93.9638975  38.7681673 145.4287701
  88.0608883  40.1098324 140.6204488  88.6116308  39.9815387 139.8481482
  87.2220359  40.4093213 140.2699381  95.4003000  38.8605322 144.1225211
  95.3821475  39.6814203 143.6305480  96.3222920  38.7359397 144.3475352
  83.0931599  33.8043048 133.3130963  83.9306821  34.2140056 133.0964671
  83.2709867  32.8642490 133.2831157  94.9896032  31.4718129 129.0014796
  94.4742655  32.2422733 129.2403184  94.7173340  30.7983265 129.6247858
  92.5743143  26.3167829 134.0600035  91.7184739  25.9274680 133.8805673
  92.9870094  26.3959790 133.1999820  94.1042289  23.8514173 138.4591594
  93.6007085  23.8144308 137.6459400  94.3972896  24.7606915 138.5188251
  99.9630306  34.2250483 130.9367970  99.1859748  33.8861643 130.4923132
 100.6421787  34.2303106 130.2622935  94.7782335  29.3445221 130.8274577
  94.4732470  29.6591370 131.6784721  95.7312777  29.4226641 130.8701910
  93.2228767  35.5035444 132.4767531  92.6950128  34.7688204 132.1640769
  92.7216269  36.2810120 132.2307500  98.2021613  33.6984465 137.5934578
  97.5445287  34.3883726 137.6814706  99.0062012  34.0880896 137.9368564
  87.9547494  26.1655110 134.8374143  88.5291246  25.9430292 134.1047336
  88.5418477  26.2343805 135.5902744  97.0127071  32.0528837 135.6438519
  97.5258953  32.6858829 136.1460229  97.6628295  31.4530033 135.2781879
  88.2817081  28.1959571 128.8570028  87.4454394  28.5334258 129.1779303
  88.1421851  28.0608551 127.9197165  90.2570162  23.0396359 133.5649212
  89.6034574  22.7245376 132.9405827  90.2150636  22.4172100 134.2909035
  91.3681367  33.3215654 125.4802504  90.4608428  33.0904908 125.6793653
  91.8652399  32.5253274 125.6676486  94.2749446  42.0313161 128.3999191
  93.6011144  42.3344858 129.0084148  94.6615268  42.8342242 128.0504648
  93.4907902  29.5278293 137.8896860  92.5730464  29.7493240 137.7318548
  93.9068046  29.6024603 137.0308567  94.2742950  30.9269708 133.0199540
  95.0214769  31.4391106 132.7106662  94.5434540  30.6053761 133.8803934
  92.5469600  33.4228249 130.0026495  91.6380819  33.1387282 130.0998964
  92.5764684  33.8427328 129.1429801  97.7788868  37.0334839 133.7717662
  97.3251195  36.1925749 133.8282853  97.1482834  37.6696237 134.1092442
  96.7221787  27.9626825 135.0018330  95.9844544  27.4504211 135.3328572
  96.9748561  27.5227206 134.1901606  96.2221807  38.8711335 134.7067480
  96.5144781  39.4316392 133.9879846  96.7320427  39.1639896 135.4620639
  83.1157771  31.1433763 133.9841697  82.9182170  30.5503124 133.2592763
  82.5604435  30.8385973 134.7017636  91.0954494  31.0356870 136.1036290
  91.1503104  30.0830706 136.0278766  90.2845696  31.1916309 136.5877588
  92.2445688  34.9636993 127.3414573  91.8065118  34.2472852 126.8820210
  92.9856129  35.1913108 126.7799664  89.0346854  29.6533929 133.8626669
  88.2214720  29.9528100 134.2691861  89.5305848  29.2589618 134.5801151
  91.1855432  39.6491686 135.7960933  91.1431611  39.8752533 134.8669465
  92.1018131  39.4155061 135.9446735 100.3618803  33.2394190 133.3990892
 100.2236701  33.4295786 132.4712081 100.0055022  34.0013573 133.8558943
 100.3888182  35.3070717 138.4102163 100.8224689  35.2146006 139.2585217
 101.1019763  35.2828217 137.7722179  89.3021233  36.5254715 135.5922896
  90.0961831  36.0305036 135.3905471  88.5912925  35.9972579 135.2290602
  94.1216077  38.9072811 139.9435264  94.1753100  39.4763747 140.7112980
  93.2530859  39.0774696 139.5789301  85.6103996  30.6697797 131.6682649
  84.6801584  30.6082253 131.8852611  85.7061468  30.1473750 130.8719290
  85.5289545  27.1952610 134.2560890  85.7896363  28.1097943 134.1470051
  86.3506718  26.7277053 134.4057503  93.0804177  33.0733073 141.5022196
  94.0096237  33.2244233 141.3291163  92.6595207  33.1617094 140.6470842
  91.8792509  37.0983737 139.2720733  91.7403594  36.7302522 140.1446671
  91.0907105  37.6131377 139.1004691  92.4740661  42.1992834 130.6146270
  92.6492416  41.7280877 131.4291892  91.7873449  42.8258600 130.8427530
  93.4297724  36.4765340 136.6609571  93.0947557  36.4366110 137.5567221
  92.9301670  35.8110056 136.1879981  96.3656916  33.8221374 126.9346631
  95.7486086  33.0968203 126.8379683  95.8973404  34.5830735 126.5913705
  98.0211047  38.5320283 144.5952411  97.9623593  37.8479503 143.9282994
  98.4230566  39.2739273 144.1433037  87.0401746  45.3482197 137.3886130
  87.2798344  45.9800721 138.0665148  86.1970943  44.9970237 137.6751489
  88.1555462  28.0406799 126.0567935  87.2784928  27.9195600 125.6930182
  88.6313215  27.2492877 125.8046824  79.6757602  32.8283958 136.1509442
  80.3628641  32.5145689 135.5630457  79.5205730  33.7325323 135.8776694
  91.5529608  41.1561319 139.7927634  91.4799779  41.9616291 140.3046938
  91.1107001  41.3553285 138.9675655  91.3419388  40.3933089 133.3030455
  90.5586909  40.9354769 133.3968680  92.0412133  40.9107069 133.7024697
  94.6516038  26.2027719 135.9464661  95.1484737  25.4497681 135.6265731
  93.8803019  26.2392035 135.3807870  94.0128291  41.0548153 141.9485793
  94.7256264  41.6895618 141.8761694  93.5218320  41.1512019 141.1325794
  95.7345818  34.9599406 133.5203084  94.8002097  35.0800868 133.3507789
  95.9122487  34.0571873 133.2563094  91.2351006  28.3445102 135.6736345
  90.8648794  27.7916142 136.3617251  91.7310099  27.7403235 135.1211345
  99.1218370  30.8016725 134.0553118  99.5878822  31.6344717 133.9813421
  99.5725870  30.3361707 134.7598377  89.0640205  38.8042597 142.7691363
  89.7649664  39.4379080 142.9220758  88.5935320  39.1457328 142.0087003
  97.1894601  37.1460546 131.0539270  97.4654445  37.0317141 131.9633144
  96.3199100  36.7478031 131.0151444  96.8641491  31.3587204 140.5943914
  96.2112941  31.6063111 139.9396367  97.2421871  30.5451342 140.2606391
  93.8248665  41.3946897 134.6972084  94.0071059  40.5768553 135.1599836
  94.6481651  41.6114589 134.2596974  94.1590830  40.3215082 131.9587133
  94.6878597  39.8107537 131.3457295  94.4219050  40.0057613 132.8232666
  84.6607923  38.3378952 139.7022466  85.2461360  37.5922640 139.8350370
  84.4632761  38.6482908 140.5859130  87.5146578  41.3730199 134.7184908
  86.8456954  41.8576327 134.2348949  87.3759448  41.6199419 135.6328287
  91.6551847  43.4073943 141.3167567  92.2070155  43.5705564 142.0816652
  91.9958040  43.9978380 140.6447592  82.8834155  29.6348654 131.4980841
  83.1787596  28.7259332 131.4447894  81.9822191  29.6136393 131.1761843
  94.7920234  41.3555918 138.3031249  94.6671374  40.5545658 137.7942194
  95.4499325  41.8502111 137.8145219  86.4128402  27.7104651 137.4808389
  85.6914988  28.3240618 137.3415863  87.2021658  28.2462415 137.4025035
  96.8555142  39.1564938 139.9310799  95.9085478  39.0370289 139.8589126
  97.2037916  38.2687436 140.0137061  84.6121997  27.3162752 131.6220166
  84.2834703  26.4360131 131.4395272  84.9661368  27.2610420 132.5096555
  93.8601576  38.9517654 136.1315151  93.7126538  38.0234362 136.3122721
  94.6855069  38.9737745 135.6472227  87.7263820  27.6035721 131.9895643
  88.0659893  28.1321643 131.2674252  88.1735941  27.9416128 132.7654210
  97.4635698  39.7746213 137.2180024  98.3882245  39.5689074 137.0804475
  97.2951001  39.5262614 138.1269366  89.7131967  26.1010343 130.1888936
  90.4340330  26.4791596 129.6852653  89.0897271  26.8199220 130.2923914
  93.8563090  26.8055492 131.1247269  94.0726705  27.6880130 130.8236097
  93.3757157  26.4141705 130.3952911  88.5962311  29.7641205 137.7018013
  88.4506892  30.0781508 138.5942295  88.1187515  30.3826106 137.1488912
  90.4558694  26.7543753 137.7498903  90.4420263  25.8584847 137.4131201
  91.1731122  26.7614417 138.3837189  97.2531014  40.2931881 132.5742116
  97.4267891  39.7278303 131.8215968  97.7459905  41.0932775 132.3921605
  89.8595590  25.6358134 133.0186473  89.9811502  24.7074780 133.2177360
  89.5697633  25.6496819 132.1064788  92.7286781  23.3213044 136.1553193
  92.7508478  23.3852377 135.2005172  93.1454840  22.4817553 136.3493699
 103.1070405  33.0568304 134.1932415 103.5501551  32.3075629 133.7951539
 102.2296915  33.0478440 133.8106147  98.2406186  39.6098645 129.6739014
  98.9357091  40.2305338 129.8926328  98.5829336  38.7593996 129.9491392
 100.1397609  37.0598350 131.2026345 100.6648934  37.3985623 130.4775665
 100.0519962  36.1245366 131.0189479  91.8017658  40.9732424 143.3316221
  92.1104785  40.7281571 144.2038921  92.5993140  41.1779063 142.8435091
  91.8238270  43.1270334 135.5621598  91.3843260  42.6346712 136.2554454
  92.5746387  42.5843301 135.3213673  84.3030609  39.3181875 135.5646226
  85.1288629  39.0185646 135.1844869  83.9524661  38.5489497 136.0136014
  89.2712142  38.6708343 137.6343899  88.6492152  38.0079048 137.3346127
  89.9417009  38.6969475 136.9517547  82.5039214  37.2368201 136.5235159
  81.6671123  36.8090375 136.3419161  82.4762860  37.4300644 137.4605951
  88.8325649  37.2212266 131.1102360  88.9813770  37.9047731 130.4569033
  89.6392093  37.2017356 131.6251816 102.6503270  34.5273542 136.5854863
 103.4850161  34.9663346 136.7492423 102.7862399  34.0512195 135.7663109
  86.5878282  33.2477444 132.1163429  86.3424324  32.3439774 132.3143639
  86.7574197  33.2494594 131.1742907  85.8573930  28.9805801 129.6149590
  85.1643175  29.0550156 128.9589626  85.6125682  28.2166145 130.1371107
  92.3321055  39.7160397 128.5814107  91.7595022  40.3350584 128.1284579
  92.9053848  40.2659758 129.1154029  95.5518315  39.9997547 129.7122690
  96.4848988  39.9343108 129.9155565  95.4641527  40.8353814 129.2537222
  98.1806331  39.3163417 126.6726637  98.1019963  38.9823281 127.5662395
  99.0015998  39.8085185 126.6718110  92.7167853  31.0521209 125.9230160
  93.6626958  30.9227418 125.9918578  92.3382098  30.3135871 126.3999588
  90.9010770  28.9771186 125.8585045  89.9942226  28.6804299 125.9347759
  91.1786751  28.6801004 124.9919331  81.8188711  30.2977549 136.3084091
  81.4991495  29.4442857 136.0158465  81.2722139  30.5126127 137.0642059
  85.5968618  33.0139990 140.0253598  85.8154628  33.9457098 140.0441632
  86.0094392  32.6547965 140.8108402  92.5172836  23.5208076 132.0129286
  91.7073564  23.1755160 132.3884532  93.2057253  23.2115619 132.6016898
  94.4463384  22.5986122 133.6353583  94.9994423  23.0181576 134.2943606
  94.6833471  21.6721870 133.6776539  89.6709555  25.8358121 125.9997024
  90.5328719  26.1613019 126.2592842  89.8559899  25.0489617 125.4870090
  81.6876971  33.9180461 138.2777213  80.9940442  33.5034413 137.7647167
  82.4349962  33.9600997 137.6810632  97.8242192  24.7086647 133.1432247
  97.2440861  25.3671451 132.7610300  97.5578124  23.8863992 132.7319665
  96.2745758  24.1091705 135.3453568  96.7745536  24.2208240 134.5367886
  96.9181366  23.8052758 135.9854376  83.6013713  33.8498714 136.1543228
  83.5784401  33.9486402 135.2025111  83.9114350  34.6963865 136.4760394
  86.2601091  35.9074869 140.2689842  87.2144345  35.8758812 140.2019774
  86.0613615  35.4465493 141.0840068  96.6067070  26.8686738 132.1988596
  95.7192925  27.1536388 131.9808790  97.0221059  26.7080501 131.3515872
  99.9581606  26.8933259 135.9142935 100.7341996  27.3829711 136.1867552
  99.2329740  27.3191313 136.3714804  84.6151320  41.4494489 137.2860040
  84.4805788  40.6894890 136.7198038  84.1983382  42.1735389 136.8188829
  95.7510283  36.6331413 126.2936616  96.4546133  36.8381415 126.9094271
  95.0272932  37.2008174 126.5585699  96.5808093  32.3841274 132.4138886
  96.5243295  32.8409825 131.5746518  97.1336436  31.6231958 132.2361728
 100.3912899  28.1731006 133.2389005 100.1349833  27.7727641 134.0697213
  99.7665767  28.8874800 133.1139144  87.7720446  42.3463806 137.4978483
  87.6552830  43.2909238 137.3957173  86.9512892  42.0437368 137.8864282
  97.6596980  37.0713942 128.3435076  98.4942584  36.6395140 128.1612550
  97.4981323  36.8995955 129.2711970  97.3142873  33.5746055 129.7091415
  97.2591676  33.4090326 128.7679859  96.6888928  34.2822088 129.8653605
  90.6238998  23.0754164 129.2876733  90.6117668  24.0196004 129.4445004
  91.5162420  22.8924309 128.9936194  88.7974960  42.9992068 140.7134411
  89.7002207  43.0315678 141.0300906  88.5712330  42.0692519 140.7280747
  90.5528562  41.7523054 137.3744490  89.6024193  41.7524916 137.2608862
  90.8561048  41.0055789 136.8580525  94.4391118  19.6696941 133.5422670
  93.6723513  19.1155427 133.6879352  94.8501823  19.7418809 134.4036822
 106.2881256  47.5883593 138.4390252 106.9259665  47.4690340 137.7353592
 106.1702098  48.5364437 138.4978204 103.0970962  47.5411021 138.3751777
 102.7589473  47.4252086 137.4872312 103.9660730  47.1402186 138.3552783
  98.9557777  49.3946497 134.3648668  98.3922643  49.3036434 133.5964956
  98.8410173  48.5746402 134.8451161 103.5790745  48.6945873 144.3337983
 103.5679386  48.2998671 143.4618486 103.7411384  47.9611945 144.9271754
  96.5022209  50.8897689 137.2032888  97.2943501  50.5488514 136.7879188
  96.7418860  50.9992664 138.1235042 104.5357336  53.0617465 129.6763133
 103.8845316  53.6471545 129.2897147 105.3301699  53.5923660 129.7358170
  98.4612963  50.1506602 130.0750267  99.2343839  49.6035589 129.9363143
  98.8138362  51.0150852 130.2864729 100.2998006  51.4782984 143.2817167
 100.0087872  52.3828615 143.1663833 100.9354990  51.5199512 143.9961236
 101.2254213  48.8559833 139.8718526 101.8217785  48.6315855 139.1575489
 101.2829184  48.1144578 140.4743974 100.7979241  46.3099268 127.7068717
 101.0504762  45.7880790 126.9452180  99.8603800  46.1465414 127.8095401
 105.8422524  45.3135047 135.5143460 106.6285613  44.8954470 135.1633877
 106.1061228  46.2181139 135.6825109 106.0132601  50.7507897 130.2132117
 105.3778434  50.8242524 130.9253022 105.6830008  51.3401496 129.5351196
 111.2430951  45.2510280 136.4176439 111.9756123  44.6809497 136.6514268
 110.4870307  44.8631880 136.8582944 100.5175530  48.2127374 129.9093092
 100.4011788  47.5372278 130.5774176 100.6277790  47.7259748 129.0925245
 102.8607071  47.6737521 133.6139781 102.4965278  47.1468142 134.3252703
 103.7174187  47.2835990 133.4406267 102.5012558  42.7027421 128.6101130
 102.6686960  43.5707657 128.9771601 102.3109727  42.8654703 127.6862419
 105.2587891  51.1644400 140.2766960 104.9588614  52.0669439 140.1682767
 104.9138951  50.8976583 141.1288113  98.7100372  47.6158197 136.3103665
  97.7850869  47.4834411 136.5181356  98.9584786  48.3952416 136.8073607
 108.6585035  43.6826940 137.9564398 107.7501912  43.6142349 137.6623159
 108.6072631  44.1598885 138.7846223 102.4801779  45.1585079 129.5947797
 102.3601404  45.6042129 130.4333277 101.7854367  45.5070396 129.0361335
  96.0709184  47.2591470 137.1447454  96.2001565  47.5125949 138.0586865
  95.3906635  47.8519178 136.8252109 100.2408671  57.9288720 133.2437928
 100.1632701  58.8796545 133.3226408  99.6370314  57.5834593 133.9012854
 108.1786845  45.6306552 130.4228131 109.0904701  45.8633939 130.2475828
 107.6696492  46.2143596 129.8603209 100.9872273  47.9102039 145.4617262
 101.7286957  48.4487083 145.1852085 100.2809258  48.5368328 145.6188814
 106.4627613  50.0531180 144.0589423 106.8710969  49.6113590 143.3144056
 105.7404874  49.4783807 144.3123616 102.8158683  44.9903786 141.4322980
 103.6619878  45.4143200 141.5757629 102.7557320  44.3337411 142.1261543
 106.7856427  50.6132370 137.8141712 106.1565290  50.7778084 137.1117780
 106.3982089  51.0273980 138.5852676 110.6645659  51.5486808 135.1686076
 109.9796697  51.9285709 134.6183109 110.7489508  52.1582135 135.9018024
 107.9196591  49.1946767 141.7681419 108.1313486  49.8378527 141.0915801
 107.8726339  48.3609084 141.3003350 105.5222820  41.8064588 138.6717992
 104.6607299  42.1045841 138.9634729 105.5485254  42.0234987 137.7399024
 102.3384389  50.3506778 135.0791797 102.8022735  50.6294481 134.2896420
 102.0741187  49.4490223 134.8964888  99.2308470  49.8978260 138.0171561
  99.8009827  50.3265528 137.3789045  99.8216582  49.6160845 138.7155746
 101.2753275  46.4729931 131.8881362 101.9777318  46.9250974 132.3555289
 100.9433904  45.8313750 132.5161256  99.7233637  45.0641687 146.2632572
  99.0932297  45.7457968 146.4967969  99.6169725  44.9524769 145.3185710
  95.0178609  44.7313483 137.1898496  94.2277663  44.9871012 136.7138607
  95.5089856  45.5461821 137.2950537 109.0342419  52.0718723 139.9403777
 109.8559862  51.6698910 139.6586458 109.0304822  51.9686957 140.8919893
  96.9693354  45.0958063 134.1481973  96.1724518  45.2076757 134.6665468
  96.7418947  45.4344715 133.2822863 102.7999022  51.6202766 142.0964487
 102.8643455  52.0823173 142.9322659 102.0909946  50.9900131 142.2246797
  93.3016312  44.9843974 139.6213487  93.5524350  45.8690984 139.8871063
  93.8375860  44.8048575 138.8488579 102.5147040  53.2870873 131.9643468
 102.3792715  54.1322409 132.3928315 103.0556852  53.4890151 131.2009401
  95.9676437  50.8046311 132.5371393  96.4800958  51.5989562 132.6876957
  96.6199150  50.1072602 132.4704994  97.7771322  53.9212068 134.6194146
  97.9537950  54.8430032 134.4315130  98.5728155  53.6070487 135.0488526
  97.0623678  45.9676699 144.4956309  96.9477194  45.0661957 144.7963408
  96.2068196  46.2140396 144.1441126 104.1415516  53.9094440 146.0943810
 103.6979370  53.1230818 145.7764714 104.8032730  54.0973590 145.4287701
  98.9002637  55.4390241 140.6204488  99.4510062  55.3107305 139.8481482
  98.0614113  55.7385130 140.2699381 106.2396754  54.1897240 144.1225211
 106.2215230  55.0106121 143.6305480 107.1616674  54.0651315 144.3475352
 102.6969808  51.7041369 144.9648719 103.2298145  50.9429657 144.7348027
 102.1683889  51.4115021 145.7072874  93.9325354  49.1334966 133.3130963
  94.7700576  49.5431974 133.0964671  94.1103622  48.1934408 133.2831157
 105.8289786  46.8010046 129.0014796 105.3136409  47.5714651 129.2403184
 105.5567094  46.1275182 129.6247858 103.4136897  41.6459747 134.0600035
 102.5578493  41.2566597 133.8805673 103.8263849  41.7251708 133.1999820
 104.9436044  39.1806090 138.4591594 104.4400839  39.1436225 137.6459400
 105.2366651  40.0898833 138.5188251 101.1878930  39.2644820 137.4657776
 102.0531926  39.0687629 137.1063666 101.2556438  39.0355172 138.3927133
 110.8024060  49.5542401 130.9367970 110.0253503  49.2153560 130.4923132
 111.4815541  49.5595024 130.2622935 105.6176089  44.6737138 130.8274577
 105.3126225  44.9883288 131.6784721 106.5706531  44.7518558 130.8701910
 104.0622521  50.8327362 132.4767531 103.5343883  50.0980121 132.1640769
 103.5610024  51.6102038 132.2307500 109.0415367  49.0276382 137.5934578
 108.3839042  49.7175644 137.6814706 109.8455766  49.4172814 137.9368564
  98.7941249  41.4947028 134.8374143  99.3685001  41.2722209 134.1047336
  99.3812231  41.5635722 135.5902744 107.8520826  47.3820755 135.6438519
 108.3652708  48.0150747 136.1460229 108.5022050  46.7821950 135.2781879
  99.1210836  43.5251489 128.8570028  98.2848148  43.8626176 129.1779303
  98.9815605  43.3900469 127.9197165 101.0963916  38.3688277 133.5649212
 100.4428329  38.0537294 132.9405827 101.0544391  37.7464017 134.2909035
 102.2075121  48.6507572 125.4802504 101.3002183  48.4196825 125.6793653
 102.7046153  47.8545191 125.6676486 105.1143200  57.3605079 128.3999191
 104.4404899  57.6636776 129.0084148 105.5009022  58.1634159 128.0504648
 104.3301657  44.8570210 137.8896860 103.4124218  45.0785157 137.7318548
 104.7461800  44.9316521 137.0308567 105.1136704  46.2561626 133.0199540
 105.8608523  46.7683023 132.7106662 105.3828294  45.9345679 133.8803934
 103.3863355  48.7520167 130.0026495 102.4774574  48.4679200 130.0998964
 103.4158438  49.1719245 129.1429801 108.6182622  52.3626756 133.7717662
 108.1644949  51.5217666 133.8282853 107.9876589  52.9988155 134.1092442
 107.5615542  43.2918742 135.0018330 106.8238298  42.7796129 135.3328572
 107.8142315  42.8519124 134.1901606 107.0615561  54.2003253 134.7067480
 107.3538536  54.7608310 133.9879846 107.5714182  54.4931814 135.4620639
  93.9551525  46.4725681 133.9841697  93.7575925  45.8795042 133.2592763
  93.3998189  46.1677891 134.7017636 101.9348249  46.3648787 136.1036290
 101.9896858  45.4122624 136.0278766 101.1239451  46.5208227 136.5877588
 103.0839442  50.2928910 127.3414573 102.6458872  49.5764769 126.8820210
 103.8249883  50.5205025 126.7799664  99.8740609  44.9825847 133.8626669
  99.0608474  45.2820018 134.2691861 100.3699603  44.5881536 134.5801151
 102.0249187  54.9783604 135.7960933 101.9825365  55.2044450 134.8669465
 102.9411885  54.7446979 135.9446735 111.2012557  48.5686108 133.3990892
 111.0630456  48.7587704 132.4712081 110.8448776  49.3305490 133.8558943
  99.3654683  42.5544203 139.4787904 100.0054063  42.4132962 138.7810867
  98.5332214  42.2678716 139.1026506 111.2281937  50.6362635 138.4102163
 111.6618444  50.5437924 139.2585217 111.9413518  50.6120135 137.7722179
 100.1414987  51.8546633 135.5922896 100.9355586  51.3596953 135.3905471
  99.4306680  51.3264496 135.2290602 104.9609832  54.2364729 139.9435264
 105.0146854  54.8055665 140.7112980 104.0924613  54.4066614 139.5789301
  96.4497751  45.9989715 131.6682649  95.5195339  45.9374170 131.8852611
  96.5455223  45.4765668 130.8719290  96.3683300  42.5244528 134.2560890
  96.6290117  43.4389861 134.1470051  97.1900472  42.0568970 134.4057503
  97.8408225  43.9382285 141.4259715  98.5131279  43.7299647 140.7772364
  97.0138012  43.7404371 140.9864947 103.9197932  48.4024991 141.5022196
 104.8489992  48.5536150 141.3291163 103.4988962  48.4909011 140.6470842
 102.7186263  52.4275655 139.2720733 102.5797349  52.0594439 140.1446671
 101.9300860  52.9423295 139.1004691 103.3134415  57.5284752 130.6146270
 103.4886171  57.0572795 131.4291892 102.6267203  58.1550518 130.8427530
 104.2691478  51.8057258 136.6609571 103.9341311  51.7658028 137.5567221
 103.7695424  51.1401974 136.1879981  98.2435722  47.2124888 142.1862152
  98.1055520  46.4805127 142.7873691  99.1540646  47.1233788 141.9046340
 107.2050670  49.1513292 126.9346631 106.5879841  48.4260120 126.8379683
 106.7367159  49.9122652 126.5913705 100.8718023  46.9244847 141.6745832
 101.5817642  46.2838039 141.6332450 100.8287331  47.1757742 142.5972013
 108.8604802  53.8612200 144.5952411 108.8017348  53.1771421 143.9282994
 109.2624320  54.6031190 144.1433037  99.5846957  43.9110065 143.4941471
  99.0484314  43.4600803 144.1463068  98.9963665  44.0455974 142.7511936
  97.8795501  60.6774114 137.3886130  98.1192099  61.3092638 138.0665148
  97.0364697  60.3262154 137.6751489  98.9949216  43.3698716 126.0567935
  98.1178682  43.2487517 125.6930182  99.4706969  42.5784795 125.8046824
  90.5151356  48.1575876 136.1509442  91.2022396  47.8437606 135.5630457
  90.3599485  49.0617241 135.8776694  95.3186078  43.0466073 140.5794466
  95.2344267  42.4391742 139.8444876  94.4968785  43.5375091 140.5803962
 102.3923362  56.4853237 139.7927634 102.3193534  57.2908208 140.3046938
 101.9500756  56.6845203 138.9675655 102.1813142  55.7225007 133.3030455
 101.3980664  56.2646687 133.3968680 102.8805887  56.2398986 133.7024697
 105.4909792  41.5319636 135.9464661 105.9878492  40.7789599 135.6265731
 104.7196774  41.5683953 135.3807870 104.8522046  56.3840071 141.9485793
 105.5650018  57.0187536 141.8761694 104.3612075  56.4803937 141.1325794
 106.5739573  50.2891323 133.5203084 105.6395852  50.4092786 133.3507789
 106.7516241  49.3863790 133.2563094 102.0744761  43.6737019 135.6736345
 101.7042548  43.1208060 136.3617251 102.5703853  43.0695153 135.1211345
 109.9612124  46.1308643 134.0553118 110.4272576  46.9636634 133.9813421
 110.4119625  45.6653624 134.7598377  99.9033959  54.1334514 142.7691363
 100.6043419  54.7670997 142.9220758  99.4329074  54.4749246 142.0087003
 108.0288355  52.4752464 131.0539270 108.3048199  52.3609059 131.9633144
 107.1592854  52.0769949 131.0151444 107.7035245  46.6879122 140.5943914
 107.0506696  46.9355029 139.9396367 108.0815625  45.8743260 140.2606391
 104.6642419  56.7238815 134.6972084 104.8464814  55.9060471 135.1599836
 105.4875405  56.9406507 134.2596974 104.9984585  55.6507000 131.9587133
 105.5272351  55.1399455 131.3457295 105.2612804  55.3349530 132.8232666
  95.5001678  53.6670869 139.7022466  96.0855114  52.9214557 139.8350370
  95.3026516  53.9774826 140.5859130  98.3540333  56.7022117 134.7184908
  97.6850708  57.1868244 134.2348949  98.2153202  56.9491337 135.6328287
  90.0919332  46.2376470 138.4226909  90.1303432  45.7040060 139.2164027
  89.5859625  45.7111675 137.8037886 102.4945601  58.7365860 141.3167567
 103.0463909  58.8997482 142.0816652 102.8351795  59.3270298 140.6447592
  97.4710095  41.0841010 141.9189452  97.5351421  41.9455841 141.5066849
  97.4077215  40.4715012 141.1861810  96.9462367  43.1564143 145.5662486
  97.5734406  42.7741220 146.1800010  96.0890286  42.9378345 145.9318178
  93.7227910  44.9640572 131.4980841  94.0181351  44.0551250 131.4447894
  92.8215946  44.9428311 131.1761843 105.6313989  56.6847836 138.3031249
 105.5065128  55.8837576 137.7942194 106.2893080  57.1794029 137.8145219
  97.2522157  43.0396568 137.4808389  96.5308743  43.6532536 137.3415863
  98.0415413  43.5754333 137.4025035 107.6948897  54.4856856 139.9310799
 106.7479233  54.3662207 139.8589126 108.0431670  53.5979354 140.0137061
  95.4515751  42.6454669 131.6220166  95.1228458  41.7652048 131.4395272
  95.8055122  42.5902338 132.5096555 104.6995330  54.2809572 136.1315151
 104.5520293  53.3526279 136.3122721 105.5248824  54.3029663 135.6472227
  98.5657575  42.9327639 131.9895643  98.9053647  43.4613560 131.2674252
  99.0129695  43.2708045 132.7654210 108.3029452  55.1038131 137.2180024
 109.2276000  54.8980992 137.0804475 108.1344756  54.8554532 138.1269366
 101.2601015  41.3164690 141.4398711 100.9197836  40.5172503 141.8419391
 100.5540022  41.6166401 140.8675545 101.9117487  38.4014002 139.8926035
 102.7343557  37.9274480 139.7704925 102.1555551  39.1804486 140.3924721
 100.5525722  41.4302261 130.1888936 101.2734084  41.8083514 129.6852653
  99.9291026  42.1491138 130.2923914 104.6956845  42.1347410 131.1247269
 104.9120459  43.0172048 130.8236097 104.2150912  41.7433623 130.3952911
  99.4356066  45.0933123 137.7018013  99.2900647  45.4073426 138.5942295
  98.9581270  45.7118023 137.1488912 101.2952449  42.0835671 137.7498903
 101.2814018  41.1876764 137.4131201 102.0124877  42.0906335 138.3837189
 103.1478580  42.5173011 139.7952030 102.8896357  43.4390082 139.7936361
 102.6163620  42.1203446 140.4852494 108.0924768  55.6223798 132.5742116
 108.2661646  55.0570221 131.8215968 108.5853660  56.4224693 132.3921605
  93.9101728  47.6338467 140.6405674  93.3655196  48.4098275 140.7725949
  94.7881078  47.9809272 140.4824796 100.6989345  40.9650051 133.0186473
 100.8205256  40.0366697 133.2177360 100.4091387  40.9788737 132.1064788
 103.5680535  38.6504962 136.1553193 103.5902232  38.7144295 135.2005172
 103.9848594  37.8109470 136.3493699 113.9464160  48.3860221 134.1932415
 114.3895306  47.6367546 133.7951539 113.0690670  48.3770358 133.8106147
 109.0799941  54.9390563 129.6739014 109.7750845  55.5597255 129.8926328
 109.4223091  54.0885914 129.9491392  94.6967750  46.7608364 143.5335831
  93.9549486  46.9090999 144.1200462  94.3760494  47.0216629 142.6702581
 110.9791364  52.3890268 131.2026345 111.5042688  52.7277541 130.4775665
 110.8913717  51.4537283 131.0189479 102.6411413  56.3024342 143.3316221
 102.9498539  56.0573489 144.2038921 103.4386895  56.5070980 142.8435091
 102.6632025  58.4562251 135.5621598 102.2237015  57.9638630 136.2554454
 103.4140142  57.9135219 135.3213673  95.1424364  54.6473792 135.5646226
  95.9682384  54.3477564 135.1844869  94.7918416  53.8781415 136.0136014
 100.1105897  54.0000261 137.6343899  99.4885906  53.3370966 137.3346127
 100.7810764  54.0261392 136.9517547  93.3432969  52.5660119 136.5235159
  92.5064877  52.1382293 136.3419161  93.3156614  52.7592562 137.4605951
  99.6719404  52.5504184 131.1102360  99.8207524  53.2339648 130.4569033
 100.4785847  52.5309274 131.6251816 113.4897024  49.8565459 136.5854863
 114.3243916  50.2955264 136.7492423 113.6256153  49.3804113 135.7663109
  97.4272037  48.5769362 132.1163429  97.1818079  47.6731692 132.3143639
  97.5967951  48.5786512 131.1742907  96.6967684  44.3097719 129.6149590
  96.0036929  44.3842074 128.9589626  96.4519436  43.5458063 130.1371107
 103.1714809  55.0452314 128.5814107 102.5988776  55.6642501 128.1284579
 103.7447603  55.5951676 129.1154029 106.3912069  55.3289464 129.7122690
 107.3242742  55.2635026 129.9155565 106.3035282  56.1645731 129.2537222
 109.0200086  54.6455335 126.6726637 108.9413717  54.3115198 127.5662395
 109.8409753  55.1377103 126.6718110 103.5561608  46.3813127 125.9230160
 104.5020713  46.2519335 125.9918578 103.1775853  45.6427789 126.3999588
 101.7404525  44.3063103 125.8585045 100.8335980  44.0096216 125.9347759
 102.0180506  44.0092922 124.9919331  92.6582465  45.6269467 136.3084091
  92.3385250  44.7734775 136.0158465  92.1115894  45.8418045 137.0642059
  96.4362373  48.3431908 140.0253598  96.6548383  49.2749016 140.0441632
  96.8488147  47.9839882 140.8108402 103.3566591  38.8499993 132.0129286
 102.5467319  38.5047078 132.3884532 104.0451008  38.5407537 132.6016898
 105.2857139  37.9278040 133.6353583 105.8388178  38.3473493 134.2943606
 105.5227225  37.0013788 133.6776539 100.5103310  41.1650039 125.9997024
 101.3722474  41.4904937 126.2592842 100.6953654  40.3781535 125.4870090
  92.5270725  49.2472378 138.2777213  91.8334197  48.8326331 137.7647167
  93.2743716  49.2892915 137.6810632 108.6635946  40.0378565 133.1432247
 108.0834615  40.6963369 132.7610300 108.3971879  39.2155910 132.7319665
 107.1139512  39.4383623 135.3453568 107.6139291  39.5500157 134.5367886
 107.7575120  39.1344676 135.9854376  94.4407468  49.1790632 136.1543228
  94.4178156  49.2778319 135.2025111  94.7508104  50.0255783 136.4760394
  97.0994846  51.2366787 140.2689842  98.0538099  51.2050730 140.2019774
  96.9007369  50.7757411 141.0840068  97.6894228  49.8067903 142.8360640
  98.5087117  50.3011982 142.8595477  97.9631036  48.8899871 142.8078208
 107.4460824  42.1978656 132.1988596 106.5586679  42.4828306 131.9808790
 107.8614813  42.0372419 131.3515872 110.7975360  42.2225177 135.9142935
 111.5735750  42.7121629 136.1867552 110.0723494  42.6483231 136.3714804
  95.4545075  56.7786407 137.2860040  95.3199542  56.0186808 136.7198038
  95.0377137  57.5027307 136.8188829 106.5904038  51.9623330 126.2936616
 107.2939888  52.1673333 126.9094271 105.8666686  52.5300092 126.5585699
 107.4201848  47.7133191 132.4138886 107.3637049  48.1701743 131.5746518
 107.9730190  46.9523876 132.2361728 111.2306654  43.5022923 133.2389005
 110.9743588  43.1019559 134.0697213 110.6059522  44.2166717 133.1139144
  98.6114200  57.6755724 137.4978483  98.4946585  58.6201156 137.3957173
  97.7906647  57.3729285 137.8864282 108.4990735  52.4005859 128.3435076
 109.3336339  51.9687058 128.1612550 108.3375078  52.2287873 129.2711970
 108.1536627  48.9037973 129.7091415 108.0985431  48.7382244 128.7679859
 107.5282682  49.6114006 129.8653605  92.9429142  44.1406037 143.5352837
  93.5888006  43.6304991 144.0240062  92.7346293  44.8774719 144.1096262
 101.4632753  38.4046082 129.2876733 101.4511422  39.3487922 129.4445004
 102.3556174  38.2216227 128.9936194  99.6368715  58.3283986 140.7134411
 100.5395961  58.3607596 141.0300906  99.4106085  57.3984437 140.7280747
 101.3922317  57.0814972 137.3744490 100.4417948  57.0816834 137.2608862
 101.6954803  56.3347707 136.8580525 105.2784872  34.9988858 133.5422670
 104.5117268  34.4447345 133.6879352 105.6895577  35.0710727 134.4036822
 117.1275010  62.9175511 138.4390252 117.7653420  62.7982258 137.7353592
 117.0095853  63.8656354 138.4978204 113.9364716  62.8702939 138.3751777
 113.5983228  62.7544003 137.4872312 114.8054484  62.4694104 138.3552783
 109.7951532  64.7238415 134.3648668 109.2316397  64.6328352 133.5964956
 109.6803927  63.9038319 134.8451161 107.3415964  66.2189607 137.2032888
 108.1337256  65.8780431 136.7879188 107.5812614  66.3284582 138.1235042
 115.3751091  68.3909383 129.6763133 114.7239070  68.9763463 129.2897147
 116.1695454  68.9215578 129.7358170 109.3006718  65.4798520 130.0750267
 110.0737594  64.9327507 129.9363143 109.6532117  66.3442769 130.2864729
 112.0647967  64.1851751 139.8718526 112.6611540  63.9607773 139.1575489
 112.1222939  63.4436496 140.4743974 111.6372996  61.6391186 127.7068717
 111.8898516  61.1172707 126.9452180 110.6997555  61.4757331 127.8095401
 116.6816279  60.6426964 135.5143460 117.4679368  60.2246388 135.1633877
 116.9454983  61.5473057 135.6825109 116.8526356  66.0799815 130.2132117
 116.2172189  66.1534441 130.9253022 116.5223762  66.6693414 129.5351196
 122.0824706  60.5802198 136.4176439 122.8149878  60.0101414 136.6514268
 121.3264061  60.1923798 136.8582944 111.3569284  63.5419292 129.9093092
 111.2405543  62.8664195 130.5774176 111.4671544  63.0551666 129.0925245
 113.7000825  63.0029439 133.6139781 113.3359033  62.4760060 134.3252703
 114.5567941  62.6127908 133.4406267 113.3406312  58.0319339 128.6101130
 113.5080715  58.8999575 128.9771601 113.1503481  58.1946620 127.6862419
 116.0981646  66.4936318 140.2766960 115.7982369  67.3961356 140.1682767
 115.7532705  66.2268501 141.1288113 109.5494127  62.9450115 136.3103665
 108.6244623  62.8126329 136.5181356 109.7978540  63.7244334 136.8073607
 119.4978789  59.0118858 137.9564398 118.5895667  58.9434266 137.6623159
 119.4466385  59.4890803 138.7846223 113.3195533  60.4876996 129.5947797
 113.1995158  60.9334047 130.4333277 112.6248122  60.8362314 129.0361335
 106.9102938  62.5883388 137.1447454 107.0395319  62.8417867 138.0586865
 106.2300389  63.1811096 136.8252109 111.0802425  73.2580638 133.2437928
 111.0026455  74.2088463 133.3226408 110.4764069  72.9126511 133.9012854
 119.0180599  60.9598469 130.4228131 119.9298455  61.1925856 130.2475828
 118.5090246  61.5435514 129.8603209 113.6552437  60.3195704 141.4322980
 114.5013632  60.7435118 141.5757629 113.5951075  59.6629328 142.1261543
 117.6250182  65.9424288 137.8141712 116.9959044  66.1070002 137.1117780
 117.2375844  66.3565897 138.5852676 121.5039414  66.8778726 135.1686076
 120.8190452  67.2577627 134.6183109 121.5883263  67.4874052 135.9018024
 116.3616574  57.1356505 138.6717992 115.5001053  57.4337759 138.9634729
 116.3879009  57.3526904 137.7399024 113.1778144  65.6798696 135.0791797
 113.6416489  65.9586399 134.2896420 112.9134942  64.7782141 134.8964888
 110.0702225  65.2270178 138.0171561 110.6403582  65.6557446 137.3789045
 110.6610336  64.9452762 138.7155746 112.1147030  61.8021848 131.8881362
 112.8171073  62.2542892 132.3555289 111.7827658  61.1605667 132.5161256
 110.5627391  60.3933605 146.2632572 109.9326052  61.0749886 146.4967969
 110.4563479  60.2816687 145.3185710 105.8572364  60.0605401 137.1898496
 105.0671418  60.3162930 136.7138607 106.3483611  60.8753739 137.2950537
 107.8087109  60.4249980 134.1481973 107.0118272  60.5368675 134.6665468
 107.5812701  60.7636632 133.2822863 104.1410067  60.3135891 139.6213487
 104.3918105  61.1982901 139.8871063 104.6769615  60.1340493 138.8488579
 113.3540794  68.6162791 131.9643468 113.2186469  69.4614327 132.3928315
 113.8950607  68.8182069 131.2009401 106.8070192  66.1338229 132.5371393
 107.3194712  66.9281479 132.6876957 107.4592904  65.4364519 132.4704994
 108.6165076  69.2503985 134.6194146 108.7931705  70.1721950 134.4315130
 109.4121910  68.9362404 135.0488526 107.9017433  61.2968617 144.4956309
 107.7870948  60.3953874 144.7963408 107.0461951  61.5432314 144.1441126
 109.7396392  70.7682159 140.6204488 110.2903817  70.6399222 139.8481482
 108.9007868  71.0677048 140.2699381 104.7719108  64.4626883 133.3130963
 105.6094330  64.8723892 133.0964671 104.9497376  63.5226325 133.2831157
 116.6683541  62.1301964 129.0014796 116.1530164  62.9006569 129.2403184
 116.3960849  61.4567100 129.6247858 114.2530652  56.9751665 134.0600035
 113.3972248  56.5858515 133.8805673 114.6657603  57.0543626 133.1999820
 115.7829798  54.5098008 138.4591594 115.2794594  54.4728143 137.6459400
 116.0760405  55.4190751 138.5188251 112.0272684  54.5936738 137.4657776
 112.8925681  54.3979546 137.1063666 112.0950193  54.3647089 138.3927133
 121.6417815  64.8834319 130.9367970 120.8647257  64.5445478 130.4923132
 122.3209296  64.8886942 130.2622935 116.4569844  60.0029056 130.8274577
 116.1519979  60.3175205 131.6784721 117.4100286  60.0810476 130.8701910
 114.9016276  66.1619279 132.4767531 114.3737637  65.4272039 132.1640769
 114.4003778  66.9393956 132.2307500 119.8809122  64.3568300 137.5934578
 119.2232796  65.0467561 137.6814706 120.6849521  64.7464732 137.9368564
 109.6335003  56.8238946 134.8374143 110.2078755  56.6014127 134.1047336
 110.2205986  56.8927640 135.5902744 118.6914580  62.7112673 135.6438519
 119.2046462  63.3442664 136.1460229 119.3415804  62.1113868 135.2781879
 109.9604590  58.8543407 128.8570028 109.1241903  59.1918093 129.1779303
 109.8209360  58.7192386 127.9197165 111.9357671  53.6980195 133.5649212
 111.2822083  53.3829212 132.9405827 111.8938145  53.0755935 134.2909035
 113.0468876  63.9799490 125.4802504 112.1395937  63.7488743 125.6793653
 113.5439908  63.1837109 125.6676486 115.9536955  72.6896997 128.3999191
 115.2798653  72.9928694 129.0084148 116.3402777  73.4926077 128.0504648
 115.1695411  60.1862128 137.8896860 114.2517973  60.4077075 137.7318548
 115.5855555  60.2608439 137.0308567 115.9530459  61.5853544 133.0199540
 116.7002278  62.0974941 132.7106662 116.2222049  61.2637596 133.8803934
 114.2257109  64.0812084 130.0026495 113.3168328  63.7971117 130.0998964
 114.2552193  64.5011163 129.1429801 119.4576377  67.6918674 133.7717662
 119.0038704  66.8509584 133.8282853 118.8270343  68.3280072 134.1092442
 118.4009296  58.6210660 135.0018330 117.6632053  58.1088046 135.3328572
 118.6536070  58.1811042 134.1901606 117.9009316  69.5295171 134.7067480
 118.1932290  70.0900228 133.9879846 118.4107936  69.8223732 135.4620639
 104.7945280  61.8017599 133.9841697 104.5969679  61.2086959 133.2592763
 104.2391944  61.4969809 134.7017636 112.7742003  61.6940705 136.1036290
 112.8290613  60.7414541 136.0278766 111.9633205  61.8500144 136.5877588
 113.9233197  65.6220828 127.3414573 113.4852627  64.9056687 126.8820210
 114.6643638  65.8496943 126.7799664 110.7134363  60.3117765 133.8626669
 109.9002229  60.6111935 134.2691861 111.2093357  59.9173454 134.5801151
 112.8642941  70.3075522 135.7960933 112.8219120  70.5336368 134.8669465
 113.7805640  70.0738896 135.9446735 122.0406312  63.8978025 133.3990892
 121.9024210  64.0879621 132.4712081 121.6842531  64.6597408 133.8558943
 110.2048438  57.8836120 139.4787904 110.8447817  57.7424879 138.7810867
 109.3725968  57.5970634 139.1026506 110.9808742  67.1838551 135.5922896
 111.7749340  66.6888871 135.3905471 110.2700434  66.6556414 135.2290602
 107.2891505  61.3281633 131.6682649 106.3589093  61.2666088 131.8852611
 107.3848977  60.8057585 130.8719290 107.2077054  57.8536445 134.2560890
 107.4683872  58.7681779 134.1470051 108.0294227  57.3860888 134.4057503
 108.6801980  59.2674203 141.4259715 109.3525033  59.0591565 140.7772364
 107.8531766  59.0696289 140.9864947 114.7591686  63.7316908 141.5022196
 115.6883746  63.8828068 141.3291163 114.3382716  63.8200929 140.6470842
 113.5580018  67.7567573 139.2720733 113.4191103  67.3886357 140.1446671
 112.7694614  68.2715212 139.1004691 114.1528170  72.8576669 130.6146270
 114.3279925  72.3864712 131.4291892 113.4660958  73.4842435 130.8427530
 115.1085233  67.1349175 136.6609571 114.7735066  67.0949945 137.5567221
 114.6089179  66.4693891 136.1879981 109.0829477  62.5416805 142.1862152
 108.9449275  61.8097044 142.7873691 109.9934400  62.4525706 141.9046340
 118.0444425  64.4805210 126.9346631 117.4273595  63.7552038 126.8379683
 117.5760913  65.2414570 126.5913705 111.7111778  62.2536765 141.6745832
 112.4211396  61.6129957 141.6332450 111.6681086  62.5049660 142.5972013
 110.4240712  59.2401983 143.4941471 109.8878069  58.7892721 144.1463068
 109.8357420  59.3747892 142.7511936 109.8342970  58.6990634 126.0567935
 108.9572437  58.5779435 125.6930182 110.3100724  57.9076712 125.8046824
 101.3545111  63.4867794 136.1509442 102.0416150  63.1729524 135.5630457
 101.1993239  64.3909158 135.8776694 106.1579833  58.3757990 140.5794466
 106.0738021  57.7683660 139.8444876 105.3362539  58.8667009 140.5803962
 113.0206897  71.0516924 133.3030455 112.2374418  71.5938605 133.3968680
 113.7199642  71.5690904 133.7024697 116.3303547  56.8611554 135.9464661
 116.8272246  56.1081516 135.6265731 115.5590528  56.8975871 135.3807870
 117.4133327  65.6183241 133.5203084 116.4789606  65.7384704 133.3507789
 117.5909996  64.7155708 133.2563094 112.9138515  59.0028937 135.6736345
 112.5436303  58.4499977 136.3617251 113.4097608  58.3987070 135.1211345
 120.8005879  61.4600560 134.0553118 121.2666331  62.2928552 133.9813421
 121.2513379  60.9945542 134.7598377 118.8682110  67.8044382 131.0539270
 119.1441954  67.6900976 131.9633144 117.9986609  67.4061867 131.0151444
 118.5429000  62.0171039 140.5943914 117.8900450  62.2646947 139.9396367
 118.9209380  61.2035178 140.2606391 115.5036174  72.0530733 134.6972084
 115.6858568  71.2352388 135.1599836 116.3269160  72.2698425 134.2596974
 115.8378339  70.9798918 131.9587133 116.3666106  70.4691372 131.3457295
 116.1006559  70.6641448 132.8232666 106.3395432  68.9962787 139.7022466
 106.9248869  68.2506475 139.8350370 106.1420270  69.3066744 140.5859130
 109.1934087  72.0314034 134.7184908 108.5244462  72.5160162 134.2348949
 109.0546957  72.2783255 135.6328287 100.9313087  61.5668387 138.4226909
 100.9697186  61.0331978 139.2164027 100.4253380  61.0403593 137.8037886
 108.3103849  56.4132928 141.9189452 108.3745176  57.2747759 141.5066849
 108.2470969  55.8006929 141.1861810 107.7856122  58.4856060 145.5662486
 108.4128160  58.1033138 146.1800010 106.9284040  58.2670262 145.9318178
 104.5621664  60.2932489 131.4980841 104.8575105  59.3843168 131.4447894
 103.6609700  60.2720229 131.1761843 108.0915911  58.3688486 137.4808389
 107.3702497  58.9824454 137.3415863 108.8809167  58.9046251 137.4025035
 106.2909506  57.9746587 131.6220166 105.9622212  57.0943966 131.4395272
 106.6448877  57.9194256 132.5096555 115.5389085  69.6101490 136.1315151
 115.3914047  68.6818197 136.3122721 116.3642578  69.6321580 135.6472227
 109.4051329  58.2619557 131.9895643 109.7447402  58.7905478 131.2674252
 109.8523450  58.5999963 132.7654210 112.0994770  56.6456608 141.4398711
 111.7591590  55.8464421 141.8419391 111.3933776  56.9458318 140.8675545
 112.7511242  53.7305920 139.8926035 113.5737311  53.2566398 139.7704925
 112.9949305  54.5096404 140.3924721 111.3919476  56.7594178 130.1888936
 112.1127839  57.1375431 129.6852653 110.7684780  57.4783055 130.2923914
 115.5350599  57.4639327 131.1247269 115.7514213  58.3463965 130.8236097
 115.0544666  57.0725541 130.3952911 110.2749820  60.4225041 137.7018013
 110.1294401  60.7365344 138.5942295 109.7975024  61.0409941 137.1488912
 112.1346203  57.4127589 137.7498903 112.1207772  56.5168682 137.4131201
 112.8518631  57.4198252 138.3837189 113.9872334  57.8464929 139.7952030
 113.7290112  58.7681999 139.7936361 113.4557374  57.4495363 140.4852494
 118.9318523  70.9515716 132.5742116 119.1055400  70.3862138 131.8215968
 119.4247414  71.7516611 132.3921605 104.7495483  62.9630385 140.6405674
 104.2048951  63.7390193 140.7725949 105.6274832  63.3101189 140.4824796
 111.5383099  56.2941969 133.0186473 111.6599010  55.3658615 133.2177360
 111.2485142  56.3080655 132.1064788 114.4074290  53.9796879 136.1553193
 114.4295986  54.0436212 135.2005172 114.8242349  53.1401388 136.3493699
 124.7857914  63.7152139 134.1932415 125.2289060  62.9659464 133.7951539
 123.9084424  63.7062275 133.8106147 119.9193695  70.2682480 129.6739014
 120.6144600  70.8889173 129.8926328 120.2616845  69.4177832 129.9491392
 105.5361504  62.0900281 143.5335831 104.7943241  62.2382917 144.1200462
 105.2154249  62.3508547 142.6702581 121.8185118  67.7182186 131.2026345
 122.3436443  68.0569459 130.4775665 121.7307471  66.7829201 131.0189479
 113.5025779  73.7854169 135.5621598 113.0630769  73.2930548 136.2554454
 114.2533896  73.2427137 135.3213673 105.9818118  69.9765710 135.5646226
 106.8076138  69.6769482 135.1844869 105.6312170  69.2073332 136.0136014
 110.9499651  69.3292178 137.6343899 110.3279661  68.6662883 137.3346127
 111.6204518  69.3553310 136.9517547 104.1826723  67.8952036 136.5235159
 103.3458632  67.4674211 136.3419161 104.1550369  68.0884480 137.4605951
 110.5113158  67.8796102 131.1102360 110.6601279  68.5631566 130.4569033
 111.3179602  67.8601192 131.6251816 124.3290779  65.1857377 136.5854863
 125.1637670  65.6247181 136.7492423 124.4649907  64.7096030 135.7663109
 108.2665791  63.9061279 132.1163429 108.0211833  63.0023609 132.3143639
 108.4361706  63.9078430 131.1742907 107.5361439  59.6389637 129.6149590
 106.8430684  59.7133992 128.9589626 107.2913191  58.8749980 130.1371107
 114.0108564  70.3744232 128.5814107 113.4382531  70.9934419 128.1284579
 114.5841357  70.9243594 129.1154029 117.2305824  70.6581382 129.7122690
 118.1636497  70.5926944 129.9155565 117.1429036  71.4937649 129.2537222
 119.8593840  69.9747252 126.6726637 119.7807472  69.6407116 127.5662395
 120.6803507  70.4669020 126.6718110 114.3955362  61.7105045 125.9230160
 115.3414467  61.5811253 125.9918578 114.0169607  60.9719707 126.3999588
 112.5798279  59.6355021 125.8585045 111.6729735  59.3388134 125.9347759
 112.8574260  59.3384839 124.9919331 103.4976220  60.9561385 136.3084091
 103.1779004  60.1026693 136.0158465 102.9509648  61.1709963 137.0642059
 107.2756127  63.6723826 140.0253598 107.4942137  64.6040933 140.0441632
 107.6881901  63.3131800 140.8108402 114.1960345  54.1791911 132.0129286
 113.3861073  53.8338996 132.3884532 114.8844762  53.8699455 132.6016898
 116.1250893  53.2569958 133.6353583 116.6781932  53.6765411 134.2943606
 116.3620980  52.3305706 133.6776539 111.3497064  56.4941956 125.9997024
 112.2116228  56.8196855 126.2592842 111.5347408  55.7073452 125.4870090
 103.3664480  64.5764296 138.2777213 102.6727951  64.1618249 137.7647167
 104.1137471  64.6184833 137.6810632 119.5029701  55.3670483 133.1432247
 118.9228370  56.0255287 132.7610300 119.2365633  54.5447827 132.7319665
 117.9533267  54.7675541 135.3453568 118.4533045  54.8792075 134.5367886
 118.5968875  54.4636593 135.9854376 105.2801222  64.5082550 136.1543228
 105.2571910  64.6070237 135.2025111 105.5901859  65.3547701 136.4760394
 107.9388600  66.5658705 140.2689842 108.8931854  66.5342647 140.2019774
 107.7401124  66.1049329 141.0840068 108.5287982  65.1359821 142.8360640
 109.3480871  65.6303900 142.8595477 108.8024790  64.2191789 142.8078208
 118.2854579  57.5270573 132.1988596 117.3980434  57.8120224 131.9808790
 118.7008568  57.3664337 131.3515872 121.6369115  57.5517094 135.9142935
 122.4129505  58.0413547 136.1867552 120.9117249  57.9775148 136.3714804
 106.2938829  72.1078324 137.2860040 106.1593297  71.3478725 136.7198038
 105.8770891  72.8319224 136.8188829 117.4297792  67.2915248 126.2936616
 118.1333642  67.4965250 126.9094271 116.7060441  67.8592010 126.5585699
 118.2595602  63.0425109 132.4138886 118.2030804  63.4993661 131.5746518
 118.8123945  62.2815794 132.2361728 122.0700408  58.8314841 133.2389005
 121.8137342  58.4311477 134.0697213 121.4453276  59.5458635 133.1139144
 109.4507955  73.0047641 137.4978483 109.3340339  73.9493074 137.3957173
 108.6300401  72.7021203 137.8864282 119.3384489  67.7297777 128.3435076
 120.1730093  67.2978976 128.1612550 119.1768832  67.5579791 129.2711970
 118.9930382  64.2329890 129.7091415 118.9379185  64.0674162 128.7679859
 118.3676437  64.9405923 129.8653605 103.7822897  59.4697955 143.5352837
 104.4281760  58.9596909 144.0240062 103.5740048  60.2066636 144.1096262
 112.3026507  53.7337999 129.2876733 112.2905177  54.6779839 129.4445004
 113.1949929  53.5508145 128.9936194 112.2316071  72.4106890 137.3744490
 111.2811702  72.4108751 137.2608862 112.5348557  71.6639624 136.8580525
 116.1178627  50.3280776 133.5422670 115.3511022  49.7739263 133.6879352
 116.5289331  50.4002645 134.4036822 120.1400472  80.8090438 130.0750267
 120.9131348  80.2619425 129.9363143 120.4925871  81.6734687 130.2864729
 122.4766750  76.9683104 127.7068717 122.7292271  76.4464625 126.9452180
 121.5391309  76.8049249 127.8095401 122.1963039  78.8711210 129.9093092
 122.0799297  78.1956113 130.5774176 122.3065299  78.3843584 129.0925245
 124.1800067  73.3611256 128.6101130 124.3474469  74.2291493 128.9771601
 123.9897236  73.5238538 127.6862419 124.1589288  75.8168914 129.5947797
 124.0388913  76.2625965 130.4333277 123.4641876  76.1654232 129.0361335
 118.6480863  75.7541898 134.1481973 117.8512027  75.8660592 134.6665468
 118.4206456  76.0928550 133.2822863 127.5077295  77.4593882 129.0014796
 126.9923918  78.2298486 129.2403184 127.2354603  76.7859018 129.6247858
 120.7998345  74.1835324 128.8570028 119.9635657  74.5210011 129.1779303
 120.6603114  74.0484304 127.9197165 122.7751425  69.0272112 133.5649212
 122.1215838  68.7121129 132.9405827 122.7331899  68.4047853 134.2909035
 123.8862630  79.3091407 125.4802504 122.9789692  79.0780661 125.6793653
 124.3833662  78.5129027 125.6676486 115.6339034  77.1309516 133.9841697
 115.4363434  76.5378877 133.2592763 115.0785698  76.8261726 134.7017636
 124.7626951  80.9512746 127.3414573 124.3246381  80.2348605 126.8820210
 125.5037392  81.1788861 126.7799664 118.1285260  76.6573550 131.6682649
 117.1982848  76.5958006 131.8852611 118.2242732  76.1349503 130.8719290
 118.0470809  73.1828363 134.2560890 118.3077626  74.0973696 134.1470051
 118.8687981  72.7152806 134.4057503 128.8838179  79.8097127 126.9346631
 128.2667350  79.0843956 126.8379683 128.4154668  80.5706488 126.5913705
 120.6736725  74.0282552 126.0567935 119.7966191  73.9071353 125.6930182
 121.1494478  73.2368630 125.8046824 115.4015419  75.6224407 131.4980841
 115.6968860  74.7135085 131.4447894 114.5003455  75.6012146 131.1761843
 117.1303260  73.3038505 131.6220166 116.8015967  72.4235884 131.4395272
 117.4842631  73.2486173 132.5096555 120.2445084  73.5911474 131.9895643
 120.5841156  74.1197396 131.2674252 120.6917204  73.9291881 132.7654210
 122.2313231  72.0886096 130.1888936 122.9521593  72.4667349 129.6852653
 121.6078535  72.8074973 130.2923914 126.3744354  72.7931245 131.1247269
 126.5907968  73.6755883 130.8236097 125.8938421  72.4017458 130.3952911
 122.3776854  71.6233887 133.0186473 122.4992765  70.6950533 133.2177360
 122.0878896  71.6372573 132.1064788 119.1059546  79.2353197 132.1163429
 118.8605588  78.3315527 132.3143639 119.2755460  79.2370347 131.1742907
 118.3755193  74.9681554 129.6149590 117.6824438  75.0425909 128.9589626
 118.1306945  74.2041898 130.1371107 125.2349117  77.0396962 125.9230160
 126.1808221  76.9103171 125.9918578 124.8563362  76.3011624 126.3999588
 123.4192034  74.9646939 125.8585045 122.5123489  74.6680052 125.9347759
 123.6968015  74.6676757 124.9919331 125.0354100  69.5083829 132.0129286
 124.2254828  69.1630914 132.3884532 125.7238517  69.1991372 132.6016898
 126.9644648  68.5861875 133.6353583 127.5175687  69.0057329 134.2943606
 127.2014734  67.6597623 133.6776539 122.1890819  71.8233874 125.9997024
 123.0509983  72.1488772 126.2592842 122.3741163  71.0365370 125.4870090
 123.1420262  69.0629917 129.2876733 123.1298931  70.0071757 129.4445004
 124.0343683  68.8800062 128.9936194 126.9572381  65.6572694 133.5422670
 126.1904777  65.1031180 133.6879352 127.3683086  65.7294562 134.4036822
  78.5621163   4.2767008 119.9683235  78.4845193   5.2274833 120.0471715
  77.9582807   3.9312880 120.6258161  80.8359532  -0.3650839 118.6888774
  80.7005207   0.4800696 119.1173622  81.3769345  -0.1631562 117.9254708
  83.4355692   3.7083366 115.1244497  82.7617391   4.0115063 115.7329455
  83.8221514   4.5112447 114.7749954  81.6346908   3.8763039 117.3391576
  81.8098663   3.4051082 118.1537199  80.9479696   4.5028805 117.5672837
  80.5025634   2.0703294 120.0275762  79.7193156   2.6124974 120.1213987
  81.2018379   2.5877274 120.4270003  82.9854912   3.0717102 121.4217391
  83.1677306   2.2538758 121.8845143  83.8087898   3.2884794 120.9842281
  83.3197077   1.9985287 118.6832439  83.8484844   1.4877742 118.0702601
  83.5825297   1.6827817 119.5477972  77.9931896  -1.1017529 117.8347667
  78.1420016  -0.4182064 117.1814339  78.7998339  -1.1212439 118.3497122
  81.4927302   1.3930602 115.3059414  80.9201269   2.0120789 114.8529886
  82.0660095   1.9429963 115.8399336  84.7124561   1.6767752 116.4367996
  85.6455234   1.6113313 116.6400872  84.6247774   2.5124019 115.9782529
  95.4487502   9.2653798 125.1635559  96.0865912   9.1460545 124.4598899
  95.3308345  10.2134642 125.2223511  92.2577209   9.2181226 125.0997084
  91.9195720   9.1022291 124.2117619  93.1266977   8.8172391 125.0798090
  88.1164024  11.0716702 121.0893975  87.5528889  10.9806639 120.3210262
  88.0016419  10.2516607 121.5696467  85.6628456  12.5667894 123.9278195
  86.4549748  12.2258719 123.5124494  85.9025106  12.6762869 124.8480348
  93.6963583  14.7387670 116.4008440  93.0451563  15.3241750 116.0142453
  94.4907946  15.2693865 116.4603477  87.6219210  11.8276807 116.7995574
  88.3950086  11.2805794 116.6608450  87.9744609  12.6921056 117.0110035
  89.4604253  13.1553189 130.0062473  89.1694119  14.0598820 129.8909139
  90.0961237  13.1969717 130.7206543  90.3860460  10.5330038 126.5963833
  90.9824032  10.3086060 125.8820796  90.4435431   9.7914783 127.1989281
  89.9585488   7.9869473 114.4314024  90.2111009   7.4650995 113.6697487
  89.0210047   7.8235619 114.5340707  95.0028771   6.9905252 122.2388767
  95.7891860   6.5724675 121.8879184  95.2667475   7.8951344 122.4070415
  95.1738848  12.4278102 116.9377424  94.5384681  12.5012728 117.6498328
  94.8436255  13.0171701 116.2596503  89.6781777   9.8897579 116.6338399
  89.5618035   9.2142483 117.3019483  89.7884037   9.4029953 115.8170552
  92.0213318   9.3507726 120.3385088  91.6571525   8.8238347 121.0498009
  92.8780434   8.9606195 120.1651573  91.6618805   4.3797626 115.3346437
  91.8293207   5.2477862 115.7016908  91.4715974   4.5424908 114.4107726
  94.4194138  12.8414605 127.0012267  94.1194861  13.7439644 126.8928074
  94.0745197  12.5746788 127.8533420  87.8706619   9.2928402 123.0348971
  86.9457116   9.1604616 123.2426663  88.1191032  10.0722621 123.5318914
  91.6408025   6.8355283 116.3193103  91.5207651   7.2812334 117.1578584
  90.9460614   7.1840601 115.7606641  85.2315430   8.9361675 123.8692760
  85.3607811   9.1896154 124.7832172  84.5512882   9.5289383 123.5497415
  89.4014918  19.6058925 119.9683235  89.3238947  20.5566750 120.0471715
  88.7976561  19.2604798 120.6258161  97.3393092   7.3076757 117.1473437
  98.2510948   7.5404143 116.9721135  96.8302739   7.8913801 116.5848516
  95.6233859  11.7301385 130.7834730  96.0317215  11.2883795 130.0389362
  94.9011121  11.1554012 131.0368923  95.9462674  12.2902575 124.5387019
  95.3171536  12.4548289 123.8363087  95.5588336  12.7044185 125.3097983
  99.8251906  13.2257013 121.8931383  99.1402944  13.6055914 121.3428416
  99.9095755  13.8352340 122.6263330  97.0802837  10.8716972 128.4926726
  97.2919733  11.5148732 127.8161107  97.0332586  10.0379289 128.0248656
  91.4990636  12.0276983 121.8037104  91.9628981  12.3064686 121.0141726
  91.2347434  11.1260428 121.6210195  88.3914717  11.5748465 124.7416867
  88.9616074  12.0035733 124.1034352  88.9822829  11.2931049 125.4401053
  90.4359522   8.1500136 118.6126669  91.1383565   8.6021179 119.0800595
  90.1040150   7.5083954 119.2406562  84.1784856   6.4083688 123.9143803
  83.3883910   6.6641217 123.4383913  84.6696103   7.2232026 124.0195843
  98.1948665  13.7488927 126.6649083  99.0166109  13.3469115 126.3831765
  98.1911068  13.6457162 127.6165199  86.1299601   6.7728267 120.8727279
  85.3330765   6.8846962 121.3910775  85.9025193   7.1114920 120.0068170
  91.9605269  13.2972971 128.8209794  92.0249701  13.7593378 129.6567966
  91.2516193  12.6670336 128.9492104  91.6753286  14.9641078 118.6888774
  91.5398961  15.8092614 119.1173622  92.2163099  15.1660356 117.9254708
  85.1282684  12.4816516 119.2616699  85.6407204  13.2759766 119.4122264
  85.7805397  11.7842807 119.1950301  86.9377569  15.5982273 121.3439453
  87.1144197  16.5200237 121.1560436  87.7334402  15.2840692 121.7733832
  93.3021763  15.5864645 132.8189116  92.8585617  14.8001023 132.5010021
  93.9638976  15.7743795 132.1533007  88.0608884  17.1160446 127.3449795
  88.6116309  16.9877510 126.5726789  87.2220360  17.4155335 126.9944688
  95.4003001  15.8667445 130.8470518  95.3821476  16.6876326 130.3550787
  96.3222921  15.7421520 131.0720659  83.0931601  10.8105171 120.0376270
  83.9306823  11.2202179 119.8209978  83.2709868   9.8704613 120.0076464
  94.9896033   8.4780251 115.7260103  94.4742656   9.2484856 115.9648490
  94.7173341   7.8045387 116.3493164  99.9630307  11.2312606 117.6613276
  99.1859750  10.8923765 117.2168438 100.6421788  11.2365229 116.9868241
  94.7782336   6.3507343 117.5519884  94.4732472   6.6653492 118.4030027
  95.7312778   6.4288763 117.5947217  93.2228768  12.5097567 119.2012838
  92.6950129  11.7750326 118.8886075  92.7216271  13.2872243 118.9552806
  98.2021614  10.7046587 124.3179884  97.5445288  11.3945848 124.4060013
  99.0062013  11.0943019 124.6613871  87.9547495   3.1717233 121.5619450
  88.5291247   2.9492414 120.8292642  88.5418478   3.2405927 122.3148051
  97.0127073   9.0590960 122.3683826  97.5258954   9.6920952 122.8705536
  97.6628297   8.4592155 122.0027186  88.2817083   5.2021694 115.5815335
  87.4454395   5.5396380 115.9024610  88.1421852   5.0670674 114.6442472
  91.3681368  10.3277777 112.2047811  90.4608430  10.0967030 112.4038960
  91.8652400   9.5315396 112.3921793  94.2749447  19.0375284 115.1244497
  93.6011146  19.3406981 115.7329455  94.6615269  19.8404364 114.7749954
  93.4907903   6.5340415 124.6142167  92.5730465   6.7555362 124.4563855
  93.9068047   6.6086726 123.7553874  94.2742951   7.9331831 119.7444847
  95.0214770   8.4453228 119.4351969  94.5434541   7.6115884 120.6049240
  92.5469601  10.4290372 116.7271801  91.6380821  10.1449405 116.8244271
  92.5764685  10.8489450 115.8675108  97.7788869  14.0396961 120.4962969
  97.3251196  13.1987871 120.5528159  97.1482836  14.6758360 120.8337749
  96.2221808  15.8773458 121.4312787  96.5144782  16.4378515 120.7125152
  96.7320429  16.1702019 122.1865946  83.1157772   8.1495886 120.7087003
  82.9182172   7.5565247 119.9838070  82.5604436   7.8448096 121.4262942
  91.0954495   8.0418992 122.8281597  91.1503105   7.0892829 122.7524073
  90.2845697   8.1978431 123.3122895  92.2445689  11.9699115 114.0659880
  91.8065119  11.2534974 113.6065517  92.9856130  12.1975230 113.5044971
  89.0346855   6.6596052 120.5871975  88.2214721   6.9590223 120.9937168
  89.5305850   6.2651741 121.3046458  91.1855433  16.6553809 122.5206240
  91.1431612  16.8814655 121.5914772  92.1018132  16.4217184 122.6692041
 100.3618804  10.2456312 120.1236198 100.2236703  10.4357908 119.1957388
 100.0055023  11.0075695 120.5804249 100.3888184  12.3132839 125.1347470
 100.8224690  12.2208129 125.9830524 101.1019764  12.2890340 124.4967486
  89.3021234  13.5316838 122.3168203  90.0961833  13.0367158 122.1150778
  88.5912926  13.0034701 121.9535908  94.1216079  15.9134934 126.6680570
  94.1753101  16.4825870 127.4358286  93.2530860  16.0836819 126.3034608
  85.6103998   7.6759920 118.3927955  84.6801586   7.6144375 118.6097918
  85.7061470   7.1535873 117.5964597  85.5289547   4.2014733 120.9806197
  85.7896364   5.1160066 120.8715358  86.3506719   3.7339175 121.1302810
  93.0804178  10.0795196 128.2267502  94.0096238  10.2306355 128.0536470
  92.6595208  10.1679216 127.3716149  91.8792510  14.1045860 125.9966040
  91.7403596  13.7364644 126.8691978  91.0907106  14.6193499 125.8249998
  92.4740662  19.2054956 117.3391576  92.6492418  18.7343000 118.1537199
  91.7873450  19.8320723 117.5672837  93.4297725  13.4827463 123.3854878
  93.0947558  13.4428233 124.2812528  92.9301671  12.8172179 122.9125288
  96.3656917  10.8283497 113.6591937  95.7486087  10.1030325 113.5624990
  95.8973405  11.5892857 113.3159012  98.0211049  15.5382405 131.3197718
  97.9623595  14.8541626 130.6528301  98.4230567  16.2801395 130.8678344
  87.0401747  22.3544319 124.1131437  87.2798346  22.9862843 124.7910455
  86.1970944  22.0032359 124.3996796  88.1555463   5.0468921 112.7813242
  87.2784929   4.9257722 112.4175488  88.6313216   4.2555000 112.5292130
  79.6757603   9.8346081 122.8754749  80.3628643   9.5207811 122.2875764
  79.5205732  10.7387446 122.6022000  91.5529609  18.1623442 126.5172941
  91.4799781  18.9678413 127.0292245  91.1107002  18.3615408 125.6920962
  91.3419389  17.3995212 120.0275762  90.5586911  17.9416892 120.1213987
  92.0412134  17.9169191 120.4270003  94.0128293  18.0610276 128.6731099
  94.7256265  18.6957741 128.6007001  93.5218321  18.1574142 127.8571101
  95.7345820  11.9661528 120.2448391  94.8002098  12.0862991 120.0753095
  95.9122488  11.0633995 119.9808401  91.2351008   5.3507224 122.3981652
  90.8648795   4.7978265 123.0862558  91.7310100   4.7465358 121.8456652
  99.1218371   7.8078848 120.7798425  99.5878823   8.6406839 120.7058728
  99.5725871   7.3423829 121.4843684  89.0640206  15.8104719 129.4936670
  89.7649666  16.4441202 129.6466064  88.5935321  16.1519451 128.7332309
  97.1894602  14.1522669 117.7784577  97.4654446  14.0379264 118.6878451
  96.3199101  13.7540154 117.7396750  96.8641492   8.3649327 127.3189220
  96.2112942   8.6125234 126.6641673  97.2421872   7.5513465 126.9851698
  93.8248666  18.4009020 121.4217391  94.0071061  17.5830676 121.8845143
  94.6481652  18.6176712 120.9842281  94.1590832  17.3277205 118.6832439
  94.6878598  16.8169660 118.0702601  94.4219051  17.0119735 119.5477972
  84.6607924  15.3441074 126.4267773  85.2461361  14.5984762 126.5595677
  84.4632763  15.6545031 127.3104437  87.5146580  18.3792322 121.4430215
  86.8456955  18.8638449 120.9594255  87.3759449  18.6261542 122.3573594
  91.6551848  20.4136065 128.0412873  92.2070156  20.5767687 128.8061959
  91.9958042  21.0040503 127.3692898  82.8834157   6.6410777 118.2226147
  83.1787598   5.7321455 118.1693201  81.9822192   6.6198516 117.9007150
  94.7920235  18.3618041 125.0276556  94.6671375  17.5607781 124.5187501
  95.4499326  18.8564234 124.5390526  86.4128404   4.7166773 124.2053696
  85.6914989   5.3302741 124.0661169  87.2021659   5.2524538 124.1270342
  96.8555144  16.1627061 126.6556106  95.9085479  16.0432412 126.5834432
  97.2037917  15.2749559 126.7382367  84.6121998   4.3224874 118.3465472
  84.2834704   3.4422253 118.1640578  84.9661369   4.2672543 119.2341862
  93.8601577  15.9579777 122.8560458  93.7126539  15.0296484 123.0368028
  94.6855071  15.9799868 122.3717533  87.7263821   4.6097844 118.7140950
  88.0659894   5.1383765 117.9919558  88.1735942   4.9478250 119.4899517
  97.4635699  16.7808336 123.9425331  98.3882246  16.5751197 123.8049782
  97.2951002  16.5324737 124.8514672  89.7131968   3.1072466 116.9134243
  90.4340331   3.4853718 116.4097960  89.0897273   3.8261342 117.0169221
  88.5962313   6.7703328 124.4263320  88.4506893   7.0843631 125.3187601
  88.1187516   7.3888228 123.8734218  97.2531015  17.2994003 119.2987422
  97.4267893  16.7340426 118.5461275  97.7459906  18.0994898 119.1166912
 103.1070406  10.0630426 120.9177722 103.5501552   9.3137751 120.5196845
 102.2296917  10.0540562 120.5351454  98.2406188  16.6160768 116.3984320
  98.9357092  17.2367460 116.6171635  98.5829338  15.7656119 116.6736698
 100.1397611  14.0660473 117.9271651 100.6648935  14.4047746 117.2020971
 100.0519963  13.1307488 117.7434786  91.8017659  17.9794547 130.0561528
  92.1104786  17.7343694 130.9284227  92.5993141  18.1841185 129.5680398
  91.8238271  20.1332456 122.2866904  91.3843262  19.6408835 122.9799761
  92.5746388  19.5905424 122.0458980  84.3030610  16.3243997 122.2891532
  85.1288630  16.0247769 121.9090176  83.9524662  15.5551620 122.7381321
  89.2712144  15.6770465 124.3589206  88.6492153  15.0141170 124.0591434
  89.9417011  15.7031597 123.6762854  82.5039215  14.2430324 123.2480466
  81.6671124  13.8152498 123.0664467  82.4762861  14.4362767 124.1851257
  88.8325651  14.2274389 117.8347667  88.9813771  14.9109853 117.1814339
  89.6392094  14.2079479 118.3497122 102.6503271  11.5335664 123.3100169
 103.4850162  11.9725468 123.4737730 102.7862400  11.0574318 122.4908415
  86.5878284  10.2539566 118.8408735  86.3424325   9.3501896 119.0388946
  86.7574198  10.2556717 117.8988213  85.8573931   5.9867924 116.3394897
  85.1643176   6.0612279 115.6834933  85.6125683   5.2228268 116.8616414
  92.3321056  16.7222519 115.3059414  91.7595023  17.3412706 114.8529886
  92.9053850  17.2721881 115.8399336  95.5518316  17.0059669 116.4367996
  96.4848989  16.9405231 116.6400872  95.4641529  17.8415936 115.9782529
  98.1806333  16.3225540 113.3971944  98.1019964  15.9885403 114.2907702
  99.0015999  16.8147308 113.3963416  92.7167855   8.0583332 112.6475467
  93.6626959   7.9289540 112.7163885  92.3382100   7.3197994 113.1244895
  90.9010772   5.9833308 112.5830352  89.9942227   5.6866421 112.6593065
  91.1786753   5.6863126 111.7164638  81.8188712   7.3039672 123.0329398
  81.4991496   6.4504980 122.7403772  81.2722140   7.5188250 123.7887365
  85.5968620  10.0202113 126.7498905  85.8154629  10.9519221 126.7686938
  86.0094393   9.6610087 127.5353708  81.6876972  10.9242583 125.0022520
  80.9940444  10.5096536 124.4892474  82.4349963  10.9663120 124.4055939
  83.6013715  10.8560837 122.8788535  83.5784403  10.9548524 121.9270418
  83.9114351  11.7025988 123.2005701  86.2601092  12.9136992 126.9935149
  87.2144346  12.8820934 126.9265081  86.0613616  12.4527616 127.8085375
  84.6151321  18.4556612 124.0105347  84.4805789  17.6957012 123.4443345
  84.1983384  19.1797511 123.5434136  95.7510284  13.6393535 113.0181922
  96.4546134  13.8443538 113.6339578  95.0272933  14.2070297 113.2831006
  96.5808095   9.3903396 119.1384192  96.5243296   9.8471948 118.2991825
  97.1336437   8.6294081 118.9607035  87.7720447  19.3525929 124.2223790
  87.6552831  20.2971361 124.1202480  86.9512893  19.0499490 124.6109589
  97.6596982  14.0776064 115.0680382  98.4942586  13.6457263 114.8857857
  97.4981325  13.9058078 115.9957277  97.3142874  10.5808178 116.4336722
  97.2591678  10.4152449 115.4925166  96.6888929  11.2884211 116.5898911
  88.7974961  20.0054190 127.4379718  89.7002208  20.0377801 127.7546213
  88.5712331  19.0754641 127.4526054  90.5528563  18.7585177 124.0989797
  89.6024194  18.7587039 123.9854169  90.8561049  18.0117912 123.5825831
 106.2881257  24.5945715 125.1635559 106.9259667  24.4752463 124.4598899
 106.1702100  25.5426559 125.2223511 103.0970963  24.5473144 125.0997084
 102.7589475  24.4314208 124.2117619 103.9660731  24.1464309 125.0798090
  98.9557779  26.4008620 121.0893975  98.3922644  26.3098557 120.3210262
  98.8410174  25.5808524 121.5696467 103.5790746  25.7007995 131.0583289
 103.5679387  25.3060794 130.1863793 103.7411386  24.9674068 131.6517061
  96.5022211  27.8959812 123.9278195  97.2943503  27.5550636 123.5124494
  96.7418861  28.0054787 124.8480348 104.5357337  30.0679588 116.4008440
 103.8845317  30.6533668 116.0142453 105.3301700  30.5985783 116.4603477
  98.4612965  27.1568725 116.7995574  99.2343841  26.6097712 116.6608450
  98.8138364  28.0212974 117.0110035 100.2998007  28.4845107 130.0062473
 100.0087873  29.3890738 129.8909139 100.9354992  28.5261635 130.7206543
 101.2254214  25.8621956 126.5963833 101.8217786  25.6377978 125.8820796
 101.2829186  25.1206701 127.1989281 100.7979242  23.3161391 114.4314024
 101.0504763  22.7942912 113.6697487  99.8603802  23.1527536 114.5340707
 105.8422525  22.3197169 122.2388767 106.6285615  21.9016592 121.8879184
 106.1061230  23.2243261 122.4070415 106.0132603  27.7570020 116.9377424
 105.3778436  27.8304646 117.6498328 105.6830009  28.3463618 116.2596503
 111.2430952  22.2572402 123.1421746 111.9756124  21.6871619 123.3759575
 110.4870308  21.8694003 123.5828251 100.5175531  25.2189497 116.6338399
 100.4011789  24.5434400 117.3019483 100.6277791  24.7321871 115.8170552
 102.8607072  24.6799644 120.3385088 102.4965279  24.1530265 121.0498009
 103.7174188  24.2898113 120.1651573 102.5012559  19.7089544 115.3346437
 102.6686961  20.5769780 115.7016908 102.3109728  19.8716825 114.4107726
 105.2587892  28.1706523 127.0012267 104.9588615  29.0731561 126.8928074
 104.9138952  27.9038706 127.8533420  98.7100374  24.6220319 123.0348971
  97.7850870  24.4896534 123.2426663  98.9584787  25.4014539 123.5318914
 108.6585036  20.6889063 124.6809704 107.7501913  20.6204471 124.3868465
 108.6072632  21.1661008 125.5091530 102.4801780  22.1647201 116.3193103
 102.3601405  22.6104252 117.1578584 101.7854368  22.5132519 115.7606641
  96.0709185  24.2653593 123.8692760  96.2001566  24.5188072 124.7832172
  95.3906636  24.8581301 123.5497415 100.2408672  34.9350843 119.9683235
 100.1632702  35.8858668 120.0471715  99.6370316  34.5896715 120.6258161
 108.1786846  22.6368674 117.1473437 109.0904702  22.8696061 116.9721135
 107.6696493  23.2205719 116.5848516 100.9872274  24.9164162 132.1862568
 101.7286959  25.4549206 131.9097392 100.2809260  25.5430450 132.3434120
 106.4627614  27.0593302 130.7834730 106.8710970  26.6175713 130.0389362
 105.7404875  26.4845930 131.0368923 102.8158684  21.9965909 128.1568287
 103.6619879  22.4205323 128.3002936 102.7557322  21.3399533 128.8506850
 106.7856428  27.6194493 124.5387019 106.1565291  27.7840207 123.8363087
 106.3982091  28.0336102 125.3097983 110.6645660  28.5548931 121.8931383
 109.9796698  28.9347832 121.3428416 110.7489510  29.1644257 122.6263330
 107.9196592  26.2008890 128.4926726 108.1313487  26.8440650 127.8161107
 107.8726340  25.3671206 128.0248656 105.5222821  18.8126710 125.3963298
 104.6607300  19.1107964 125.6880036 105.5485256  19.0297109 124.4644331
 102.3384390  27.3568901 121.8037104 102.8022736  27.6356604 121.0141726
 102.0741188  26.4552345 121.6210195  99.2308471  26.9040382 124.7416867
  99.8009828  27.3327651 124.1034352  99.8216583  26.6222967 125.4401053
 101.2753276  23.4792053 118.6126669 101.9777320  23.9313097 119.0800595
 100.9433905  22.8375872 119.2406562  99.7233638  22.0703810 132.9877878
  99.0932298  22.7520091 133.2213275  99.6169726  21.9586891 132.0431017
  95.0178610  21.7375606 123.9143803  94.2277664  21.9933134 123.4383913
  95.5089858  22.5523944 124.0195843 109.0342420  29.0780845 126.6649083
 109.8559864  28.6761032 126.3831765 109.0304823  28.9749079 127.6165199
  96.9693356  22.1020185 120.8727279  96.1724519  22.2138879 121.3910775
  96.7418948  22.4406837 120.0068170 102.7999023  28.6264888 128.8209794
 102.8643456  29.0885296 129.6567966 102.0909947  27.9962253 128.9492104
  93.3016313  21.9906096 126.3458793  93.5524352  22.8753106 126.6116369
  93.8375862  21.8110698 125.5733885 102.5147041  30.2932996 118.6888774
 102.3792716  31.1384532 119.1173622 103.0556853  30.4952274 117.9254708
  95.9676438  27.8108434 119.2616699  96.4800959  28.6051684 119.4122264
  96.6199151  27.1134724 119.1950301  97.7771323  30.9274190 121.3439453
  97.9537951  31.8492155 121.1560436  98.5728157  30.6132609 121.7733832
  97.0623680  22.9738822 131.2201616  96.9477195  22.0724079 131.5208715
  96.2068197  23.2202519 130.8686432 104.1415517  30.9156562 132.8189116
 103.6979372  30.1292941 132.5010021 104.8032731  31.1035713 132.1533007
  98.9002639  32.4452364 127.3449795  99.4510064  32.3169427 126.5726789
  98.0614114  32.7447253 126.9944688 106.2396755  31.1959362 130.8470518
 106.2215231  32.0168243 130.3550787 107.1616675  31.0713438 131.0720659
 102.6969810  28.7103492 131.6894026 103.2298146  27.9491780 131.4593334
 102.1683891  28.4177144 132.4318180  93.9325355  26.1397088 120.0376270
  94.7700577  26.5494097 119.8209978  94.1103623  25.1996530 120.0076464
 105.8289787  23.8072169 115.7260103 105.3136411  24.5776774 115.9648490
 105.5567096  23.1337305 116.3493164 103.4136898  18.6521870 120.7845341
 102.5578495  18.2628720 120.6050980 103.8263850  18.7313830 119.9245127
 104.9436045  16.1868213 125.1836901 104.4400841  16.1498348 124.3704706
 105.2366652  17.0960956 125.2433558 101.1878931  16.2706943 124.1903083
 102.0531928  16.0749751 123.8308972 101.2556440  16.0417294 125.1172439
 110.8024061  26.5604524 117.6613276 110.0253504  26.2215683 117.2168438
 111.4815542  26.5657147 116.9868241 105.6176090  21.6799261 117.5519884
 105.3126226  21.9945410 118.4030027 106.5706533  21.7580681 117.5947217
 104.0622522  27.8389484 119.2012838 103.5343884  27.1042244 118.8886075
 103.5610025  28.6164161 118.9552806 109.0415368  26.0338505 124.3179884
 108.3839043  26.7237766 124.4060013 109.8455768  26.4234937 124.6613871
  98.7941250  18.5009151 121.5619450  99.3685002  18.2784332 120.8292642
  99.3812232  18.5697845 122.3148051 107.8520827  24.3882877 122.3683826
 108.3652709  25.0212869 122.8705536 108.5022051  23.7884073 122.0027186
  99.1210837  20.5313612 115.5815335  98.2848149  20.8688298 115.9024610
  98.9815607  20.3962591 114.6442472 101.0963918  15.3750399 120.2894519
 100.4428330  15.0599417 119.6651134 101.0544392  14.7526140 121.0154342
 102.2075122  25.6569695 112.2047811 101.3002184  25.4258948 112.4038960
 102.7046154  24.8607314 112.3921793 105.1143201  34.3667202 115.1244497
 104.4404900  34.6698898 115.7329455 105.5009023  35.1696282 114.7749954
 104.3301658  21.8632333 124.6142167 103.4124219  22.0847280 124.4563855
 104.7461802  21.9378643 123.7553874 105.1136706  23.2623749 119.7444847
 105.8608525  23.7745146 119.4351969 105.3828295  22.9407801 120.6049240
 103.3863356  25.7582289 116.7271801 102.4774575  25.4741322 116.8244271
 103.4158440  26.1781368 115.8675108 108.6182623  29.3688879 120.4962969
 108.1644950  28.5279789 120.5528159 107.9876590  30.0050277 120.8337749
 107.5615543  20.2980865 121.7263636 106.8238300  19.7858251 122.0573879
 107.8142316  19.8581247 120.9146913 107.0615563  31.2065376 121.4312787
 107.3538537  31.7670433 120.7125152 107.5714183  31.4993937 122.1865946
  93.9551526  23.4787804 120.7087003  93.7575926  22.8857164 119.9838070
  93.3998190  23.1740014 121.4262942 101.9348250  23.3710910 122.8281597
 101.9896860  22.4184746 122.7524073 101.1239452  23.5270349 123.3122895
 103.0839444  27.2991033 114.0659880 102.6458874  26.5826892 113.6065517
 103.8249885  27.5267148 113.5044971  99.8740610  21.9887970 120.5871975
  99.0608475  22.2882140 120.9937168 100.3699604  21.5943659 121.3046458
 102.0249188  31.9845727 122.5206240 101.9825367  32.2106573 121.5914772
 102.9411887  31.7509101 122.6692041 111.2012559  25.5748230 120.1236198
 111.0630457  25.7649826 119.1957388 110.8448777  26.3367613 120.5804249
  99.3654685  19.5606325 126.2033210 100.0054064  19.4195084 125.5056174
  98.5332215  19.2740839 125.8271812 111.2281938  27.6424757 125.1347470
 111.6618445  27.5500046 125.9830524 111.9413519  27.6182258 124.4967486
 100.1414989  28.8608756 122.3168203 100.9355587  28.3659076 122.1150778
  99.4306681  28.3326619 121.9535908 104.9609833  31.2426851 126.6680570
 105.0146855  31.8117788 127.4358286 104.0924614  31.4128736 126.3034608
  96.4497752  23.0051837 118.3927955  95.5195340  22.9436293 118.6097918
  96.5455224  22.4827790 117.5964597  96.3683301  19.5306650 120.9806197
  96.6290118  20.4451984 120.8715358  97.1900473  19.0631093 121.1302810
  97.8408226  20.9444407 128.1505022  98.5131280  20.7361770 127.5017671
  97.0138013  20.7466493 127.7110254 103.9197933  25.4087113 128.2267502
 104.8489993  25.5598273 128.0536470 103.4988963  25.4971134 127.3716149
 102.7186265  29.4337778 125.9966040 102.5797350  29.0656562 126.8691978
 101.9300861  29.9485417 125.8249998 103.3134417  34.5346874 117.3391576
 103.4886172  34.0634917 118.1537199 102.6267205  35.1612640 117.5672837
 104.2691480  28.8119380 123.3854878 103.9341312  28.7720150 124.2812528
 103.7695425  28.1464096 122.9125288  98.2435724  24.2187010 128.9107459
  98.1055522  23.4867249 129.5118998  99.1540647  24.1295911 128.6291647
 107.2050671  26.1575415 113.6591937 106.5879842  25.4322243 113.5624990
 106.7367160  26.9184775 113.3159012 100.8718024  23.9306970 128.3991138
 101.5817643  23.2900162 128.3577757 100.8287332  24.1819865 129.3217319
 108.8604803  30.8674323 131.3197718 108.8017349  30.1833543 130.6528301
 109.2624321  31.6093313 130.8678344  99.5846958  20.9172188 130.2186778
  99.0484315  20.4662926 130.8708374  98.9963667  21.0518096 129.4757242
  97.8795502  37.6836237 124.1131437  98.1192100  38.3154761 124.7910455
  97.0364698  37.3324277 124.3996796  98.9949217  20.3760839 112.7813242
  98.1178684  20.2549640 112.4175488  99.4706970  19.5846917 112.5292130
  90.5151357  25.1637999 122.8754749  91.2022397  24.8499729 122.2875764
  90.3599486  26.0679363 122.6022000  95.3186080  20.0528195 127.3039772
  95.2344268  19.4453865 126.5690182  94.4968786  20.5437214 127.3049269
 102.3923364  33.4915359 126.5172941 102.3193535  34.2970331 127.0292245
 101.9500757  33.6907325 125.6920962 102.1813143  32.7287129 120.0275762
 101.3980665  33.2708810 120.1213987 102.8805888  33.2461109 120.4270003
 105.4909793  18.5381759 122.6709967 105.9878493  17.7851721 122.3511038
 104.7196775  18.5746076 122.1053177 104.8522047  33.3902193 128.6731099
 105.5650019  34.0249658 128.6007001 104.3612076  33.4866059 127.8571101
 106.5739574  27.2953446 120.2448391 105.6395853  27.4154909 120.0753095
 106.7516243  26.3925913 119.9808401 102.0744762  20.6799142 122.3981652
 101.7042550  20.1270182 123.0862558 102.5703855  20.0757275 121.8456652
 109.9612125  23.1370765 120.7798425 110.4272578  23.9698757 120.7058728
 110.4119626  22.6715747 121.4843684  99.9033961  31.1396637 129.4936670
 100.6043420  31.7733120 129.6466064  99.4329076  31.4811368 128.7332309
 108.0288357  29.4814587 117.7784577 108.3048200  29.3671181 118.6878451
 107.1592855  29.0832072 117.7396750 107.7035247  23.6941244 127.3189220
 107.0506697  23.9417152 126.6641673 108.0815627  22.8805383 126.9851698
 104.6642421  33.7300937 121.4217391 104.8464815  32.9122593 121.8845143
 105.4875407  33.9468630 120.9842281 104.9984586  32.6569123 118.6832439
 105.5272352  32.1461577 118.0702601 105.2612806  32.3411653 119.5477972
  95.5001679  30.6732992 126.4267773  96.0855116  29.9276680 126.5595677
  95.3026517  30.9836949 127.3104437  98.3540334  33.7084239 121.4430215
  97.6850709  34.1930367 120.9594255  98.2153204  33.9553460 122.3573594
  90.0919334  23.2438592 125.1472216  90.1303433  22.7102183 125.9409334
  89.5859626  22.7173798 124.5283193 102.4945603  35.7427983 128.0412873
 103.0463911  35.9059604 128.8061959 102.8351796  36.3332421 127.3692898
  97.4710096  18.0903133 128.6434758  97.5351422  18.9517964 128.2312156
  97.4077216  17.4777134 127.9107117  96.9462368  20.1626265 132.2907792
  97.5734407  19.7803342 132.9045317  96.0890287  19.9440467 132.6563485
  93.7227911  21.9702694 118.2226147  94.0181352  21.0613373 118.1693201
  92.8215947  21.9490434 117.9007150 105.6313990  33.6909958 125.0276556
 105.5065129  32.8899698 124.5187501 106.2893081  34.1856152 124.5390526
  97.2522158  20.0458691 124.2053696  96.5308744  20.6594659 124.0661169
  98.0415414  20.5816456 124.1270342 107.6948898  31.4918978 126.6556106
 106.7479234  31.3724330 126.5834432 108.0431671  30.6041476 126.7382367
  95.4515753  19.6516792 118.3465472  95.1228459  18.7714171 118.1640578
  95.8055123  19.5964461 119.2341862 104.6995332  31.2871695 122.8560458
 104.5520294  30.3588402 123.0368028 105.5248825  31.3091785 122.3717533
  98.5657576  19.9389762 118.7140950  98.9053648  20.4675683 117.9919558
  99.0129696  20.2770168 119.4899517 108.3029453  32.1100253 123.9425331
 109.2276001  31.9043115 123.8049782 108.1344757  31.8616655 124.8514672
 101.2601017  18.3226812 128.1644018 100.9197837  17.5234626 128.5664698
 100.5540023  18.6228523 127.5920851 101.9117488  15.4076125 126.6171341
 102.7343558  14.9336603 126.4950231 102.1555552  16.1866609 127.1170027
 100.5525723  18.4364383 116.9134243 101.2734085  18.8145636 116.4097960
  99.9291027  19.1553260 117.0169221 104.6956846  19.1409532 117.8492575
 104.9120460  20.0234170 117.5481403 104.2150913  18.7495746 117.1198217
  99.4356067  22.0995246 124.4263320  99.2900648  22.4135549 125.3187601
  98.9581271  22.7180146 123.8734218 101.2952450  19.0897794 124.4744209
 101.2814019  18.1938887 124.1376507 102.0124878  19.0968457 125.1082495
 103.1478581  19.5235134 126.5197337 102.8896359  20.4452204 126.5181667
 102.6163621  19.1265568 127.2097801 108.0924770  32.6285921 119.2987422
 108.2661647  32.0632343 118.5461275 108.5853661  33.4286816 119.1166912
  93.9101729  24.6400590 127.3650981  93.3655197  25.4160398 127.4971255
  94.7881079  24.9871394 127.2070102 100.6989346  17.9712174 119.7431779
 100.8205257  17.0428820 119.9422667 100.4091388  17.9850860 118.8310095
 103.5680536  15.6567084 122.8798499 103.5902233  15.7206417 121.9250479
 103.9848595  14.8171593 123.0739005 113.9464161  25.3922344 120.9177722
 114.3895307  24.6429669 120.5196845 113.0690671  25.3832480 120.5351454
 109.0799942  31.9452685 116.3984320 109.7750847  32.5659378 116.6171635
 109.4223092  31.0948036 116.6736698  94.6967751  23.7670486 130.2581138
  93.9549487  23.9153122 130.8445768  94.3760496  24.0278752 129.3947887
 110.9791365  29.3952391 117.9271651 111.5042689  29.7339664 117.2020971
 110.8913718  28.4599406 117.7434786 102.6411414  33.3086464 130.0561528
 102.9498540  33.0635611 130.9284227 103.4386896  33.5133103 129.5680398
 102.6632026  35.4624374 122.2866904 102.2237016  34.9700753 122.9799761
 103.4140143  34.9197342 122.0458980  95.1424365  31.6535915 122.2891532
  95.9682385  31.3539687 121.9090176  94.7918417  30.8843537 122.7381321
 100.1105898  31.0062383 124.3589206  99.4885907  30.3433088 124.0591434
 100.7810765  31.0323515 123.6762854  93.3432970  29.5722241 123.2480466
  92.5064878  29.1444416 123.0664467  93.3156615  29.7654685 124.1851257
  99.6719405  29.5566306 117.8347667  99.8207525  30.2401771 117.1814339
 100.4785848  29.5371397 118.3497122 113.4897025  26.8627582 123.3100169
 114.3243917  27.3017386 123.4737730 113.6256154  26.3866235 122.4908415
  97.4272038  25.5831484 118.8408735  97.1818080  24.6793814 119.0388946
  97.5967953  25.5848635 117.8988213  96.6967686  21.3159842 116.3394897
  96.0036930  21.3904197 115.6834933  96.4519437  20.5520185 116.8616414
 103.1714811  32.0514437 115.3059414 102.5988778  32.6704624 114.8529886
 103.7447604  32.6013799 115.8399336 106.3912070  32.3351587 116.4367996
 107.3242743  32.2697149 116.6400872 106.3035283  33.1707854 115.9782529
 109.0200087  31.6517457 113.3971944 108.9413719  31.3177321 114.2907702
 109.8409754  32.1439225 113.3963416 103.5561609  23.3875250 112.6475467
 104.5020714  23.2581458 112.7163885 103.1775854  22.6489912 113.1244895
 101.7404526  21.3125226 112.5830352 100.8335982  21.0158339 112.6593065
 102.0180507  21.0155044 111.7164638  92.6582467  22.6331589 123.0329398
  92.3385251  21.7796898 122.7403772  92.1115895  22.8480168 123.7887365
  96.4362374  25.3494030 126.7498905  96.6548384  26.2811138 126.7686938
  96.8488148  24.9902005 127.5353708 103.3566592  15.8562116 118.7374593
 102.5467320  15.5109201 119.1129839 104.0451009  15.5469660 119.3262205
 105.2857140  14.9340163 120.3598890 105.8388179  15.3535616 121.0188913
 105.5227227  14.0075911 120.4021846 100.5103311  18.1712161 112.7242331
 101.3722475  18.4967060 112.9838148 100.6953655  17.3843657 112.2115397
  92.5270727  26.2534501 125.0022520  91.8334198  25.8388454 124.4892474
  93.2743718  26.2955037 124.4055939 108.6635947  17.0440688 119.8677554
 108.0834616  17.7025492 119.4855606 108.3971880  16.2218032 119.4564971
 107.1139514  16.4445745 122.0698874 107.6139292  16.5562280 121.2613193
 107.7575122  16.1406798 122.7099683  94.4407469  26.1852755 122.8788535
  94.4178157  26.2840442 121.9270418  94.7508106  27.0317906 123.2005701
  97.0994847  28.2428910 126.9935149  98.0538101  28.2112852 126.9265081
  96.9007371  27.7819534 127.8085375  97.6894229  26.8130026 129.5605947
  98.5087118  27.3074104 129.5840784  97.9631037  25.8961994 129.5323514
 107.4460825  19.2040778 118.9233902 106.5586680  19.4890429 118.7054097
 107.8614814  19.0434541 118.0761179 110.7975361  19.2287299 122.6388241
 111.5735752  19.7183752 122.9112858 110.0723496  19.6545353 123.0960111
  95.4545076  33.7848529 124.0105347  95.3199544  33.0248930 123.4443345
  95.0377138  34.5089429 123.5434136 106.5904039  28.9685453 113.0181922
 107.2939889  29.1735455 113.6339578 105.8666688  29.5362215 113.2831006
 107.4201849  24.7195314 119.1384192 107.3637050  25.1763865 118.2991825
 107.9730192  23.9585999 118.9607035 111.2306655  20.5085046 119.9634312
 110.9743589  20.1081682 120.7942520 110.6059523  21.2228840 119.8384451
  98.6114202  34.6817846 124.2223790  98.4946586  35.6263279 124.1202480
  97.7906648  34.3791408 124.6109589 108.4990736  29.4067982 115.0680382
 109.3336340  28.9749180 114.8857857 108.3375079  29.2349996 115.9957277
 108.1536628  25.9100095 116.4336722 108.0985432  25.7444367 115.4925166
 107.5282684  26.6176128 116.5898911  92.9429143  21.1468160 130.2598144
  93.5888007  20.6367114 130.7485369  92.7346294  21.8836841 130.8341569
 101.4632754  15.4108204 116.0122040 101.4511424  16.3550044 116.1690311
 102.3556176  15.2278350 115.7181501  99.6368716  35.3346108 127.4379718
 100.5395962  35.3669718 127.7546213  99.4106086  34.4046559 127.4526054
 101.3922318  34.0877095 124.0989797 100.4417949  34.0878956 123.9854169
 101.6954804  33.3409829 123.5825831 105.2784873  12.0050981 120.2667977
 104.5117269  11.4509468 120.4124659 105.6895578  12.0772850 121.1282128
 117.1275011  39.9237633 125.1635559 117.7653421  39.8044380 124.4598899
 117.0095854  40.8718477 125.2223511 113.9364718  39.8765061 125.0997084
 113.5983229  39.7606126 124.2117619 114.8054486  39.4756226 125.0798090
 109.7951533  41.7300538 121.0893975 109.2316398  41.6390475 120.3210262
 109.6803928  40.9100442 121.5696467 114.4184501  41.0299913 131.0583289
 114.4073141  40.6352711 130.1863793 114.5805140  40.2965986 131.6517061
 107.3415965  43.2251729 123.9278195 108.1337257  42.8842554 123.5124494
 107.5812615  43.3346704 124.8480348 115.3751092  45.3971505 116.4008440
 114.7239072  45.9825586 116.0142453 116.1695455  45.9277700 116.4603477
 109.3006719  42.4860642 116.7995574 110.0737595  41.9389630 116.6608450
 109.6532118  43.3504892 117.0110035 111.1391762  43.8137025 130.0062473
 110.8481628  44.7182656 129.8909139 111.7748746  43.8553552 130.7206543
 112.0647969  41.1913873 126.5963833 112.6611541  40.9669896 125.8820796
 112.1222940  40.4498619 127.1989281 111.6372997  38.6453309 114.4314024
 111.8898518  38.1234830 113.6697487 110.6997556  38.4819454 114.5340707
 116.6816280  37.6489087 122.2388767 117.4679369  37.2308510 121.8879184
 116.9454984  38.5535179 122.4070415 116.8526357  43.0861937 116.9377424
 116.2172190  43.1596564 117.6498328 116.5223764  43.6755536 116.2596503
 122.0824707  37.5864320 123.1421746 122.8149879  37.0163537 123.3759575
 121.3264063  37.1985921 123.5828251 111.3569286  40.5481415 116.6338399
 111.2405544  39.8726318 117.3019483 111.4671546  40.0613788 115.8170552
 113.7000827  40.0091562 120.3385088 113.3359034  39.4822183 121.0498009
 114.5567943  39.6190031 120.1651573 113.3406314  35.0381461 115.3346437
 113.5080716  35.9061698 115.7016908 113.1503483  35.2008743 114.4107726
 116.0981647  43.4998440 127.0012267 115.7982370  44.4023479 126.8928074
 115.7532706  43.2330623 127.8533420 109.5494128  39.9512237 123.0348971
 108.6244625  39.8188451 123.2426663 109.7978541  40.7306456 123.5318914
 119.4978791  36.0180980 124.6809704 118.5895668  35.9496389 124.3868465
 119.4466386  36.4952925 125.5091530 113.3195534  37.4939119 116.3193103
 113.1995160  37.9396170 117.1578584 112.6248123  37.8424437 115.7606641
 106.9102939  39.5945511 123.8692760 107.0395320  39.8479990 124.7832172
 106.2300391  40.1873219 123.5497415 111.0802427  50.2642761 119.9683235
 111.0026456  51.2150586 120.0471715 110.4764070  49.9188633 120.6258161
 119.0180601  37.9660592 117.1473437 119.9298457  38.1987979 116.9721135
 118.5090248  38.5497636 116.5848516 111.8266029  40.2456079 132.1862568
 112.5680713  40.7841123 131.9097392 111.1203014  40.8722368 132.3434120
 117.3021368  42.3885220 130.7834730 117.7104724  41.9467630 130.0389362
 116.5798630  41.8137847 131.0368923 113.6552438  37.3257827 128.1568287
 114.5013634  37.7497240 128.3002936 113.5951076  36.6691451 128.8506850
 117.6250183  42.9486410 124.5387019 116.9959045  43.1132125 123.8363087
 117.2375845  43.3628020 125.3097983 121.5039415  43.8840848 121.8931383
 120.8190453  44.2639750 121.3428416 121.5883264  44.4936175 122.6263330
 118.7590346  41.5300807 128.4926726 118.9707242  42.1732567 127.8161107
 118.7120095  40.6963124 128.0248656 116.3616575  34.1418628 125.3963298
 115.5001054  34.4399882 125.6880036 116.3879010  34.3589027 124.4644331
 113.1778145  42.6860819 121.8037104 113.6416490  42.9648522 121.0141726
 112.9134943  41.7844263 121.6210195 110.0702226  42.2332300 124.7416867
 110.6403583  42.6619568 124.1034352 110.6610338  41.9514885 125.4401053
 112.1147031  38.8083971 118.6126669 112.8171074  39.2605015 119.0800595
 111.7827659  38.1667790 119.2406562 110.5627392  37.3995728 132.9877878
 109.9326053  38.0812008 133.2213275 110.4563480  37.2878809 132.0431017
 105.8572365  37.0667524 123.9143803 105.0671419  37.3225052 123.4383913
 106.3483612  37.8815861 124.0195843 119.8736174  44.4072763 126.6649083
 120.6953618  44.0052950 126.3831765 119.8698577  44.3040997 127.6165199
 107.8087110  37.4312103 120.8727279 107.0118273  37.5430797 121.3910775
 107.5812702  37.7698755 120.0068170 113.6392778  43.9556806 128.8209794
 113.7037210  44.4177213 129.6567966 112.9303702  43.3254171 128.9492104
 104.1410068  37.3198014 126.3458793 104.3918106  38.2045024 126.6116369
 104.6769616  37.1402616 125.5733885 113.3540795  45.6224914 118.6888774
 113.2186470  46.4676449 119.1173622 113.8950608  45.8244191 117.9254708
 106.8070193  43.1400352 119.2616699 107.3194713  43.9343602 119.4122264
 107.4592906  42.4426642 119.1950301 108.6165078  46.2566108 121.3439453
 108.7931706  47.1784073 121.1560436 109.4121911  45.9424527 121.7733832
 107.9017434  38.3030740 131.2201616 107.7870949  37.4015997 131.5208715
 107.0461952  38.5494437 130.8686432 114.9809272  46.2448480 132.8189116
 114.5373126  45.4584859 132.5010021 115.6426485  46.4327631 132.1533007
 109.7396393  47.7744282 127.3449795 110.2903818  47.6461345 126.5726789
 108.9007869  48.0739171 126.9944688 117.0790510  46.5251280 130.8470518
 117.0608985  47.3460161 130.3550787 118.0010430  46.4005355 131.0720659
 113.5363564  44.0395409 131.6894026 114.0691901  43.2783698 131.4593334
 113.0077645  43.7469061 132.4318180 104.7719110  41.4689006 120.0376270
 105.6094332  41.8786014 119.8209978 104.9497377  40.5288448 120.0076464
 116.6683542  39.1364087 115.7260103 116.1530165  39.9068691 115.9648490
 116.3960850  38.4629223 116.3493164 114.2530653  33.9813787 120.7845341
 113.3972249  33.5920638 120.6050980 114.6657605  34.0605748 119.9245127
 115.7829799  31.5160131 125.1836901 115.2794595  31.4790266 124.3704706
 116.0760406  32.4252873 125.2433558 112.0272685  31.5998860 124.1903083
 112.8925682  31.4041669 123.8308972 112.0950194  31.3709212 125.1172439
 121.6417816  41.8896441 117.6613276 120.8647259  41.5507601 117.2168438
 122.3209297  41.8949064 116.9868241 116.4569845  37.0091179 117.5519884
 116.1519981  37.3237328 118.4030027 117.4100287  37.0872599 117.5947217
 114.9016277  43.1681402 119.2012838 114.3737638  42.4334162 118.8886075
 114.4003780  43.9456078 118.9552806 119.8809123  41.3630422 124.3179884
 119.2232797  42.0529684 124.4060013 120.6849522  41.7526854 124.6613871
 109.6335004  33.8301068 121.5619450 110.2078756  33.6076250 120.8292642
 110.2205987  33.8989763 122.3148051 118.6914582  39.7174795 122.3683826
 119.2046463  40.3504787 122.8705536 119.3415805  39.1175991 122.0027186
 109.9604592  35.8605529 115.5815335 109.1241904  36.1980216 115.9024610
 109.8209361  35.7254509 114.6442472 111.9357672  30.7042317 120.2894519
 111.2822084  30.3891334 119.6651134 111.8938146  30.0818058 121.0154342
 113.0468877  40.9861612 112.2047811 112.1395939  40.7550866 112.4038960
 113.5439909  40.1899231 112.3921793 115.9536956  49.6959119 115.1244497
 115.2798655  49.9990816 115.7329455 116.3402778  50.4988200 114.7749954
 115.1695412  37.1924251 124.6142167 114.2517974  37.4139198 124.4563855
 115.5855556  37.2670561 123.7553874 115.9530460  38.5915666 119.7444847
 116.7002279  39.1037064 119.4351969 116.2222050  38.2699719 120.6049240
 114.2257110  41.0874207 116.7271801 113.3168330  40.8033240 116.8244271
 114.2552194  41.5073286 115.8675108 119.4576378  44.6980797 120.4962969
 119.0038705  43.8571706 120.5528159 118.8270345  45.3342195 120.8337749
 118.4009297  35.6272783 121.7263636 117.6632054  35.1150169 122.0573879
 118.6536071  35.1873164 120.9146913 117.9009317  46.5357293 121.4312787
 118.1932291  47.0962350 120.7125152 118.4107938  46.8285854 122.1865946
 104.7945281  38.8079721 120.7087003 104.5969681  38.2149082 119.9838070
 104.2391945  38.5031931 121.4262942 112.7742004  38.7002828 122.8281597
 112.8290614  37.7476664 122.7524073 111.9633206  38.8562267 123.3122895
 113.9233198  42.6282951 114.0659880 113.4852628  41.9118810 113.6065517
 114.6643639  42.8559066 113.5044971 110.7134364  37.3179887 120.5871975
 109.9002230  37.6174058 120.9937168 111.2093359  36.9235576 121.3046458
 112.8642942  47.3137644 122.5206240 112.8219121  47.5398491 121.5914772
 113.7805641  47.0801019 122.6692041 122.0406313  40.9040148 120.1236198
 121.9024212  41.0941744 119.1957388 121.6842532  41.6659531 120.5804249
 110.2048439  34.8898243 126.2033210 110.8447818  34.7487002 125.5056174
 109.3725970  34.6032756 125.8271812 122.0675693  42.9716675 125.1347470
 122.5012199  42.8791964 125.9830524 122.7807273  42.9474175 124.4967486
 110.9808743  44.1900673 122.3168203 111.7749342  43.6950994 122.1150778
 110.2700435  43.6618537 121.9535908 115.8003588  46.5718769 126.6680570
 115.8540610  47.1409705 127.4358286 114.9318369  46.7420654 126.3034608
 107.2891507  38.3343755 118.3927955 106.3589095  38.2728211 118.6097918
 107.3848978  37.8119708 117.5964597 107.2077056  34.8598568 120.9806197
 107.4683873  35.7743901 120.8715358 108.0294228  34.3923011 121.1302810
 108.6801981  36.2736325 128.1505022 109.3525034  36.0653687 127.5017671
 107.8531767  36.0758411 127.7110254 114.7591687  40.7379031 128.2267502
 115.6883747  40.8890191 128.0536470 114.3382717  40.8263052 127.3716149
 113.5580019  44.7629695 125.9966040 113.4191105  44.3948480 126.8691978
 112.7694615  45.2777335 125.8249998 114.1528171  49.8638792 117.3391576
 114.3279927  49.3926835 118.1537199 113.4660959  50.4904558 117.5672837
 115.1085234  44.1411298 123.3854878 114.7735067  44.1012068 124.2812528
 114.6089180  43.4756014 122.9125288 109.0829478  39.5478928 128.9107459
 108.9449276  38.8159167 129.5118998 109.9934402  39.4587828 128.6291647
 118.0444426  41.4867332 113.6591937 117.4273596  40.7614161 113.5624990
 117.5760914  42.2476693 113.3159012 111.7111779  39.2598887 128.3991138
 112.4211397  38.6192080 128.3577757 111.6681087  39.5111782 129.3217319
 119.6998557  46.1966241 131.3197718 119.6411104  45.5125461 130.6528301
 120.1018076  46.9385231 130.8678344 110.4240713  36.2464105 130.2186778
 109.8878070  35.7954844 130.8708374 109.8357421  36.3810014 129.4757242
 108.7189256  53.0128155 124.1131437 108.9585855  53.6446679 124.7910455
 107.8758453  52.6616195 124.3996796 109.8342972  35.7052757 112.7813242
 108.9572438  35.5841557 112.4175488 110.3100725  34.9138835 112.5292130
 101.3545112  40.4929916 122.8754749 102.0416152  40.1791646 122.2875764
 101.1993241  41.3971281 122.6022000 106.1579834  35.3820113 127.3039772
 106.0738023  34.7745783 126.5690182 105.3362540  35.8729131 127.3049269
 113.2317118  48.8207277 126.5172941 113.1587290  49.6262249 127.0292245
 112.7894511  49.0199243 125.6920962 113.0206898  48.0579047 120.0275762
 112.2374420  48.6000727 120.1213987 113.7199643  48.5753027 120.4270003
 116.3303548  33.8673677 122.6709967 116.8272247  33.1143639 122.3511038
 115.5590529  33.9037993 122.1053177 115.6915802  48.7194111 128.6731099
 116.4043774  49.3541576 128.6007001 115.2005830  48.8157977 127.8571101
 117.4133329  42.6245364 120.2448391 116.4789607  42.7446826 120.0753095
 117.5909997  41.7217831 119.9808401 112.9138517  36.0091060 122.3981652
 112.5436304  35.4562100 123.0862558 113.4097609  35.4049193 121.8456652
 120.8005880  38.4662683 120.7798425 121.2666332  39.2990675 120.7058728
 121.2513380  38.0007665 121.4843684 110.7427715  46.4688555 129.4936670
 111.4437175  47.1025038 129.6466064 110.2722830  46.8103286 128.7332309
 118.8682111  44.8106504 117.7784577 119.1441955  44.6963099 118.6878451
 117.9986610  44.4123989 117.7396750 118.5429001  39.0233162 127.3189220
 117.8900451  39.2709069 126.6641673 118.9209381  38.2097300 126.9851698
 115.5036175  49.0592855 121.4217391 115.6858570  48.2414511 121.8845143
 116.3269161  49.2760547 120.9842281 115.8378341  47.9861040 118.6832439
 116.3666107  47.4753495 118.0702601 116.1006560  47.6703571 119.5477972
 106.3395433  46.0024910 126.4267773 106.9248870  45.2568597 126.5595677
 106.1420272  46.3128866 127.3104437 109.1934088  49.0376157 121.4430215
 108.5244464  49.5222285 120.9594255 109.0546958  49.2845377 122.3573594
 100.9313088  38.5730510 125.1472216 100.9697188  38.0394100 125.9409334
 100.4253381  38.0465715 124.5283193 113.3339357  51.0719900 128.0412873
 113.8857665  51.2351522 128.8061959 113.6745551  51.6624338 127.3692898
 108.3103850  33.4195050 128.6434758 108.3745177  34.2809881 128.2312156
 108.2470971  32.8069052 127.9107117 107.7856123  35.4918183 132.2907792
 108.4128162  35.1095260 132.9045317 106.9284042  35.2732385 132.6563485
 104.5621666  37.2994612 118.2226147 104.8575107  36.3905290 118.1693201
 103.6609701  37.2782351 117.9007150 116.4707744  49.0201876 125.0276556
 116.3458884  48.2191616 124.5187501 117.1286835  49.5148069 124.5390526
 108.0915913  35.3750609 124.2053696 107.3702498  35.9886576 124.0661169
 108.8809168  35.9108373 124.1270342 118.5342653  46.8210896 126.6556106
 117.5872988  46.7016247 126.5834432 118.8825426  45.9333394 126.7382367
 106.2909507  34.9808710 118.3465472 105.9622213  34.1006089 118.1640578
 106.6448878  34.9256378 119.2341862 115.5389086  46.6163612 122.8560458
 115.3914048  45.6880320 123.0368028 116.3642580  46.6383703 122.3717533
 109.4051330  35.2681679 118.7140950 109.7447403  35.7967601 117.9919558
 109.8523451  35.6062086 119.4899517 119.1423208  47.4392171 123.9425331
 120.0669755  47.2335032 123.8049782 118.9738511  47.1908572 124.8514672
 112.0994771  33.6518730 128.1644018 111.7591592  32.8526543 128.5664698
 111.3933777  33.9520441 127.5920851 112.7511243  30.7368043 126.6171341
 113.5737312  30.2628521 126.4950231 112.9949307  31.5158526 127.1170027
 111.3919477  33.7656301 116.9134243 112.1127840  34.1437554 116.4097960
 110.7684782  34.4845178 117.0169221 115.5350600  34.4701450 117.8492575
 115.7514215  35.3526088 117.5481403 115.0544667  34.0787663 117.1198217
 110.2749822  37.4287163 124.4263320 110.1294402  37.7427466 125.3187601
 109.7975025  38.0472064 123.8734218 112.1346205  34.4189711 124.4744209
 112.1207773  33.5230804 124.1376507 112.8518633  34.4260375 125.1082495
 113.9872335  34.8527051 126.5197337 113.7290113  35.7744122 126.5181667
 113.4557376  34.4557486 127.2097801 118.9318524  47.9577839 119.2987422
 119.1055402  47.3924261 118.5461275 119.4247415  48.7578733 119.1166912
 104.7495484  39.9692508 127.3650981 104.2048952  40.7452316 127.4971255
 105.6274834  40.3163312 127.2070102 111.5383101  33.3004091 119.7431779
 111.6599012  32.3720738 119.9422667 111.2485143  33.3142777 118.8310095
 114.4074291  30.9859002 122.8798499 114.4295988  31.0498335 121.9250479
 114.8242350  30.1463511 123.0739005 124.7857915  40.7214261 120.9177722
 125.2289061  39.9721587 120.5196845 123.9084426  40.7124398 120.5351454
 119.9193697  47.2744603 116.3984320 120.6144601  47.8951296 116.6171635
 120.2616847  46.4239954 116.6736698 105.5361506  39.0962404 130.2581138
 104.7943242  39.2445039 130.8445768 105.2154250  39.3570669 129.3947887
 121.8185120  44.7244308 117.9271651 122.3436444  45.0631581 117.2020971
 121.7307472  43.7891324 117.7434786 113.4805168  48.6378382 130.0561528
 113.7892295  48.3927529 130.9284227 114.2780650  48.8425021 129.5680398
 113.5025780  50.7916292 122.2866904 113.0630771  50.2992670 122.9799761
 114.2533897  50.2489259 122.0458980 105.9818119  46.9827833 122.2891532
 106.8076139  46.6831604 121.9090176 105.6312171  46.2135455 122.7381321
 110.9499653  46.3354301 124.3589206 110.3279662  45.6725006 124.0591434
 111.6204519  46.3615433 123.6762854 104.1826724  44.9014159 123.2480466
 103.3458633  44.4736333 123.0664467 104.1550370  45.0946602 124.1851257
 110.5113159  44.8858224 117.8347667 110.6601280  45.5693689 117.1814339
 111.3179603  44.8663314 118.3497122 124.3290780  42.1919500 123.3100169
 125.1637671  42.6309304 123.4737730 124.4649909  41.7158153 122.4908415
 108.2665792  40.9123402 118.8408735 108.0211834  40.0085732 119.0388946
 108.4361707  40.9140552 117.8988213 107.5361440  36.6451759 116.3394897
 106.8430685  36.7196114 115.6834933 107.2913192  35.8812103 116.8616414
 114.0108565  47.3806355 115.3059414 113.4382532  47.9996542 114.8529886
 114.5841359  47.9305716 115.8399336 117.2305825  47.6643505 116.4367996
 118.1636498  47.5989066 116.6400872 117.1429038  48.4999772 115.9782529
 119.8593841  46.9809375 113.3971944 119.7807473  46.6469239 114.2907702
 120.6803508  47.4731143 113.3963416 114.3955364  38.7167167 112.6475467
 115.3414468  38.5873375 112.7163885 114.0169608  37.9781829 113.1244895
 112.5798281  36.6417144 112.5830352 111.6729736  36.3450256 112.6593065
 112.8574262  36.3446962 111.7164638 103.4976221  37.9623507 123.0329398
 103.1779005  37.1088815 122.7403772 102.9509649  38.1772085 123.7887365
 107.2756129  40.6785948 126.7498905 107.4942138  41.6103056 126.7686938
 107.6881902  40.3193923 127.5353708 114.1960346  31.1854033 118.7374593
 113.3861075  30.8401118 119.1129839 114.8844763  30.8761577 119.3262205
 116.1250895  30.2632080 120.3598890 116.6781933  30.6827534 121.0188913
 116.3620981  29.3367828 120.4021846 111.3497065  33.5004079 112.7242331
 112.2116229  33.8258977 112.9838148 111.5347409  32.7135575 112.2115397
 103.3664481  41.5826419 125.0022520 102.6727952  41.1680371 124.4892474
 104.1137472  41.6246955 124.4055939 119.5029702  32.3732605 119.8677554
 118.9228371  33.0317409 119.4855606 119.2365634  31.5509950 119.4564971
 117.9533268  31.7737663 122.0698874 118.4533047  31.8854198 121.2613193
 118.5968876  31.4698716 122.7099683 105.2801224  41.5144672 122.8788535
 105.2571912  41.6132360 121.9270418 105.5901860  42.3609823 123.2005701
 107.9388601  43.5720827 126.9935149 108.8931855  43.5404770 126.9265081
 107.7401125  43.1111451 127.8085375 108.5287984  42.1421943 129.5605947
 109.3480873  42.6366022 129.5840784 108.8024791  41.2253912 129.5323514
 118.2854580  34.5332696 118.9233902 117.3980435  34.8182346 118.7054097
 118.7008569  34.3726459 118.0761179 121.6369116  34.5579217 122.6388241
 122.4129506  35.0475669 122.9112858 120.9117250  34.9837271 123.0960111
 106.2938830  49.1140447 124.0105347 106.1593298  48.3540848 123.4443345
 105.8770893  49.8381347 123.5434136 117.4297793  44.2977370 113.0181922
 118.1333643  44.5027373 113.6339578 116.7060442  44.8654132 113.2831006
 118.2595604  40.0487232 119.1384192 118.2030805  40.5055783 118.2991825
 118.8123946  39.2877916 118.9607035 122.0700409  35.8376964 119.9634312
 121.8137344  35.4373599 120.7942520 121.4453277  36.5520758 119.8384451
 109.4507956  50.0109764 124.2223790 109.3340340  50.9555196 124.1202480
 108.6300402  49.7083326 124.6109589 119.3384491  44.7359900 115.0680382
 120.1730095  44.3041098 114.8857857 119.1768834  44.5641913 115.9957277
 118.9930383  41.2392013 116.4336722 118.9379187  41.0736284 115.4925166
 118.3676438  41.9468046 116.5898911 103.7822898  36.4760077 130.2598144
 104.4281761  35.9659031 130.7485369 103.5740049  37.2128759 130.8341569
 112.3026508  30.7400122 116.0122040 112.2905178  31.6841962 116.1690311
 113.1949930  30.5570267 115.7181501 110.4762470  50.6638026 127.4379718
 111.3789717  50.6961636 127.7546213 110.2499840  49.7338477 127.4526054
 112.2316072  49.4169012 124.0989797 111.2811703  49.4170874 123.9854169
 112.5348558  48.6701747 123.5825831 116.1178628  27.3342899 120.2667977
 115.3511024  26.7801385 120.4124659 116.5289333  27.4064767 121.1282128
 127.9668766  55.2529551 125.1635559 128.6047176  55.1336298 124.4598899
 127.8489609  56.2010395 125.2223511 124.7758472  55.2056979 125.0997084
 124.4376984  55.0898044 124.2117619 125.6448240  54.8048144 125.0798090
 120.6345288  57.0592455 121.0893975 120.0710153  56.9682392 120.3210262
 120.5197683  56.2392360 121.5696467 125.2578255  56.3591831 131.0583289
 125.2466896  55.9644629 130.1863793 125.4198895  55.6257903 131.6517061
 118.1809720  58.5543647 123.9278195 118.9731012  58.2134472 123.5124494
 118.4206370  58.6638622 124.8480348 126.2144846  60.7263423 116.4008440
 125.5632826  61.3117503 116.0142453 127.0089209  61.2569618 116.4603477
 120.1400474  57.8152560 116.7995574 120.9131350  57.2681547 116.6608450
 120.4925872  58.6796809 117.0110035 121.9785516  59.1428942 130.0062473
 121.6875382  60.0474573 129.8909139 122.6142501  59.1845470 130.7206543
 122.9041723  56.5205791 126.5963833 123.5005295  56.2961813 125.8820796
 122.9616695  55.7790536 127.1989281 122.4766751  53.9745226 114.4314024
 122.7292272  53.4526748 113.6697487 121.5391311  53.8111372 114.5340707
 127.5210034  52.9781005 122.2388767 128.3073123  52.5600428 121.8879184
 127.7848739  53.8827097 122.4070415 127.6920112  58.4153855 116.9377424
 127.0565945  58.4888481 117.6498328 127.3617518  59.0047454 116.2596503
 132.9218461  52.9156238 123.1421746 133.6543633  52.3455455 123.3759575
 132.1657817  52.5277838 123.5828251 122.1963040  55.8773332 116.6338399
 122.0799298  55.2018236 117.3019483 122.3065300  55.3905706 115.8170552
 124.5394581  55.3383479 120.3385088 124.1752788  54.8114100 121.0498009
 125.3961697  54.9481948 120.1651573 124.1800068  50.3673379 115.3346437
 124.3474470  51.2353615 115.7016908 123.9897237  50.5300661 114.4107726
 126.9375401  58.8290358 127.0012267 126.6376124  59.7315397 126.8928074
 126.5926461  58.5622541 127.8533420 120.3887883  55.2804155 123.0348971
 119.4638379  55.1480369 123.2426663 120.6372296  56.0598374 123.5318914
 130.3372545  51.3472898 124.6809704 129.4289422  51.2788307 124.3868465
 130.2860141  51.8244843 125.5091530 124.1589289  52.8231037 116.3193103
 124.0388914  53.2688087 117.1578584 123.4641877  53.1716354 115.7606641
 117.7496694  54.9237428 123.8692760 117.8789075  55.1771907 124.7832172
 117.0694145  55.5165136 123.5497415 121.9196181  65.5934678 119.9683235
 121.8420211  66.5442503 120.0471715 121.3157825  65.2480551 120.6258161
 129.8574355  53.2952510 117.1473437 130.7692211  53.5279896 116.9721135
 129.3484002  53.8789554 116.5848516 122.6659783  55.5747997 132.1862568
 123.4074468  56.1133041 131.9097392 121.9596769  56.2014286 132.3434120
 128.1415123  57.7177138 130.7834730 128.5498479  57.2759548 130.0389362
 127.4192384  57.1429765 131.0368923 124.4946193  52.6549744 128.1568287
 125.3407388  53.0789158 128.3002936 124.4344830  51.9983369 128.8506850
 128.4643937  58.2778328 124.5387019 127.8352800  58.4424042 123.8363087
 128.0769600  58.6919938 125.3097983 132.3433169  59.2132766 121.8931383
 131.6584207  59.5931667 121.3428416 132.4277019  59.8228093 122.6263330
 129.5984101  56.8592725 128.4926726 129.8100996  57.5024485 127.8161107
 129.5513849  56.0255042 128.0248656 127.2010330  49.4710546 125.3963298
 126.3394809  49.7691799 125.6880036 127.2272765  49.6880945 124.4644331
 124.0171899  58.0152736 121.8037104 124.4810245  58.2940439 121.0141726
 123.7528697  57.1136181 121.6210195 120.9095980  57.5624218 124.7416867
 121.4797337  57.9911486 124.1034352 121.5004092  57.2806802 125.4401053
 122.9540785  54.1375889 118.6126669 123.6564829  54.5896932 119.0800595
 122.6221414  53.4959707 119.2406562 121.4021147  52.7287645 132.9877878
 120.7719807  53.4103926 133.2213275 121.2957235  52.6170727 132.0431017
 116.6966119  52.3959441 123.9143803 115.9065173  52.6516970 123.4383913
 117.1877367  53.2107779 124.0195843 130.7129929  59.7364680 126.6649083
 131.5347373  59.3344868 126.3831765 130.7092332  59.6332915 127.6165199
 118.6480865  52.7604021 120.8727279 117.8512028  52.8722715 121.3910775
 118.4206457  53.0990673 120.0068170 124.4786532  59.2848724 128.8209794
 124.5430965  59.7469131 129.6567966 123.7697456  58.6546089 128.9492104
 114.9803822  52.6489932 126.3458793 115.2311861  53.5336942 126.6116369
 115.5163371  52.4694533 125.5733885 124.1934550  60.9516831 118.6888774
 124.0580225  61.7968367 119.1173622 124.7344362  61.1536109 117.9254708
 117.6463947  58.4692269 119.2616699 118.1588468  59.2635520 119.4122264
 118.2986660  57.7718560 119.1950301 119.4558832  61.5858026 121.3439453
 119.6325460  62.5075990 121.1560436 120.2515666  61.2716445 121.7733832
 118.7411189  53.6322657 131.2201616 118.6264704  52.7307915 131.5208715
 117.8855706  53.8786354 130.8686432 125.8203026  61.5740398 132.8189116
 125.3766881  60.7876776 132.5010021 126.4820240  61.7619548 132.1533007
 120.5790148  63.1036199 127.3449795 121.1297573  62.9753263 126.5726789
 119.7401623  63.4031088 126.9944688 127.9184264  61.8543198 130.8470518
 127.9002740  62.6752079 130.3550787 128.8404184  61.7297273 131.0720659
 124.3757319  59.3687327 131.6894026 124.9085655  58.6075615 131.4593334
 123.8471400  59.0760979 132.4318180 115.6112864  56.7980924 120.0376270
 116.4488086  57.2077932 119.8209978 115.7891132  55.8580366 120.0076464
 127.5077296  54.4656004 115.7260103 126.9923920  55.2360609 115.9648490
 127.2354605  53.7921140 116.3493164 125.0924407  49.3105705 120.7845341
 124.2366004  48.9212555 120.6050980 125.5051359  49.3897666 119.9245127
 126.6223554  46.8452048 125.1836901 126.1188350  46.8082183 124.3704706
 126.9154161  47.7544791 125.2433558 122.8666440  46.9290778 124.1903083
 123.7319437  46.7333587 123.8308972 122.9343949  46.7001130 125.1172439
 132.4811570  57.2188359 117.6613276 131.7041013  56.8799518 117.2168438
 133.1603051  57.2240982 116.9868241 127.2963599  52.3383096 117.5519884
 126.9913735  52.6529245 118.4030027 128.2494042  52.4164516 117.5947217
 125.7410031  58.4973320 119.2012838 125.2131393  57.7626079 118.8886075
 125.2397534  59.2747996 118.9552806 130.7202877  56.6922340 124.3179884
 130.0626552  57.3821602 124.4060013 131.5243277  57.0818772 124.6613871
 120.4728759  49.1592986 121.5619450 121.0472511  48.9368167 120.8292642
 121.0599741  49.2281680 122.3148051 129.5308336  55.0466713 122.3683826
 130.0440218  55.6796705 122.8705536 130.1809560  54.4467908 122.0027186
 120.7998346  51.1897447 115.5815335 119.9635658  51.5272133 115.9024610
 120.6603116  51.0546427 114.6442472 122.7751427  46.0334235 120.2894519
 122.1215839  45.7183252 119.6651134 122.7331901  45.4109975 121.0154342
 123.8862631  56.3153530 112.2047811 122.9789693  56.0842783 112.4038960
 124.3833663  55.5191149 112.3921793 126.7930710  65.0251037 115.1244497
 126.1192409  65.3282734 115.7329455 127.1796532  65.8280117 114.7749954
 126.0089167  52.5216168 124.6142167 125.0911728  52.7431115 124.4563855
 126.4249311  52.5962479 123.7553874 126.7924215  53.9207584 119.7444847
 127.5396034  54.4328981 119.4351969 127.0615804  53.5991637 120.6049240
 125.0650865  56.4166125 116.7271801 124.1562084  56.1325158 116.8244271
 125.0945949  56.8365203 115.8675108 130.2970132  60.0272714 120.4962969
 129.8432459  59.1863624 120.5528159 129.6664099  60.6634113 120.8337749
 129.2403052  50.9564700 121.7263636 128.5025809  50.4442087 122.0573879
 129.4929825  50.5165082 120.9146913 128.7403072  61.8649211 121.4312787
 129.0326046  62.4254268 120.7125152 129.2501692  62.1577772 122.1865946
 115.6339035  54.1371639 120.7087003 115.4363435  53.5441000 119.9838070
 115.0785699  53.8323849 121.4262942 123.6135759  54.0294745 122.8281597
 123.6684369  53.0768582 122.7524073 122.8026961  54.1854184 123.3122895
 124.7626953  57.9574868 114.0659880 124.3246383  57.2410727 113.6065517
 125.5037394  58.1850983 113.5044971 121.5528119  52.6471805 120.5871975
 120.7395984  52.9465976 120.9937168 122.0487113  52.2527494 121.3046458
 123.7036697  62.6429562 122.5206240 123.6612876  62.8690408 121.5914772
 124.6199396  62.4092937 122.6692041 132.8800067  56.2332065 120.1236198
 132.7417966  56.4233661 119.1957388 132.5236286  56.9951448 120.5804249
 121.0442194  50.2190161 126.2033210 121.6841573  50.0778920 125.5056174
 120.2119724  49.9324674 125.8271812 132.9069447  58.3008592 125.1347470
 133.3405954  58.2083882 125.9830524 133.6201028  58.2766093 124.4967486
 121.8202498  59.5192591 122.3168203 122.6143096  59.0242911 122.1150778
 121.1094190  58.9910454 121.9535908 126.6397342  61.9010687 126.6680570
 126.6934364  62.4701623 127.4358286 125.7712123  62.0712572 126.3034608
 118.1285261  53.6635673 118.3927955 117.1982849  53.6020128 118.6097918
 118.2242733  53.1411626 117.5964597 118.0470810  50.1890486 120.9806197
 118.3077627  51.1035819 120.8715358 118.8687982  49.7214928 121.1302810
 119.5195735  51.6028243 128.1505022 120.1918789  51.3945605 127.5017671
 118.6925522  51.4050329 127.7110254 125.5985442  56.0670949 128.2267502
 126.5277502  56.2182108 128.0536470 125.1776472  56.1554969 127.3716149
 124.3973774  60.0921613 125.9966040 124.2584859  59.7240397 126.8691978
 123.6088370  60.6069252 125.8249998 124.9921925  65.1930710 117.3391576
 125.1673681  64.7218753 118.1537199 124.3054714  65.8196476 117.5672837
 125.9478989  59.4703216 123.3854878 125.6128821  59.4303986 124.2812528
 125.4482934  58.8047932 122.9125288 119.9223233  54.8770846 128.9107459
 119.7843031  54.1451085 129.5118998 120.8328156  54.7879746 128.6291647
 128.8838180  56.8159250 113.6591937 128.2667351  56.0906078 113.5624990
 128.4154669  57.5768610 113.3159012 122.5505533  54.5890805 128.3991138
 123.2605152  53.9483997 128.3577757 122.5074841  54.8403700 129.3217319
 130.5392312  61.5258158 131.3197718 130.4804858  60.8417379 130.6528301
 130.9411830  62.2677148 130.8678344 121.2634467  51.5756023 130.2186778
 120.7271824  51.1246761 130.8708374 120.6751176  51.7101932 129.4757242
 119.5583011  68.3420072 124.1131437 119.7979609  68.9738596 124.7910455
 118.7152207  67.9908112 124.3996796 120.6736726  51.0344674 112.7813242
 119.7966193  50.9133475 112.4175488 121.1494479  50.2430753 112.5292130
 112.1938866  55.8221834 122.8754749 112.8809906  55.5083564 122.2875764
 112.0386995  56.7263199 122.6022000 116.9973589  50.7112031 127.3039772
 116.9131777  50.1037700 126.5690182 116.1756295  51.2021049 127.3049269
 124.0710873  64.1499195 126.5172941 123.9981044  64.9554166 127.0292245
 123.6288266  64.3491161 125.6920962 123.8600652  63.3870965 120.0275762
 123.0768174  63.9292645 120.1213987 124.5593397  63.9044944 120.4270003
 127.1697302  49.1965594 122.6709967 127.6666002  48.4435557 122.3511038
 126.3984284  49.2329911 122.1053177 126.5309556  64.0486029 128.6731099
 127.2437528  64.6833494 128.6007001 126.0399585  64.1449895 127.8571101
 128.2527083  57.9537281 120.2448391 127.3183362  58.0738744 120.0753095
 128.4303752  57.0509748 119.9808401 123.7532271  51.3382977 122.3981652
 123.3830059  50.7854018 123.0862558 124.2491364  50.7341111 121.8456652
 131.6399634  53.7954601 120.7798425 132.1060087  54.6282592 120.7058728
 132.0907135  53.3299582 121.4843684 121.5821470  61.7980472 129.4936670
 122.2830929  62.4316955 129.6466064 121.1116585  62.1395204 128.7332309
 129.7075866  60.1398422 117.7784577 129.9835709  60.0255017 118.6878451
 128.8380364  59.7415907 117.7396750 129.3822756  54.3525080 127.3189220
 128.7294206  54.6000987 126.6641673 129.7603136  53.5389218 126.9851698
 126.3429930  64.3884773 121.4217391 126.5252324  63.5706429 121.8845143
 127.1662916  64.6052465 120.9842281 126.6772095  63.3152958 118.6832439
 127.2059861  62.8045413 118.0702601 126.9400315  62.9995488 119.5477972
 117.1789188  61.3316827 126.4267773 117.7642625  60.5860515 126.5595677
 116.9814026  61.6420784 127.3104437 120.0327843  64.3668075 121.4430215
 119.3638218  64.8514202 120.9594255 119.8940713  64.6137295 122.3573594
 111.7706842  53.9022427 125.1472216 111.8090942  53.3686018 125.9409334
 111.2647135  53.3757633 124.5283193 124.1733112  66.4011818 128.0412873
 124.7251420  66.5643440 128.8061959 124.5139305  66.9916256 127.3692898
 119.1497605  48.7486968 128.6434758 119.2138931  49.6101799 128.2312156
 119.0864725  48.1360970 127.9107117 118.6249877  50.8210101 132.2907792
 119.2521916  50.4387178 132.9045317 117.7677796  50.6024302 132.6563485
 115.4015420  52.6286530 118.2226147 115.6968861  51.7197208 118.1693201
 114.5003456  52.6074269 117.9007150 127.3101499  64.3493794 125.0276556
 127.1852638  63.5483534 124.5187501 127.9680590  64.8439987 124.5390526
 118.9309667  50.7042526 124.2053696 118.2096253  51.3178494 124.0661169
 119.7202923  51.2400291 124.1270342 129.3736407  62.1502814 126.6556106
 128.4266743  62.0308165 126.5834432 129.7219180  61.2625312 126.7382367
 117.1303262  50.3100627 118.3465472 116.8015968  49.4298006 118.1640578
 117.4842632  50.2548296 119.2341862 126.3782841  61.9455530 122.8560458
 126.2307803  61.0172237 123.0368028 127.2036334  61.9675621 122.3717533
 120.2445085  50.5973597 118.7140950 120.5841157  51.1259518 117.9919558
 120.6917205  50.9354003 119.4899517 129.9816962  62.7684089 123.9425331
 130.9063510  62.5626950 123.8049782 129.8132266  62.5200490 124.8514672
 122.9388526  48.9810648 128.1644018 122.5985346  48.1818461 128.5664698
 122.2327532  49.2812359 127.5920851 123.5904997  46.0659960 126.6171341
 124.4131067  45.5920438 126.4950231 123.8343061  46.8450444 127.1170027
 122.2313232  49.0948219 116.9134243 122.9521594  49.4729471 116.4097960
 121.6078536  49.8137095 117.0169221 126.3744355  49.7993368 117.8492575
 126.5907969  50.6818006 117.5481403 125.8938422  49.4079581 117.1198217
 121.1143576  52.7579081 124.4263320 120.9688157  53.0719384 125.3187601
 120.6368780  53.3763981 123.8734218 122.9739959  49.7481629 124.4744209
 122.9601528  48.8522722 124.1376507 123.6912387  49.7552293 125.1082495
 124.8266090  50.1818969 126.5197337 124.5683868  51.1036040 126.5181667
 124.2951130  49.7849404 127.2097801 129.7712279  63.2869756 119.2987422
 129.9449156  62.7216179 118.5461275 130.2641170  64.0870651 119.1166912
 115.5889238  55.2984425 127.3650981 115.0442706  56.0744233 127.4971255
 116.4668588  55.6455230 127.2070102 122.3776855  48.6296009 119.7431779
 122.4992766  47.7012655 119.9422667 122.0878897  48.6434695 118.8310095
 125.2468045  46.3150920 122.8798499 125.2689742  46.3790253 121.9250479
 125.6636104  45.4755428 123.0739005 135.6251670  56.0506179 120.9177722
 136.0682816  55.3013504 120.5196845 134.7478180  56.0416315 120.5351454
 130.7587451  62.6036521 116.3984320 131.4538356  63.2243213 116.6171635
 131.1010601  61.7531872 116.6736698 116.3755260  54.4254322 130.2581138
 115.6336996  54.5736957 130.8445768 116.0548005  54.6862587 129.3947887
 132.6578874  60.0536226 117.9271651 133.1830198  60.3923499 117.2020971
 132.5701227  59.1183241 117.7434786 124.3198923  63.9670300 130.0561528
 124.6286049  63.7219447 130.9284227 125.1174405  64.1716938 129.5680398
 124.3419535  66.1208209 122.2866904 123.9024525  65.6284588 122.9799761
 125.0927652  65.5781177 122.0458980 116.8211874  62.3119750 122.2891532
 117.6469894  62.0123522 121.9090176 116.4705926  61.5427373 122.7381321
 121.7893407  61.6646218 124.3589206 121.1673416  61.0016924 124.0591434
 122.4598274  61.6907350 123.6762854 115.0220479  60.2306077 123.2480466
 114.1852387  59.8028251 123.0664467 114.9944124  60.4238520 124.1851257
 121.3506914  60.2150142 117.8347667 121.4995034  60.8985606 117.1814339
 122.1573357  60.1955232 118.3497122 135.1684534  57.5211417 123.3100169
 136.0031426  57.9601221 123.4737730 135.3043663  57.0450071 122.4908415
 119.1059547  56.2415319 118.8408735 118.8605589  55.3377649 119.0388946
 119.2755462  56.2432470 117.8988213 118.3755195  51.9743677 116.3394897
 117.6824439  52.0488032 115.6834933 118.1306946  51.2104021 116.8616414
 124.8502320  62.7098272 115.3059414 124.2776287  63.3288459 114.8529886
 125.4235113  63.2597634 115.8399336 128.0699579  62.9935422 116.4367996
 129.0030252  62.9280984 116.6400872 127.9822792  63.8291689 115.9782529
 130.6987596  62.3101293 113.3971944 130.6201228  61.9761156 114.2907702
 131.5197263  62.8023061 113.3963416 125.2349118  54.0459085 112.6475467
 126.1808223  53.9165293 112.7163885 124.8563363  53.3073747 113.1244895
 123.4192035  51.9709061 112.5830352 122.5123491  51.6742174 112.6593065
 123.6968016  51.6738879 111.7164638 114.3369976  53.2915425 123.0329398
 114.0172760  52.4380733 122.7403772 113.7903404  53.5064003 123.7887365
 118.1149883  56.0077866 126.7498905 118.3335893  56.9394974 126.7686938
 118.5275657  55.6485840 127.5353708 125.0354101  46.5145951 118.7374593
 124.2254829  46.1693036 119.1129839 125.7238518  46.2053495 119.3262205
 126.9644649  45.5923998 120.3598890 127.5175688  46.0119451 121.0188913
 127.2014736  44.6659746 120.4021846 122.1890820  48.8295997 112.7242331
 123.0509984  49.1550895 112.9838148 122.3741164  48.0427493 112.2115397
 114.2058236  56.9118336 125.0022520 113.5121707  56.4972289 124.4892474
 114.9531227  56.9538873 124.4055939 130.3423456  47.7024523 119.8677554
 129.7622125  48.3609327 119.4855606 130.0759389  46.8801868 119.4564971
 128.7927023  47.1029581 122.0698874 129.2926801  47.2146115 121.2613193
 129.4362631  46.7990634 122.7099683 116.1194978  56.8436590 122.8788535
 116.0965666  56.9424277 121.9270418 116.4295615  57.6901741 123.2005701
 118.7782356  58.9012745 126.9935149 119.7325610  58.8696687 126.9265081
 118.5794880  58.4403369 127.8085375 119.3681738  57.4713861 129.5605947
 120.1874627  57.9657940 129.5840784 119.6418546  56.5545829 129.5323514
 129.1248334  49.8624613 118.9233902 128.2374189  50.1474264 118.7054097
 129.5402323  49.7018377 118.0761179 132.4762870  49.8871134 122.6388241
 133.2523261  50.3767587 122.9112858 131.7511005  50.3129189 123.0960111
 117.1332585  64.4432365 124.0105347 116.9987053  63.6832765 123.4443345
 116.7164647  65.1673264 123.5434136 128.2691548  59.6269288 113.0181922
 128.9727398  59.8319291 113.6339578 127.5454197  60.1946050 113.2831006
 129.0989358  55.3779149 119.1384192 129.0424559  55.8347701 118.2991825
 129.6517700  54.6169834 118.9607035 132.9094164  51.1668881 119.9634312
 132.6531098  50.7665517 120.7942520 132.2847032  51.8812675 119.8384451
 120.2901711  65.3401682 124.2223790 120.1734095  66.2847114 124.1202480
 119.4694157  65.0375243 124.6109589 130.1778245  60.0651817 115.0680382
 131.0123849  59.6333016 114.8857857 130.0162588  59.8933831 115.9957277
 129.8324137  56.5683931 116.4336722 129.7772941  56.4028202 115.4925166
 129.2070193  57.2759964 116.5898911 114.6216652  51.8051995 130.2598144
 115.2675516  51.2950949 130.7485369 114.4133803  52.5420677 130.8341569
 123.1420263  46.0692040 116.0122040 123.1298933  47.0133880 116.1690311
 124.0343685  45.8862185 115.7181501 121.3156225  65.9929944 127.4379718
 122.2183471  66.0253554 127.7546213 121.0893595  65.0630394 127.4526054
 123.0709827  64.7460930 124.0989797 122.1205458  64.7462792 123.9854169
 123.3742313  63.9993665 123.5825831 126.9572382  42.6634816 120.2667977
 126.1904778  42.1093303 120.4124659 127.3683087  42.7356685 121.1282128
 138.8062520  70.5821468 125.1635559 139.4440930  70.4628216 124.4598899
 138.6883363  71.5302312 125.2223511 135.6152227  70.5348897 125.0997084
 135.2770738  70.4189961 124.2117619 136.4841995  70.1340062 125.0798090
 131.4739042  72.3884373 121.0893975 130.9103907  72.2974310 120.3210262
 131.3591437  71.5684277 121.5696467 129.0203474  73.8835565 123.9278195
 129.8124766  73.5426389 123.5124494 129.2600124  73.9930540 124.8480348
 137.0538601  76.0555341 116.4008440 136.4026581  76.6409421 116.0142453
 137.8482964  76.5861536 116.4603477 130.9794228  73.1444478 116.7995574
 131.7525104  72.5973465 116.6608450 131.3319627  74.0088727 117.0110035
 133.7435478  71.8497709 126.5963833 134.3399050  71.6253731 125.8820796
 133.8010449  71.1082454 127.1989281 133.3160506  69.3037144 114.4314024
 133.5686027  68.7818665 113.6697487 132.3785065  69.1403289 114.5340707
 138.3603789  68.3072922 122.2388767 139.1466878  67.8892345 121.8879184
 138.6242493  69.2119014 122.4070415 138.5313866  73.7445773 116.9377424
 137.8959699  73.8180399 117.6498328 138.2011273  74.3339371 116.2596503
 133.0356795  71.2065250 116.6338399 132.9193053  70.5310153 117.3019483
 133.1459055  70.7197624 115.8170552 135.3788336  70.6675397 120.3385088
 135.0146543  70.1406018 121.0498009 136.2355452  70.2773866 120.1651573
 135.0193823  65.6965297 115.3346437 135.1868225  66.5645533 115.7016908
 134.8290992  65.8592578 114.4107726 137.7769156  74.1582276 127.0012267
 137.4769879  75.0607314 126.8928074 137.4320215  73.8914459 127.8533420
 131.2281637  70.6096072 123.0348971 130.3032134  70.4772287 123.2426663
 131.4766050  71.3890292 123.5318914 141.1766300  66.6764816 124.6809704
 140.2683177  66.6080224 124.3868465 141.1253895  67.1536761 125.5091530
 134.9983043  68.1522954 116.3193103 134.8782669  68.5980005 117.1578584
 134.3035632  68.5008272 115.7606641 128.5890448  70.2529346 123.8692760
 128.7182829  70.5063825 124.7832172 127.9087900  70.8457054 123.5497415
 132.7589936  80.9226596 119.9683235 132.6813965  81.8734421 120.0471715
 132.1551579  80.5772468 120.6258161 135.3339947  67.9841662 128.1568287
 136.1801143  68.4081076 128.3002936 135.2738585  67.3275286 128.8506850
 139.3037692  73.6070246 124.5387019 138.6746554  73.7715960 123.8363087
 138.9163354  74.0211855 125.3097983 138.0404084  64.8002463 125.3963298
 137.1788563  65.0983717 125.6880036 138.0666519  65.0172862 124.4644331
 134.8565654  73.3444654 121.8037104 135.3203999  73.6232357 121.0141726
 134.5922452  72.4428098 121.6210195 131.7489735  72.8916135 124.7416867
 132.3191092  73.3203404 124.1034352 132.3397847  72.6098720 125.4401053
 133.7934540  69.4667806 118.6126669 134.4958583  69.9188850 119.0800595
 133.4615168  68.8251625 119.2406562 132.2414901  68.0579563 132.9877878
 131.6113562  68.7395844 133.2213275 132.1350989  67.9462645 132.0431017
 127.5359874  67.7251359 123.9143803 126.7458928  67.9808887 123.4383913
 128.0271121  68.5399697 124.0195843 129.4874619  68.0895938 120.8727279
 128.6905782  68.2014632 121.3910775 129.2600211  68.4282590 120.0068170
 125.8197577  67.9781849 126.3458793 126.0705615  68.8628859 126.6116369
 126.3557125  67.7986451 125.5733885 135.0328304  76.2808749 118.6888774
 134.8973979  77.1260285 119.1173622 135.5738117  76.4828027 117.9254708
 128.4857702  73.7984187 119.2616699 128.9982222  74.5927437 119.4122264
 129.1380415  73.1010477 119.1950301 130.2952587  76.9149943 121.3439453
 130.4719215  77.8367908 121.1560436 131.0909420  76.6008362 121.7733832
 129.5804943  68.9614575 131.2201616 129.4658458  68.0599832 131.5208715
 128.7249461  69.2078272 130.8686432 131.4183902  78.4328117 127.3449795
 131.9691327  78.3045180 126.5726789 130.5795378  78.7323006 126.9944688
 126.4506619  72.1272841 120.0376270 127.2881841  72.5369850 119.8209978
 126.6284886  71.1872283 120.0076464 138.3471051  69.7947922 115.7260103
 137.8317674  70.5652527 115.9648490 138.0748359  69.1213058 116.3493164
 135.9318162  64.6397623 120.7845341 135.0759758  64.2504473 120.6050980
 136.3445114  64.7189583 119.9245127 137.4617308  62.1743966 125.1836901
 136.9582104  62.1374101 124.3704706 137.7547915  63.0836709 125.2433558
 133.7060194  62.2582696 124.1903083 134.5713191  62.0625504 123.8308972
 133.7737703  62.0293047 125.1172439 138.1357354  67.6675014 117.5519884
 137.8307490  67.9821163 118.4030027 139.0887796  67.7456434 117.5947217
 136.5803786  73.8265237 119.2012838 136.0525147  73.0917997 118.8886075
 136.0791288  74.6039914 118.9552806 131.3122513  64.4884904 121.5619450
 131.8866265  64.2660085 120.8292642 131.8993496  64.5573598 122.3148051
 140.3702091  70.3758630 122.3683826 140.8833972  71.0088622 122.8705536
 141.0203314  69.7759826 122.0027186 131.6392100  66.5189365 115.5815335
 130.8029413  66.8564051 115.9024610 131.4996870  66.3838344 114.6442472
 133.6145181  61.3626152 120.2894519 132.9609593  61.0475170 119.6651134
 133.5725655  60.7401893 121.0154342 134.7256386  71.6445448 112.2047811
 133.8183448  71.4134701 112.4038960 135.2227418  70.8483067 112.3921793
 137.6324465  80.3542955 115.1244497 136.9586164  80.6574652 115.7329455
 138.0190287  81.1572035 114.7749954 136.8482921  67.8508086 124.6142167
 135.9305483  68.0723033 124.4563855 137.2643065  67.9254397 123.7553874
 137.6317969  69.2499502 119.7444847 138.3789788  69.7620899 119.4351969
 137.9009559  68.9283554 120.6049240 135.9044619  71.7458042 116.7271801
 134.9955839  71.4617075 116.8244271 135.9339703  72.1657121 115.8675108
 141.1363887  75.3564632 120.4962969 140.6826214  74.5155542 120.5528159
 140.5057854  75.9926030 120.8337749 140.0796806  66.2856618 121.7263636
 139.3419563  65.7734004 122.0573879 140.3323580  65.8457000 120.9146913
 139.5796826  77.1941129 121.4312787 139.8719800  77.7546186 120.7125152
 140.0895447  77.4869690 122.1865946 126.4732790  69.4663557 120.7087003
 126.2757190  68.8732917 119.9838070 125.9179454  69.1615767 121.4262942
 134.4529513  69.3586663 122.8281597 134.5078123  68.4060499 122.7524073
 133.6420715  69.5146102 123.3122895 135.6020707  73.2866786 114.0659880
 135.1640137  72.5702645 113.6065517 136.3431148  73.5142901 113.5044971
 132.3921873  67.9763723 120.5871975 131.5789739  68.2757893 120.9937168
 132.8880868  67.5819412 121.3046458 134.5430451  77.9721480 122.5206240
 134.5006630  78.1982326 121.5914772 135.4593150  77.7384854 122.6692041
 131.8835948  65.5482078 126.2033210 132.5235327  65.4070837 125.5056174
 131.0513479  65.2616592 125.8271812 132.6596252  74.8484509 122.3168203
 133.4536851  74.3534829 122.1150778 131.9487944  74.3202372 121.9535908
 128.9679015  68.9927590 118.3927955 128.0376604  68.9312046 118.6097918
 129.0636487  68.4703543 117.5964597 128.8864565  65.5182403 120.9806197
 129.1471382  66.4327737 120.8715358 129.7081737  65.0506846 121.1302810
 130.3589490  66.9320160 128.1505022 131.0312543  66.7237523 127.5017671
 129.5319276  66.7342246 127.7110254 136.4379196  71.3962866 128.2267502
 137.3671256  71.5474026 128.0536470 136.0170226  71.4846887 127.3716149
 135.2367528  75.4213531 125.9966040 135.0978614  75.0532315 126.8691978
 134.4482124  75.9361170 125.8249998 135.8315680  80.5222627 117.3391576
 136.0067436  80.0510670 118.1537199 135.1448468  81.1488393 117.5672837
 136.7872743  74.7995133 123.3854878 136.4522576  74.7595903 124.2812528
 136.2876689  74.1339849 122.9125288 130.7616987  70.2062763 128.9107459
 130.6236785  69.4743002 129.5118998 131.6721911  70.1171664 128.6291647
 139.7231935  72.1451168 113.6591937 139.1061105  71.4197996 113.5624990
 139.2548423  72.9060528 113.3159012 133.3899288  69.9182723 128.3991138
 134.0998906  69.2775915 128.3577757 133.3468596  70.1695618 129.3217319
 132.1028222  66.9047941 130.2186778 131.5665579  66.4538679 130.8708374
 131.5144930  67.0393849 129.4757242 131.5130481  66.3636592 112.7813242
 130.6359947  66.2425393 112.4175488 131.9888234  65.5722670 112.5292130
 123.0332621  71.1513752 122.8754749 123.7203661  70.8375482 122.2875764
 122.8780750  72.0555116 122.6022000 127.8367343  66.0403948 127.3039772
 127.7525532  65.4329618 126.5690182 127.0150049  66.5312967 127.3049269
 134.6994407  78.7162882 120.0275762 133.9161929  79.2584563 120.1213987
 135.3987152  79.2336862 120.4270003 138.0091057  64.5257512 122.6709967
 138.5059756  63.7727474 122.3511038 137.2378038  64.5621829 122.1053177
 139.0920838  73.2829199 120.2448391 138.1577116  73.4030662 120.0753095
 139.2697506  72.3801666 119.9808401 134.5926026  66.6674895 122.3981652
 134.2223813  66.1145935 123.0862558 135.0885118  66.0633028 121.8456652
 140.5469620  75.4690340 117.7784577 140.8229464  75.3546934 118.6878451
 139.6774119  75.0707825 117.7396750 140.2216510  69.6816997 127.3189220
 139.5687960  69.9292905 126.6641673 140.5996890  68.8681136 126.9851698
 137.1823684  79.7176691 121.4217391 137.3646079  78.8998346 121.8845143
 138.0056670  79.9344383 120.9842281 137.5165850  78.6444876 118.6832439
 138.0453616  78.1337330 118.0702601 137.7794069  78.3287406 119.5477972
 128.0182942  76.6608745 126.4267773 128.6036379  75.9152433 126.5595677
 127.8207781  76.9712702 127.3104437 130.8721597  79.6959992 121.4430215
 130.2031973  80.1806120 120.9594255 130.7334467  79.9429213 122.3573594
 122.6100597  69.2314345 125.1472216 122.6484696  68.6977936 125.9409334
 122.1040890  68.7049551 124.5283193 129.9891359  64.0778886 128.6434758
 130.0532686  64.9393717 128.2312156 129.9258480  63.4652887 127.9107117
 129.4643632  66.1502018 132.2907792 130.0915671  65.7679096 132.9045317
 128.6071551  65.9316220 132.6563485 126.2409175  67.9578447 118.2226147
 126.5362616  67.0489126 118.1693201 125.3397210  67.9366187 117.9007150
 129.7703422  66.0334444 124.2053696 129.0490007  66.6470412 124.0661169
 130.5596677  66.5692209 124.1270342 127.9697016  65.6392545 118.3465472
 127.6409722  64.7589924 118.1640578 128.3236387  65.5840214 119.2341862
 137.2176595  77.2747448 122.8560458 137.0701557  76.3464155 123.0368028
 138.0430089  77.2967538 122.3717533 131.0838839  65.9265515 118.7140950
 131.4234912  66.4551436 117.9919558 131.5310960  66.2645921 119.4899517
 133.7782280  64.3102565 128.1644018 133.4379100  63.5110379 128.5664698
 133.0721286  64.6104276 127.5920851 134.4298752  61.3951878 126.6171341
 135.2524821  60.9212356 126.4950231 134.6736815  62.1742362 127.1170027
 133.0706986  64.4240136 116.9134243 133.7915349  64.8021389 116.4097960
 132.4472291  65.1429013 117.0169221 137.2138109  65.1285285 117.8492575
 137.4301724  66.0109923 117.5481403 136.7332176  64.7371499 117.1198217
 131.9537331  68.0870999 124.4263320 131.8081911  68.4011302 125.3187601
 131.4762534  68.7055899 123.8734218 133.8133714  65.0773547 124.4744209
 133.7995282  64.1814640 124.1376507 134.5306142  65.0844210 125.1082495
 135.6659844  65.5110887 126.5197337 135.4077622  66.4327957 126.5181667
 135.1344885  65.1141321 127.2097801 140.6106033  78.6161674 119.2987422
 140.7842911  78.0508096 118.5461275 141.1034924  79.4162569 119.1166912
 126.4282993  70.6276343 127.3650981 125.8836461  71.4036151 127.4971255
 127.3062343  70.9747147 127.2070102 133.2170610  63.9587927 119.7431779
 133.3386521  63.0304573 119.9422667 132.9272652  63.9726613 118.8310095
 136.0861800  61.6442837 122.8798499 136.1083497  61.7082170 121.9250479
 136.5029859  60.8047346 123.0739005 127.2149015  69.7546239 130.2581138
 126.4730751  69.9028875 130.8445768 126.8941759  70.0154505 129.3947887
 135.1813289  81.4500127 122.2866904 134.7418280  80.9576506 122.9799761
 135.9321406  80.9073095 122.0458980 127.6605628  77.6411668 122.2891532
 128.4863648  77.3415440 121.9090176 127.3099680  76.8719290 122.7381321
 132.6287162  76.9938136 124.3589206 132.0067171  76.3308841 124.0591434
 133.2992028  77.0199268 123.6762854 125.8614233  75.5597994 123.2480466
 125.0246142  75.1320169 123.0664467 125.8337879  75.7530438 124.1851257
 132.1900668  75.5442060 117.8347667 132.3388789  76.2277524 117.1814339
 132.9967112  75.5247150 118.3497122 129.9453301  71.5707237 118.8408735
 129.6999343  70.6669567 119.0388946 130.1149216  71.5724388 117.8988213
 129.2148949  67.3035595 116.3394897 128.5218194  67.3779950 115.6834933
 128.9700701  66.5395938 116.8616414 135.6896074  78.0390190 115.3059414
 135.1170041  78.6580377 114.8529886 136.2628868  78.5889552 115.8399336
 138.9093334  78.3227340 116.4367996 139.8424007  78.2572902 116.6400872
 138.8216547  79.1583607 115.9782529 136.0742873  69.3751003 112.6475467
 137.0201977  69.2457211 112.7163885 135.6957117  68.6365665 113.1244895
 134.2585790  67.3000979 112.5830352 133.3517245  67.0034092 112.6593065
 134.5361771  67.0030797 111.7164638 125.1763730  68.6207343 123.0329398
 124.8566514  67.7672651 122.7403772 124.6297158  68.8355921 123.7887365
 128.9543638  71.3369784 126.7498905 129.1729647  72.2686891 126.7686938
 129.3669411  70.9777758 127.5353708 135.8747855  61.8437869 118.7374593
 135.0648584  61.4984954 119.1129839 136.5632272  61.5345413 119.3262205
 137.8038404  60.9215916 120.3598890 138.3569442  61.3411369 121.0188913
 138.0408490  59.9951664 120.4021846 133.0284574  64.1587914 112.7242331
 133.8903738  64.4842813 112.9838148 133.2134918  63.3719410 112.2115397
 125.0451990  72.2410254 125.0022520 124.3515461  71.8264207 124.4892474
 125.7924981  72.2830791 124.4055939 141.1817211  63.0316441 119.8677554
 140.6015880  63.6901245 119.4855606 140.9153143  62.2093785 119.4564971
 139.6320777  62.4321498 122.0698874 140.1320555  62.5438033 121.2613193
 140.2756385  62.1282551 122.7099683 126.9588733  72.1728508 122.8788535
 126.9359421  72.2716195 121.9270418 127.2689369  73.0193659 123.2005701
 129.6176110  74.2304663 126.9935149 130.5719364  74.1988605 126.9265081
 129.4188634  73.7695287 127.8085375 130.2075493  72.8005779 129.5605947
 131.0268382  73.2949858 129.5840784 130.4812300  71.8837747 129.5323514
 139.9642089  65.1916531 118.9233902 139.0767944  65.4766182 118.7054097
 140.3796078  65.0310295 118.0761179 127.9726339  79.7724282 124.0105347
 127.8380807  79.0124683 123.4443345 127.5558402  80.4965182 123.5434136
 139.1085302  74.9561206 113.0181922 139.8121152  75.1611208 113.6339578
 138.3847951  75.5237968 113.2831006 139.9383113  70.7071067 119.1384192
 139.8818314  71.1639619 118.2991825 140.4911455  69.9461752 118.9607035
 131.1295465  80.6693599 124.2223790 131.0127849  81.6139032 124.1202480
 130.3087911  80.3667161 124.6109589 140.6717892  71.8975848 116.4336722
 140.6166696  71.7320120 115.4925166 140.0463947  72.6051881 116.5898911
 125.4610407  67.1343913 130.2598144 126.1069270  66.6242867 130.7485369
 125.2527558  67.8712594 130.8341569 133.9814017  61.3983957 116.0122040
 133.9692687  62.3425797 116.1690311 134.8737439  61.2154103 115.7181501
 133.9103581  80.0752848 124.0989797 132.9599212  80.0754709 123.9854169
 134.2136067  79.3285582 123.5825831 137.7966137  57.9926734 120.2667977
 137.0298533  57.4385221 120.4124659 138.2076842  58.0648603 121.1282128
 140.3268374  83.4187856 120.8727279 139.5299537  83.5306550 121.3910775
 140.0993966  83.7574508 120.0068170 137.3126544  84.7955474 120.7087003
 137.1150944  84.2024835 119.9838070 136.7573208  84.4907684 121.4262942
 139.8072770  84.3219508 118.3927955 138.8770358  84.2603964 118.6097918
 139.9030242  83.7995461 117.5964597 139.7258319  80.8474321 120.9806197
 139.9865136  81.7619654 120.8715358 140.5475491  80.3798764 121.1302810
 137.0802929  83.2870365 118.2226147 137.3756370  82.3781043 118.1693201
 136.1790965  83.2658104 117.9007150 138.8090771  80.9684463 118.3465472
 138.4803477  80.0881842 118.1640578 139.1630141  80.9132131 119.2341862
 140.7847056  86.8999155 118.8408735 140.5393098  85.9961485 119.0388946
 140.9542970  86.9016305 117.8988213 140.0542703  82.6327512 116.3394897
 139.3611948  82.7071867 115.6834933 139.8094455  81.8687856 116.8616414
 100.2408673  11.9412966 106.6928541 100.1632703  12.8920791 106.7717022
  99.6370317  11.5958838 107.3503468 102.5147042   7.2995118 105.4134081
 102.3792717   8.1446654 105.8418929 103.0556855   7.5014396 104.6500015
  97.7771324   7.9336313 108.0684759  97.9537953   8.8554277 107.8805743
  98.5728158   7.6194732 108.4979139  98.9002640   9.4514487 114.0695102
  99.4510065   9.3231550 113.2972095  98.0614116   9.7509376 113.7189994
 105.1143203  11.3729324 101.8489804 104.4404901  11.6761021 102.4574762
 105.5009025  12.1758405 101.4995261 102.0249189   8.9907849 109.2451547
 101.9825368   9.2168696 108.3160079 102.9411888   8.7571224 109.3937348
 104.9609834   8.2488974 113.3925877 105.0146857   8.8179910 114.1603593
 104.0924616   8.4190859 113.0279914 103.3134418  11.5408997 104.0636883
 103.4886173  11.0697040 104.8782506 102.6267206  12.1674763 104.2918144
  97.8795503  14.6898360 110.8376743  98.1192101  15.3216884 111.5155762
  97.0364700  14.3386400 111.1242102 102.3923365  10.4977482 113.2418247
 102.3193536  11.3032453 113.7537552 101.9500758  10.6969448 112.4166269
 102.1813145   9.7349252 106.7521069 101.3980666  10.2770932 106.8459293
 102.8805890  10.2523232 107.1515310 104.8522048  10.3964316 115.3976406
 105.5650021  11.0311781 115.3252307 104.3612077  10.4928182 114.5816408
  99.9033962   8.1458759 116.2181977 100.6043421   8.7795242 116.3711371
  99.4329077   8.4873491 115.4577616 104.6642422  10.7363060 108.1462697
 104.8464816   9.9184716 108.6090450 105.4875408  10.9530752 107.7087587
 104.9984587   9.6631245 105.4077746 105.5272354   9.1523700 104.7947908
 105.2612807   9.3473775 106.2723279  95.5001680   7.6795115 113.1513079
  96.0855117   6.9338802 113.2840984  95.3026518   7.9899071 114.0349743
  98.3540335  10.7146362 108.1675522  97.6850711  11.1992490 107.6839562
  98.2153205  10.9615582 109.0818900 102.4945604  12.7490105 114.7658180
 103.0463912  12.9121727 115.5307265 102.8351797  13.3394543 114.0938205
 105.6313991  10.6972081 111.7521862 105.5065131   9.8961821 111.2432808
 106.2893082  11.1918274 111.2635832 102.6411415  10.3148587 116.7806834
 102.9498542  10.0697734 117.6529534 103.4386897  10.5195225 116.2925705
 102.6632027  12.4686497 109.0112211 102.2237018  11.9762875 109.7045068
 103.4140144  11.9259464 108.7704286  95.1424366   8.6598037 109.0136839
  95.9682386   8.3601809 108.6335483  94.7918418   7.8905660 109.4626628
 100.1105899   8.0124506 111.0834513  99.4885909   7.3495211 110.7836741
 100.7810766   8.0385638 110.4008160  93.3432971   6.5784364 109.9725773
  92.5064880   6.1506538 109.7909774  93.3156617   6.7716807 110.9096564
  99.6719406   6.5628429 104.5592973  99.8207527   7.2463893 103.9059646
 100.4785850   6.5433519 105.0742429 103.1714812   9.0576560 102.0304721
 102.5988779   9.6766747 101.5775193 103.7447605   9.6075921 102.5644643
 106.3912072   9.3413710 103.1613303 107.3242745   9.2759271 103.3646178
 106.3035284  10.1769976 102.7027836  95.4545077  10.7910652 110.7350654
  95.3199545  10.0311053 110.1688652  95.0377139  11.5151552 110.2679442
  98.6114203  11.6879969 110.9469096  98.4946587  12.6325401 110.8447786
  97.7906649  11.3853530 111.3354895  99.6368717  12.3408231 114.1625025
 100.5395964  12.3731841 114.4791520  99.4106087  11.4108682 114.1771360
 101.3922319  11.0939217 110.8235103 100.4417950  11.0941079 110.7099476
 101.6954805  10.3471952 110.3071138 117.1275013  16.9299756 111.8880866
 117.7653422  16.8106503 111.1844206 117.0095855  17.8780600 111.9468818
 113.9364719  16.8827184 111.8242390 113.5983230  16.7668249 110.9362925
 114.8054487  16.4818349 111.8043396 109.7951535  18.7362660 107.8139281
 109.2316400  18.6452597 107.0455569 109.6803930  17.9162565 108.2941774
 114.4184502  18.0362036 117.7828596 114.4073143  17.6414834 116.9109099
 114.5805141  17.3028108 118.3762367 107.3415966  20.2313852 110.6523502
 108.1337258  19.8904676 110.2369801 107.5812617  20.3408827 111.5725655
 115.3751093  22.4033628 103.1253746 114.7239073  22.9887708 102.7387760
 116.1695456  22.9339823 103.1848784 109.3006720  19.4922765 103.5240881
 110.0737596  18.9451752 103.3853756 109.6532119  20.3567014 103.7355342
 111.1391763  20.8199147 116.7307780 110.8481629  21.7244778 116.6154446
 111.7748747  20.8615675 117.4451849 112.0647970  18.1975996 113.3209139
 112.6611542  17.9732018 112.6066102 112.1222941  17.4560741 113.9234587
 111.6372998  15.6515431 101.1559330 111.8898519  15.1296952 100.3942793
 110.6997557  15.4881577 101.2586014 116.6816281  14.6551210 108.9634074
 117.4679370  14.2370633 108.6124491 116.9454985  15.5597302 109.1315722
 116.8526358  20.0924060 103.6622730 116.2172191  20.1658686 104.3743635
 116.5223765  20.6817659 102.9841810 111.3569287  17.5543537 103.3583705
 111.2405545  16.8788441 104.0264790 111.4671547  17.0675911 102.5415858
 113.7000828  17.0153684 107.0630395 113.3359035  16.4884305 107.7743316
 114.5567944  16.6252153 106.8896880 113.3406315  12.0443584 102.0591743
 113.5080717  12.9123820 102.4262214 113.1503484  12.2070866 101.1353032
 116.0981648  20.5060563 113.7257574 115.7982371  21.4085602 113.6173381
 115.7532708  20.2392746 114.5778726 109.5494129  16.9574360 109.7594278
 108.6244626  16.8250574 109.9671970 109.7978543  17.7368579 110.2564220
 113.3195536  14.5001241 103.0438410 113.1995161  14.9458292 103.8823890
 112.6248124  14.8486559 102.4851948 106.9102941  16.6007633 110.5938067
 107.0395322  16.8542112 111.5077479 106.2300392  17.1935341 110.2742722
 111.0802428  27.2704883 106.6928541 111.0026458  28.2212708 106.7717022
 110.4764071  26.9250756 107.3503468 119.0180602  14.9722715 103.8718744
 119.9298458  15.2050101 103.6966442 118.5090249  15.5559759 103.3093823
 111.8266030  17.2518202 118.9107875 112.5680714  17.7903246 118.6342699
 111.1203015  17.8784491 119.0679427 117.3021370  19.3947342 117.5080037
 117.7104726  18.9529753 116.7634669 116.5798631  18.8199970 117.7614229
 113.6552440  14.3319949 114.8813594 114.5013635  14.7559363 115.0248243
 113.5951077  13.6753574 115.5752157 117.6250184  19.9548533 111.2632325
 116.9959047  20.1194247 110.5608393 117.2375846  20.3690143 112.0343290
 121.5039416  20.8902971 108.6176689 120.8190454  21.2701872 108.0673723
 121.5883265  21.4998298 109.3508637 118.7590348  18.5362930 115.2172033
 118.9707243  19.1794690 114.5406414 118.7120096  17.7025247 114.7493963
 113.1778146  19.6922941 108.5282411 113.6416492  19.9710644 107.7387033
 112.9134944  18.7906386 108.3455501 110.0702227  19.2394423 111.4662174
 110.6403584  19.6681691 110.8279658 110.6610339  18.9577007 112.1646359
 112.1147032  15.8146094 105.3371976 112.8171075  16.2667137 105.8045902
 111.7827661  15.1729912 105.9651869 110.5627394  14.4057850 119.7123185
 109.9326054  15.0874131 119.9458582 110.4563482  14.2940932 118.7676323
 105.8572366  14.0729646 110.6389109 105.0671420  14.3287175 110.1629220
 106.3483613  14.8877984 110.7441150 119.8736176  21.4134885 113.3894390
 120.6953619  21.0115073 113.1077072 119.8698579  21.3103120 114.3410506
 107.8087111  14.4374225 107.5972586 107.0118275  14.5492920 108.1156082
 107.5812704  14.7760878 106.7313476 113.6392779  20.9618929 115.5455101
 113.7037212  21.4239336 116.3813272 112.9303703  20.3316294 115.6737410
 104.1410069  14.3260137 113.0704100 104.3918107  15.2107147 113.3361676
 104.6769617  14.1464738 112.2979192 113.3540797  22.6287036 105.4134081
 113.2186472  23.4738572 105.8418929 113.8950609  22.8306314 104.6500015
 106.8070194  20.1462474 105.9862006 107.3194715  20.9405724 106.1367571
 107.4592907  19.4488765 105.9195607 108.6165079  23.2628230 108.0684759
 108.7931707  24.1846195 107.8805743 109.4121912  22.9486650 108.4979139
 107.9017435  15.3092862 117.9446922 107.7870951  14.4078120 118.2454021
 107.0461953  15.5556559 117.5931739 114.9809273  23.2510603 119.5434423
 114.5373127  22.4646981 119.2255328 115.6426487  23.4389753 118.8778314
 109.7396394  24.7806404 114.0695102 110.2903819  24.6523468 113.2972095
 108.9007870  25.0801293 113.7189994 117.0790511  23.5313403 117.5715824
 117.0608987  24.3522284 117.0796093 118.0010431  23.4067478 117.7965965
 113.5363565  21.0457532 118.4139333 114.0691902  20.2845820 118.1838641
 113.0077646  20.7531184 119.1563487 104.7719111  18.4751128 106.7621577
 105.6094333  18.8848137 106.5455284 104.9497379  17.5350571 106.7321770
 116.6683543  16.1426209 102.4505410 116.1530166  16.9130814 102.6893797
 116.3960851  15.4691345 103.0738471 121.6417817  18.8958564 104.3858583
 120.8647260  18.5569723 103.9413745 122.3209298  18.9011187 103.7113548
 116.4569846  14.0153301 104.2765191 116.1519982  14.3299450 105.1275334
 117.4100288  14.0934721 104.3192524 114.9016278  20.1743525 105.9258145
 114.3737640  19.4396284 105.6131382 114.4003781  20.9518201 105.6798113
 119.8809124  18.3692545 111.0425191 119.2232799  19.0591806 111.1305320
 120.6849523  18.7588977 111.3859177 109.6335006  10.8363191 108.2864756
 110.2078758  10.6138372 107.5537949 110.2205988  10.9051885 109.0393357
 118.6914583  16.7236918 109.0929133 119.2046465  17.3566910 109.5950842
 119.3415807  16.1238113 108.7272493 109.9604593  12.8667652 102.3060641
 109.1241905  13.2042338 102.6269916 109.8209362  12.7316632 101.3687778
 113.0468878  17.9923735  98.9293118 112.1395940  17.7612988  99.1284267
 113.5439910  17.1961354  99.1167099 115.9536957  26.7021242 101.8489804
 115.2798656  27.0052939 102.4574762 116.3402779  27.5050322 101.4995261
 115.1695414  14.1986373 111.3387473 114.2517975  14.4201320 111.1809161
 115.5855557  14.2732684 110.4799181 115.9530461  15.5977789 106.4690154
 116.7002280  16.1099186 106.1597276 116.2222051  15.2761842 107.3294547
 114.2257112  18.0936330 103.4517108 113.3168331  17.8095363 103.5489578
 114.2552195  18.5135408 102.5920415 119.4576379  21.7042919 107.2208275
 119.0038706  20.8633829 107.2773466 118.8270346  22.3404318 107.5583056
 117.9009318  23.5419416 108.1558093 118.1932293  24.1024473 107.4370459
 118.4107939  23.8347977 108.9111253 104.7945282  15.8141844 107.4332310
 104.5969682  15.2211205 106.7083377 104.2391946  15.5094054 108.1508249
 112.7742006  15.7064950 109.5526903 112.8290615  14.7538787 109.4769380
 111.9633208  15.8624389 110.0368202 113.9233199  19.6345073 100.7905186
 113.4852629  18.9180932 100.3310824 114.6643640  19.8621188 100.2290278
 110.7134366  14.3242010 107.3117282 109.9002231  14.6236181 107.7182474
 111.2093360  13.9297699 108.0291764 112.8642944  24.3199767 109.2451547
 112.8219122  24.5460613 108.3160079 113.7805642  24.0863142 109.3937348
 122.0406314  17.9102270 106.8481505 121.9024213  18.1003866 105.9202694
 121.6842533  18.6721653 107.3049556 110.2048440  11.8960366 112.9278517
 110.8447820  11.7549125 112.2301480 109.3725971  11.6094879 112.5517119
 122.0675694  19.9778797 111.8592776 122.5012201  19.8854086 112.7075830
 122.7807275  19.9536298 111.2212792 110.9808744  21.1962796 109.0413509
 111.7749343  20.7013116 108.8396084 110.2700437  20.6680659 108.6781215
 115.8003589  23.5780892 113.3925877 115.8540611  24.1471828 114.1603593
 114.9318370  23.7482777 113.0279914 107.2891508  15.3405878 105.1173262
 106.3589096  15.2790333 105.3343224 107.3848980  14.8181830 104.3209903
 107.2077057  11.8660691 107.7051504 107.4683874  12.7806024 107.5960664
 108.0294229  11.3985133 107.8548117 108.6801982  13.2798448 114.8750328
 109.3525036  13.0715810 114.2262977 107.8531769  13.0820534 114.4355561
 114.7591689  17.7441154 114.9512809 115.6883749  17.8952313 114.7781776
 114.3382719  17.8325174 114.0961455 113.5580020  21.7691818 112.7211347
 113.4191106  21.4010602 113.5937285 112.7694617  22.2839457 112.5495304
 114.1528172  26.8700914 104.0636883 114.3279928  26.3988958 104.8782506
 113.4660960  27.4966681 104.2918144 115.1085235  21.1473421 110.1100184
 114.7735068  21.1074191 111.0057834 114.6089181  20.4818137 109.6370595
 109.0829479  16.5541051 115.6352765 108.9449277  15.8221290 116.2364305
 109.9934403  16.4649951 115.3536953 118.0444427  18.4929455 100.3837244
 117.4273598  17.7676283 100.2870297 117.5760916  19.2538815 100.0404318
 111.7111780  16.2661010 115.1236445 112.4211399  15.6254202 115.0823064
 111.6681088  16.5173905 116.0462626 119.6998559  23.2028363 118.0443024
 119.6411105  22.5187583 117.3773607 120.1018077  23.9447353 117.5923650
 110.4240714  13.2526228 116.9432085 109.8878071  12.8016966 117.5953681
 109.8357422  13.3872137 116.2002549 108.7189258  30.0190277 110.8376743
 108.9585856  30.6508801 111.5155762 107.8758454  29.6678317 111.1242102
 109.8342973  12.7114879  99.5058548 108.9572439  12.5903680  99.1420795
 110.3100726  11.9200958  99.2537437 101.3545113  17.4992039 109.6000055
 102.0416153  17.1853769 109.0121071 101.1993242  18.4033404 109.3267307
 106.1579835  12.3882236 114.0285079 106.0738024  11.7807905 113.2935489
 105.3362542  12.8791254 114.0294575 113.2317119  25.8269400 113.2418247
 113.1587291  26.6324371 113.7537552 112.7894513  26.0261365 112.4166269
 113.0206899  25.0641170 106.7521069 112.2374421  25.6062850 106.8459293
 113.7199644  25.5815149 107.1515310 115.6915803  25.7256234 115.3976406
 116.4043775  26.3603698 115.3252307 115.2005832  25.8220100 114.5816408
 117.4133330  19.6307486 106.9693698 116.4789609  19.7508949 106.7998402
 117.5909998  18.7279953 106.7053707 112.9138518  13.0153182 109.1226959
 112.5436305  12.4624223 109.8107864 113.4097610  12.4111316 108.5701959
 120.8005881  15.4724806 107.5043732 121.2666333  16.3052797 107.4304034
 121.2513382  15.0069787 108.2088990 110.7427716  23.4750677 116.2181977
 111.4437176  24.1087160 116.3711371 110.2722831  23.8165409 115.4577616
 118.8682112  21.8168627 104.5029884 119.1441956  21.7025222 105.4123758
 117.9986611  21.4186112 104.4642057 118.5429002  16.0295285 114.0434527
 117.8900453  16.2771192 113.3886980 118.9209382  15.2159423 113.7097004
 115.5036176  26.0654978 108.1462697 115.6858571  25.2476634 108.6090450
 116.3269162  26.2822670 107.7087587 115.8378342  24.9923163 105.4077746
 116.3666108  24.4815617 104.7947908 116.1006561  24.6765693 106.2723279
 106.3395435  23.0087032 113.1513079 106.9248871  22.2630720 113.2840984
 106.1420273  23.3190989 114.0349743 109.1934090  26.0438280 108.1675522
 108.5244465  26.5284407 107.6839562 109.0546959  26.2907500 109.0818900
 100.9313089  15.5792632 111.8717523 100.9697189  15.0456223 112.6654641
 100.4253382  15.0527838 111.2528500 113.3339358  28.0782023 114.7658180
 113.8857666  28.2413645 115.5307265 113.6745552  28.6686461 114.0938205
 108.3103852  10.4257173 115.3680065 108.3745178  11.2872004 114.9557463
 108.2470972   9.8131175 114.6352423 107.7856124  12.4980305 119.0153099
 108.4128163  12.1157383 119.6290623 106.9284043  12.2794507 119.3808792
 104.5621667  14.3056735 104.9471454 104.8575108  13.3967413 104.8938508
 103.6609703  14.2844474 104.6252456 116.4707746  26.0263999 111.7521862
 116.3458885  25.2253738 111.2432808 117.1286837  26.5210192 111.2635832
 108.0915914  12.3812731 110.9299002 107.3702500  12.9948699 110.7906476
 108.8809170  12.9170496 110.8515648 118.5342654  23.8273019 113.3801412
 117.5872990  23.7078370 113.3079739 118.8825427  22.9395517 113.4627674
 106.2909508  11.9870832 105.0710779 105.9622215  11.1068211 104.8885885
 106.6448879  11.9318501 105.9587168 115.5389087  23.6225735 109.5805765
 115.3914050  22.6942442 109.7613335 116.3642581  23.6445826 109.0962840
 109.4051332  12.2743802 105.4386257 109.7447404  12.8029723 104.7164865
 109.8523452  12.6124208 106.2144823 119.1423209  24.4454294 110.6670637
 120.0669757  24.2397155 110.5295088 118.9738513  24.1970695 111.5759979
 111.3919479  10.7718424 103.6379549 112.1127841  11.1499676 103.1343266
 110.7684783  11.4907300 103.7414527 110.2749823  14.4349286 111.1508626
 110.1294404  14.7489589 112.0432908 109.7975027  15.0534186 110.5979525
 113.9872337  11.8589174 113.2442643 113.7290114  12.7806245 113.2426974
 113.4557377  11.4619609 113.9343108 118.9318525  24.9639961 106.0232729
 119.1055403  24.3986384 105.2706581 119.4247417  25.7640856 105.8412219
 104.7495485  16.9754630 114.0896288 104.2048953  17.7514438 114.2216562
 105.6274835  17.3225435 113.9315409 124.7857917  17.7276384 107.6423029
 125.2289063  16.9783709 107.2442152 123.9084427  17.7186520 107.2596761
 119.9193698  24.2806726 103.1229627 120.6144602  24.9013418 103.3416942
 120.2616848  23.4302077 103.3982005 105.5361507  16.1024526 116.9826444
 104.7943243  16.2507162 117.5691075 105.2154251  16.3632792 116.1193194
 121.8185121  21.7306431 104.6516958 122.3436445  22.0693704 103.9266278
 121.7307474  20.7953446 104.4680092 113.4805170  25.6440505 116.7806834
 113.7892296  25.3989651 117.6529534 114.2780652  25.8487143 116.2925705
 113.5025782  27.7978414 109.0112211 113.0630772  27.3054793 109.7045068
 114.2533899  27.2551382 108.7704286 105.9818121  23.9889955 109.0136839
 106.8076141  23.6893727 108.6335483 105.6312173  23.2197578 109.4626628
 110.9499654  23.3416423 111.0834513 110.3279663  22.6787128 110.7836741
 111.6204521  23.3677555 110.4008160 104.1826726  21.9076282 109.9725773
 103.3458634  21.4798456 109.7909774 104.1550371  22.1008725 110.9096564
 110.5113161  21.8920347 104.5592973 110.6601281  22.5755811 103.9059646
 111.3179604  21.8725437 105.0742429 124.3290781  19.1981622 110.0345476
 125.1637673  19.6371426 110.1983036 124.4649910  18.7220276 109.2153722
 108.2665794  17.9185524 105.5654042 108.0211836  17.0147854 105.7634252
 108.4361708  17.9202675 104.6233520 107.5361441  13.6513882 103.0640204
 106.8430686  13.7258237 102.4080240 107.2913193  12.8874226 103.5861721
 114.0108566  24.3868477 102.0304721 113.4382533  25.0058664 101.5775193
 114.5841360  24.9367839 102.5644643 117.2305826  24.6705627 103.1613303
 118.1636499  24.6051189 103.3646178 117.1429039  25.5061894 102.7027836
 119.8593843  23.9871498 100.1217250 119.7807474  23.6531361 101.0153008
 120.6803510  24.4793266 100.1208723 114.3955365  15.7229290  99.3720773
 115.3414470  15.5935498  99.4409191 114.0169610  14.9843952  99.8490201
 112.5798282  13.6479266  99.3075658 111.6729737  13.3512379  99.3838372
 112.8574263  13.3509084  98.4409945 103.4976222  14.9685630 109.7574705
 103.1779007  14.1150938 109.4649079 102.9509651  15.1834208 110.5132672
 107.2756130  17.6848071 113.4744211 107.4942140  18.6165179 113.4932245
 107.6881904  17.3256045 114.2599015 103.3664482  18.5888541 111.7267826
 102.6727954  18.1742494 111.2137781 104.1137473  18.6309078 111.1301245
 105.2801225  18.5206795 109.6033841 105.2571913  18.6194482 108.6515724
 105.5901861  19.3671946 109.9251007 107.9388603  20.5782950 113.7180456
 108.8931856  20.5466892 113.6510387 107.7401126  20.1173574 114.5330682
 108.5287985  19.1484066 116.2851253 109.3480874  19.6428145 116.3086091
 108.8024793  18.2316034 116.2568821 106.2938832  26.1202570 110.7350654
 106.1593299  25.3602970 110.1688652 105.8770894  26.8443469 110.2679442
 117.4297795  21.3039493  99.7427229 118.1333645  21.5089496 100.3584884
 116.7060443  21.8716255 100.0076312 118.2595605  17.0549354 105.8629499
 118.2030806  17.5117906 105.0237131 118.8123947  16.2940039 105.6852342
 109.4507957  27.0171887 110.9469096 109.3340342  27.9617319 110.8447786
 108.6300404  26.7145448 111.3354895 119.3384492  21.7422022 101.7925689
 120.1730096  21.3103221 101.6103164 119.1768835  21.5704036 102.7202583
 118.9930384  18.2454136 103.1582028 118.9379188  18.0798407 102.2170472
 118.3676439  18.9530168 103.3144218 103.7822899  13.4822200 116.9843450
 104.4281763  12.9721154 117.4730676 103.5740050  14.2190882 117.5586876
 110.4762472  27.6700148 114.1625025 111.3789718  27.7023759 114.4791520
 110.2499842  26.7400599 114.1771360 112.2316074  26.4231135 110.8235103
 111.2811705  26.4232997 110.7099476 112.5348560  25.6763870 110.3071138
 127.9668767  32.2591673 111.8880866 128.6047177  32.1398421 111.1844206
 127.8489610  33.2072517 111.9468818 124.7758473  32.2119101 111.8242390
 124.4376985  32.0960166 110.9362925 125.6448241  31.8110267 111.8043396
 120.6345289  34.0654578 107.8139281 120.0710154  33.9744515 107.0455569
 120.5197684  33.2454482 108.2941774 125.2578256  33.3653953 117.7828596
 125.2466897  32.9706751 116.9109099 125.4198896  32.6320026 118.3762367
 118.1809721  35.5605769 110.6523502 118.9731013  35.2196594 110.2369801
 118.4206371  35.6700745 111.5725655 126.2144848  37.7325546 103.1253746
 125.5632827  38.3179626 102.7387760 127.0089211  38.2631741 103.1848784
 120.1400475  34.8214683 103.5240881 120.9131351  34.2743670 103.3853756
 120.4925874  35.6858932 103.7355342 121.9785517  36.1491065 116.7307780
 121.6875383  37.0536696 116.6154446 122.6142502  36.1907593 117.4451849
 122.9041724  33.5267914 113.3209139 123.5005297  33.3023936 112.6066102
 122.9616696  32.7852659 113.9234587 122.4766753  30.9807349 101.1559330
 122.7292273  30.4588870 100.3942793 121.5391312  30.8173494 101.2586014
 127.5210036  29.9843127 108.9634074 128.3073125  29.5662550 108.6124491
 127.7848740  30.8889219 109.1315722 127.6920113  35.4215978 103.6622730
 127.0565946  35.4950604 104.3743635 127.3617519  36.0109576 102.9841810
 132.9218463  29.9218360 109.8667052 133.6543635  29.3517577 110.1004882
 132.1657818  29.5339961 110.3073558 122.1963041  32.8835455 103.3583705
 122.0799300  32.2080358 104.0264790 122.3065301  32.3967829 102.5415858
 124.5394582  32.3445602 107.0630395 124.1752790  31.8176223 107.7743316
 125.3961698  31.9544071 106.8896880 124.1800069  27.3735502 102.0591743
 124.3474472  28.2415738 102.4262214 123.9897238  27.5362783 101.1353032
 126.9375403  35.8352481 113.7257574 126.6376126  36.7377519 113.6173381
 126.5926462  35.5684664 114.5778726 120.3887884  32.2866277 109.7594278
 119.4638380  32.1542491 109.9671970 120.6372297  33.0660497 110.2564220
 130.3372546  28.3535021 111.4055011 129.4289424  28.2850429 111.1113772
 130.2860142  28.8306966 112.2336836 124.1589290  29.8293159 103.0438410
 124.0388915  30.2750210 103.8823890 123.4641879  30.1778477 102.4851948
 117.7496695  31.9299551 110.5938067 117.8789076  32.1834030 111.5077479
 117.0694146  32.5227259 110.2742722 121.9196182  42.5996801 106.6928541
 121.8420212  43.5504626 106.7717022 121.3157826  42.2542673 107.3503468
 129.8574356  30.3014632 103.8718744 130.7692212  30.5342019 103.6966442
 129.3484003  30.8851677 103.3093823 122.6659784  32.5810120 118.9107875
 123.4074469  33.1195164 118.6342699 121.9596770  33.2076408 119.0679427
 128.1415124  34.7239260 117.5080037 128.5498480  34.2821671 116.7634669
 127.4192386  34.1491888 117.7614229 124.4946194  29.6611867 114.8813594
 125.3407389  30.0851280 115.0248243 124.4344832  29.0045491 115.5752157
 128.4643939  35.2840451 111.2632325 127.8352801  35.4486165 110.5608393
 128.0769601  35.6982060 112.0343290 132.3433171  36.2194889 108.6176689
 131.6584209  36.5993790 108.0673723 132.4277020  36.8290215 109.3508637
 129.5984102  33.8654848 115.2172033 129.8100997  34.5086608 114.5406414
 129.5513850  33.0317164 114.7493963 127.2010331  26.4772668 112.1208605
 126.3394810  26.7753922 112.4125342 127.2272766  26.6943067 111.1889638
 124.0171901  35.0214859 108.5282411 124.4810246  35.3002562 107.7387033
 123.7528699  34.1198303 108.3455501 120.9095982  34.5686340 111.4662174
 121.4797339  34.9973609 110.8279658 121.5004093  34.2868925 112.1646359
 122.9540787  31.1438011 105.3371976 123.6564830  31.5959055 105.8045902
 122.6221415  30.5021830 105.9651869 121.4021148  29.7349768 119.7123185
 120.7719809  30.4166049 119.9458582 121.2957236  29.6232849 118.7676323
 116.6966121  29.4021564 110.6389109 115.9065175  29.6579092 110.1629220
 117.1877368  30.2169902 110.7441150 130.7129930  36.7426803 113.3894390
 131.5347374  36.3406990 113.1077072 130.7092333  36.6395037 114.3410506
 118.6480866  29.7666143 107.5972586 117.8512029  29.8784837 108.1156082
 118.4206458  30.1052795 106.7313476 124.4786534  36.2910846 115.5455101
 124.5430966  36.7531254 116.3813272 123.7697457  35.6608211 115.6737410
 114.9803824  29.6552054 113.0704100 115.2311862  30.5399064 113.3361676
 115.5163372  29.4756656 112.2979192 124.1934551  37.9578954 105.4134081
 124.0580226  38.8030490 105.8418929 124.7344364  38.1598231 104.6500015
 117.6463949  35.4754392 105.9862006 118.1588469  36.2697642 106.1367571
 118.2986661  34.7780682 105.9195607 119.4558833  38.5920148 108.0684759
 119.6325462  39.5138113 107.8805743 120.2515667  38.2778567 108.4979139
 118.7411190  30.6384780 117.9446922 118.6264705  29.7370037 118.2454021
 117.8855708  30.8848477 117.5931739 125.8203028  38.5802520 119.5434423
 125.3766882  37.7938899 119.2255328 126.4820241  38.7681671 118.8778314
 120.5790149  40.1098322 114.0695102 121.1297574  39.9815385 113.2972095
 119.7401625  40.4093211 113.7189994 127.9184266  38.8605320 117.5715824
 127.9002741  39.6814201 117.0796093 128.8404186  38.7359395 117.7965965
 124.3757320  36.3749450 118.4139333 124.9085657  35.6137738 118.1838641
 123.8471401  36.0823102 119.1563487 115.6112865  33.8043046 106.7621577
 116.4488087  34.2140055 106.5455284 115.7891133  32.8642488 106.7321770
 127.5077298  31.4718127 102.4505410 126.9923921  32.2422731 102.6893797
 127.2354606  30.7983263 103.0738471 125.0924409  26.3167828 107.5090648
 124.2366005  25.9274678 107.3296287 125.5051360  26.3959788 106.6490433
 126.6223555  23.8514171 111.9082208 126.1188351  23.8144306 111.0950013
 126.9154162  24.7606914 111.9678864 122.8666441  23.9352901 110.9148389
 123.7319438  23.7395709 110.5554279 122.9343950  23.7063252 111.8417746
 132.4811572  34.2250481 104.3858583 131.7041014  33.8861641 103.9413745
 133.1603053  34.2303105 103.7113548 127.2963601  29.3445219 104.2765191
 126.9913736  29.6591368 105.1275334 128.2494043  29.4226639 104.3192524
 125.7410033  35.5035442 105.9258145 125.2131394  34.7688202 105.6131382
 125.2397535  36.2810119 105.6798113 130.7202879  33.6984463 111.0425191
 130.0626553  34.3883724 111.1305320 131.5243278  34.0880895 111.3859177
 120.4728760  26.1655109 108.2864756 121.0472512  25.9430290 107.5537949
 121.0599743  26.2343803 109.0393357 129.5308337  32.0528835 109.0929133
 130.0440219  32.6858827 109.5950842 130.1809561  31.4530031 108.7272493
 120.7998347  28.1959570 102.3060641 119.9635660  28.5334256 102.6269916
 120.6603117  28.0608549 101.3687778 122.7751428  23.0396357 107.0139826
 122.1215840  22.7245375 106.3896440 122.7331902  22.4172098 107.7399649
 123.8862633  33.3215652  98.9293118 122.9789694  33.0904906  99.1284267
 124.3833665  32.5253272  99.1167099 126.7930712  42.0313160 101.8489804
 126.1192410  42.3344856 102.4574762 127.1796534  42.8342240 101.4995261
 126.0089168  29.5278291 111.3387473 125.0911730  29.7493238 111.1809161
 126.4249312  29.6024601 110.4799181 126.7924216  30.9269707 106.4690154
 127.5396035  31.4391104 106.1597276 127.0615806  30.6053759 107.3294547
 125.0650866  33.4228247 103.4517108 124.1562085  33.1387280 103.5489578
 125.0945950  33.8427326 102.5920415 130.2970134  37.0334837 107.2208275
 129.8432461  36.1925747 107.2773466 129.6664100  37.6696235 107.5583056
 129.2403053  27.9626823 108.4508943 128.5025810  27.4504209 108.7819185
 129.4929827  27.5227205 107.6392220 128.7403073  38.8711334 108.1558093
 129.0326047  39.4316391 107.4370459 129.2501693  39.1639895 108.9111253
 115.6339037  31.1433761 107.4332310 115.4363436  30.5503122 106.7083377
 115.0785701  30.8385972 108.1508249 123.6135760  31.0356868 109.5526903
 123.6684370  30.0830704 109.4769380 122.8026962  31.1916307 110.0368202
 124.7626954  34.9636991 100.7905186 124.3246384  34.2472850 100.3310824
 125.5037395  35.1913106 100.2290278 121.5528120  29.6533928 107.3117282
 120.7395986  29.9528098 107.7182474 122.0487114  29.2589616 108.0291764
 123.7036698  39.6491685 109.2451547 123.6612877  39.8752531 108.3160079
 124.6199397  39.4155059 109.3937348 132.8800069  33.2394188 106.8481505
 132.7417967  33.4295784 105.9202694 132.5236288  34.0013571 107.3049556
 121.0442195  27.2252283 112.9278517 121.6841574  27.0841042 112.2301480
 120.2119725  26.9386797 112.5517119 132.9069448  35.3070715 111.8592776
 133.3405955  35.2146004 112.7075830 133.6201029  35.2828216 111.2212792
 121.8202499  36.5254714 109.0413509 122.6143097  36.0305034 108.8396084
 121.1094191  35.9972577 108.6781215 126.6397343  38.9072809 113.3925877
 126.6934366  39.4763746 114.1603593 125.7712125  39.0774694 113.0279914
 118.1285262  30.6697795 105.1173262 117.1982850  30.6082251 105.3343224
 118.2242734  30.1473748 104.3209903 118.0470811  27.1952608 107.7051504
 118.3077629  28.1097941 107.5960664 118.8687984  26.7277051 107.8548117
 119.5195737  28.6090365 114.8750328 120.1918790  28.4007728 114.2262977
 118.6925523  28.4112451 114.4355561 125.5985443  33.0733071 114.9512809
 126.5277503  33.2244231 114.7781776 125.1776473  33.1617092 114.0961455
 124.3973775  37.0983736 112.7211347 124.2584860  36.7302520 113.5937285
 123.6088371  37.6131375 112.5495304 124.9921927  42.1992832 104.0636883
 125.1673682  41.7280875 104.8782506 124.3054715  42.8258598 104.2918144
 125.9478990  36.4765338 110.1100184 125.6128823  36.4366108 111.0057834
 125.4482936  35.8110054 109.6370595 119.9223234  31.8832968 115.6352765
 119.7843032  31.1513207 116.2364305 120.8328157  31.7941868 115.3536953
 128.8838182  33.8221373 100.3837244 128.2667352  33.0968201 100.2870297
 128.4154670  34.5830733 100.0404318 122.5505535  31.5952928 115.1236445
 123.2605153  30.9546120 115.0823064 122.5074843  31.8465823 116.0462626
 130.5392313  38.5320281 118.0443024 130.4804859  37.8479501 117.3773607
 130.9411832  39.2739271 117.5923650 121.2634469  28.5818146 116.9432085
 120.7271826  28.1308884 117.5953681 120.6751177  28.7164054 116.2002549
 119.5583012  45.3482195 110.8376743 119.7979610  45.9800719 111.5155762
 118.7152209  44.9970235 111.1242102 120.6736727  28.0406797  99.5058548
 119.7966194  27.9195598  99.1420795 121.1494481  27.2492875  99.2537437
 112.1938868  32.8283957 109.6000055 112.8809907  32.5145687 109.0121071
 112.0386996  33.7325321 109.3267307 116.9973590  27.7174153 114.0285079
 116.9131779  27.1099823 113.2935489 116.1756296  28.2083172 114.0294575
 124.0710874  41.1561317 113.2418247 123.9981045  41.9616289 113.7537552
 123.6288267  41.3553283 112.4166269 123.8600654  40.3933087 106.7521069
 123.0768175  40.9354768 106.8459293 124.5593399  40.9107067 107.1515310
 127.1697304  26.2027717 109.3955274 127.6666003  25.4497679 109.0756344
 126.3984285  26.2392033 108.8298483 126.5309557  41.0548151 115.3976406
 127.2437530  41.6895616 115.3252307 126.0399586  41.1512017 114.5816408
 128.2527084  34.9599404 106.9693698 127.3183363  35.0800866 106.7998402
 128.4303753  34.0571871 106.7053707 123.7532272  28.3445100 109.1226959
 123.3830060  27.7916140 109.8107864 124.2491365  27.7403233 108.5701959
 131.6399636  30.8016723 107.5043732 132.1060088  31.6344715 107.4304034
 132.0907136  30.3361705 108.2088990 121.5821471  38.8042595 116.2181977
 122.2830930  39.4379078 116.3711371 121.1116586  39.1457326 115.4577616
 129.7075867  37.1460545 104.5029884 129.9835711  37.0317139 105.4123758
 128.8380366  36.7478029 104.4642057 129.3822757  31.3587202 114.0434527
 128.7294207  31.6063110 113.3886980 129.7603137  30.5451340 113.7097004
 126.3429931  41.3946895 108.1462697 126.5252325  40.5768551 108.6090450
 127.1662917  41.6114588 107.7087587 126.6772096  40.3215081 105.4077746
 127.2059863  39.8107535 104.7947908 126.9400316  40.0057611 106.2723279
 117.1789189  38.3378950 113.1513079 117.7642626  37.5922638 113.2840984
 116.9814027  38.6482907 114.0349743 120.0327844  41.3730197 108.1675522
 119.3638219  41.8576325 107.6839562 119.8940714  41.6199418 109.0818900
 111.7706844  30.9084550 111.8717523 111.8090943  30.3748141 112.6654641
 111.2647137  30.3819756 111.2528500 124.1733113  43.4073941 114.7658180
 124.7251421  43.5705562 115.5307265 124.5139306  43.9978379 114.0938205
 119.1497606  25.7549091 115.3680065 119.2138933  26.6163921 114.9557463
 119.0864726  25.1423092 114.6352423 118.6249879  27.8272223 119.0153099
 119.2521917  27.4449300 119.6290623 117.7677797  27.6086425 119.3808792
 115.4015421  29.6348652 104.9471454 115.6968862  28.7259331 104.8938508
 114.5003457  29.6136392 104.6252456 127.3101500  41.3555916 111.7521862
 127.1852640  40.5545656 111.2432808 127.9680591  41.8502110 111.2635832
 118.9309668  27.7104649 110.9299002 118.2096254  28.3240617 110.7906476
 119.7202924  28.2462414 110.8515648 129.3736408  39.1564936 113.3801412
 128.4266744  39.0370288 113.3079739 129.7219182  38.2687434 113.4627674
 117.1303263  27.3162750 105.0710779 116.8015969  26.4360129 104.8885885
 117.4842634  27.2610419 105.9587168 126.3782842  38.9517653 109.5805765
 126.2307804  38.0234360 109.7613335 127.2036335  38.9737743 109.0962840
 120.2445086  27.6035720 105.4386257 120.5841159  28.1321641 104.7164865
 120.6917207  27.9416126 106.2144823 129.9816964  39.7746211 110.6670637
 130.9063511  39.5689073 110.5295088 129.8132267  39.5262612 111.5759979
 122.9388527  25.9872770 114.8889325 122.5985347  25.1880583 115.2910005
 122.2327533  26.2874481 114.3166158 123.5904999  23.0722083 113.3416648
 124.4131068  22.5982561 113.2195538 123.8343062  23.8512567 113.8415334
 122.2313233  26.1010341 103.6379549 122.9521596  26.4791594 103.1343266
 121.6078537  26.8199218 103.7414527 126.3744356  26.8055490 104.5737882
 126.5907970  27.6880128 104.2726710 125.8938423  26.4141704 103.8443524
 121.1143577  29.7641203 111.1508626 120.9688158  30.0781507 112.0432908
 120.6368781  30.3826104 110.5979525 122.9739960  26.7543751 111.1989516
 122.9601529  25.8584845 110.8621814 123.6912388  26.7614415 111.8327802
 124.8266091  27.1881092 113.2442643 124.5683869  28.1098162 113.2426974
 124.2951131  26.7911526 113.9343108 129.7712280  40.2931879 106.0232729
 129.9449157  39.7278301 105.2706581 130.2641171  41.0932774 105.8412219
 115.5889240  32.3046548 114.0896288 115.0442708  33.0806356 114.2216562
 116.4668590  32.6517352 113.9315409 122.3776856  25.6358132 106.4677086
 122.4992767  24.7074778 106.6667974 122.0878899  25.6496818 105.5555402
 125.2468047  23.3213042 109.6043806 125.2689744  23.3852375 108.6495785
 125.6636106  22.4817551 109.7984312 135.6251671  33.0568302 107.6423029
 136.0682817  32.3075627 107.2442152 134.7478181  33.0478438 107.2596761
 130.7587452  39.6098643 103.1229627 131.4538357  40.2305336 103.3416942
 131.1010602  38.7593994 103.3982005 116.3755262  31.4316444 116.9826444
 115.6336998  31.5799079 117.5691075 116.0548006  31.6924710 116.1193194
 132.6578875  37.0598349 104.6516958 133.1830200  37.3985621 103.9266278
 132.5701228  36.1245364 104.4680092 124.3198924  40.9732422 116.7806834
 124.6286051  40.7281569 117.6529534 125.1174406  41.1779061 116.2925705
 124.3419536  43.1270332 109.0112211 123.9024526  42.6346711 109.7045068
 125.0927653  42.5843300 108.7704286 116.8211875  39.3181873 109.0136839
 117.6469895  39.0185645 108.6335483 116.4705927  38.5489495 109.4626628
 121.7893408  38.6708341 111.0834513 121.1673418  38.0079046 110.7836741
 122.4598275  38.6969473 110.4008160 115.0220480  37.2368199 109.9725773
 114.1852389  36.8090374 109.7909774 114.9944126  37.4300643 110.9096564
 121.3506915  37.2212264 104.5592973 121.4995036  37.9047729 103.9059646
 122.1573359  37.2017354 105.0742429 135.1684536  34.5273540 110.0345476
 136.0031427  34.9663344 110.1983036 135.3043665  34.0512193 109.2153722
 119.1059548  33.2477442 105.5654042 118.8605590  32.3439772 105.7634252
 119.2755463  33.2494593 104.6233520 118.3755196  28.9805800 103.0640204
 117.6824441  29.0550155 102.4080240 118.1306948  28.2166143 103.5861721
 124.8502321  39.7160395 102.0304721 124.2776288  40.3350582 101.5775193
 125.4235114  40.2659757 102.5644643 128.0699581  39.9997545 103.1613303
 129.0030254  39.9343107 103.3646178 127.9822793  40.8353812 102.7027836
 130.6987597  39.3163415 100.1217250 130.6201229  38.9823279 101.0153008
 131.5197264  39.8085183 100.1208723 125.2349119  31.0521208  99.3720773
 126.1808224  30.9227416  99.4409191 124.8563364  30.3135870  99.8490201
 123.4192036  28.9771184  99.3075658 122.5123492  28.6804297  99.3838372
 123.6968017  28.6801002  98.4409945 114.3369977  30.2977547 109.7574705
 114.0172761  29.4442856 109.4649079 113.7903405  30.5126126 110.5132672
 118.1149884  33.0139988 113.4744211 118.3335894  33.9457096 113.4932245
 118.5275658  32.6547963 114.2599015 125.0354102  23.5208074 105.4619900
 124.2254830  23.1755159 105.8375146 125.7238519  23.2115617 106.0507511
 126.9644650  22.5986121 107.0844196 127.5175689  23.0181574 107.7434219
 127.2014737  21.6721869 107.1267152 122.1890821  25.8358119  99.4487638
 123.0509985  26.1613018  99.7083455 122.3741165  25.0489615  98.9360703
 114.2058237  33.9180459 111.7267826 113.5121708  33.5034412 111.2137781
 114.9531228  33.9600995 111.1301245 130.3423458  24.7086646 106.5922861
 129.7622127  25.3671450 106.2100913 130.0759390  23.8863990 106.1810278
 128.7927024  24.1091703 108.7944181 129.2926802  24.2208238 107.9858500
 129.4362632  23.8052756 109.4344989 116.1194979  33.8498713 109.6033841
 116.0965667  33.9486400 108.6515724 116.4295616  34.6963863 109.9251007
 118.7782357  35.9074868 113.7180456 119.7325611  35.8758810 113.6510387
 118.5794881  35.4465491 114.5330682 119.3681739  34.4775984 116.2851253
 120.1874628  34.9720062 116.3086091 119.6418547  33.5607952 116.2568821
 129.1248336  26.8686736 105.6479209 128.2374191  27.1536387 105.4299404
 129.5402325  26.7080499 104.8006486 132.4762872  26.8933257 109.3633548
 133.2523262  27.3829709 109.6358165 131.7511006  27.3191311 109.8205418
 117.1332586  41.4494487 110.7350654 116.9987054  40.6894888 110.1688652
 116.7164648  42.1735387 110.2679442 128.2691549  36.6331411  99.7427229
 128.9727399  36.8381413 100.3584884 127.5454198  37.2008173 100.0076312
 129.0989359  32.3841272 105.8629499 129.0424561  32.8409823 105.0237131
 129.6517702  31.6231957 105.6852342 132.9094165  28.1731004 106.6879618
 132.6531099  27.7727640 107.5187826 132.2847033  28.8874798 106.5629758
 120.2901712  42.3463804 110.9469096 120.1734096  43.2909237 110.8447786
 119.4694158  42.0437366 111.3354895 130.1778246  37.0713940 101.7925689
 131.0123850  36.6395138 101.6103164 130.0162589  36.8995954 102.7202583
 129.8324139  33.5746053 103.1582028 129.7772942  33.4090325 102.2170472
 129.2070194  34.2822086 103.3144218 114.6216654  28.8114118 116.9843450
 115.2675517  28.3013072 117.4730676 114.4133805  29.5482799 117.5586876
 123.1420264  23.0754162 102.7367347 123.1298934  24.0196002 102.8935617
 124.0343686  22.8924308 102.4426808 121.3156226  42.9992066 114.1625025
 122.2183473  43.0315676 114.4791520 121.0893596  42.0692517 114.1771360
 123.0709828  41.7523053 110.8235103 122.1205459  41.7524914 110.7099476
 123.3742314  41.0055787 110.3071138 126.9572384  19.6696939 106.9913283
 126.1904779  19.1155426 107.1369966 127.3683088  19.7418808 107.8527435
 138.8062522  47.5883591 111.8880866 139.4440931  47.4690338 111.1844206
 138.6883364  48.5364435 111.9468818 135.6152228  47.5411019 111.8242390
 135.2770739  47.4252084 110.9362925 136.4841996  47.1402184 111.8043396
 131.4739043  49.3946496 107.8139281 130.9103909  49.3036433 107.0455569
 131.3591439  48.5746400 108.2941774 136.0972011  48.6945871 117.7828596
 136.0860652  48.2998669 116.9109099 136.2592650  47.9611944 118.3762367
 129.0203475  50.8897687 110.6523502 129.8124767  50.5488512 110.2369801
 129.2600126  50.9992662 111.5725655 137.0538602  53.0617463 103.1253746
 136.4026582  53.6471544 102.7387760 137.8482965  53.5923658 103.1848784
 130.9794229  50.1506600 103.5240881 131.7525105  49.6035588 103.3853756
 131.3319628  51.0150850 103.7355342 132.8179272  51.4782983 116.7307780
 132.5269138  52.3828614 116.6154446 133.4536256  51.5199510 117.4451849
 133.7435479  48.8559831 113.3209139 134.3399051  48.6315854 112.6066102
 133.8010450  48.1144577 113.9234587 133.3160507  46.3099267 101.1559330
 133.5686028  45.7880788 100.3942793 132.3785066  46.1465412 101.2586014
 138.3603790  45.3135045 108.9634074 139.1466879  44.8954468 108.6124491
 138.6242494  46.2181137 109.1315722 138.5313867  50.7507895 103.6622730
 137.8959700  50.8242522 104.3743635 138.2011274  51.3401494 102.9841810
 133.0356796  48.2127373 103.3583705 132.9193054  47.5372276 104.0264790
 133.1459056  47.7259746 102.5415858 135.3788337  47.6737520 107.0630395
 135.0146544  47.1468141 107.7743316 136.2355453  47.2835989 106.8896880
 135.0193824  42.7027419 102.0591743 135.1868226  43.5707656 102.4262214
 134.8290993  42.8654701 101.1353032 137.7769157  51.1644398 113.7257574
 137.4769880  52.0669437 113.6173381 137.4320217  50.8976581 114.5778726
 131.2281638  47.6158195 109.7594278 130.3032135  47.4834409 109.9671970
 131.4766052  48.3952414 110.2564220 141.1766301  43.6826938 111.4055011
 140.2683178  43.6142347 111.1113772 141.1253897  44.1598883 112.2336836
 134.9983045  45.1585077 103.0438410 134.8782670  45.6042128 103.8823890
 134.3035633  45.5070394 102.4851948 128.5890450  47.2591469 110.5938067
 128.7182831  47.5125948 111.5077479 127.9087901  47.8519177 110.2742722
 132.7589937  57.9288719 106.6928541 132.6813967  58.8796544 106.7717022
 132.1551580  57.5834591 107.3503468 133.5053539  47.9102037 118.9107875
 134.2468223  48.4487081 118.6342699 132.7990524  48.5368326 119.0679427
 138.9808879  50.0531178 117.5080037 139.3892235  49.6113588 116.7634669
 138.2586140  49.4783805 117.7614229 135.3339949  44.9903785 114.8813594
 136.1801144  45.4143198 115.0248243 135.2738586  44.3337409 115.5752157
 139.3037693  50.6132368 111.2632325 138.6746556  50.7778083 110.5608393
 138.9163355  51.0273978 112.0343290 140.4377857  49.1946765 115.2172033
 140.6494752  49.8378525 114.5406414 140.3907605  48.3609082 114.7493963
 138.0404086  41.8064586 112.1208605 137.1788565  42.1045840 112.4125342
 138.0666520  42.0234985 111.1889638 134.8565655  50.3506777 108.5282411
 135.3204001  50.6294480 107.7387033 134.5922453  49.4490221 108.3455501
 131.7489736  49.8978258 111.4662174 132.3191093  50.3265526 110.8279658
 132.3397848  49.6160843 112.1646359 133.7934541  46.4729929 105.3371976
 134.4958584  46.9250973 105.8045902 133.4615170  45.8313748 105.9651869
 132.2414903  45.0641686 119.7123185 131.6113563  45.7457966 119.9458582
 132.1350991  44.9524767 118.7676323 127.5359875  44.7313482 110.6389109
 126.7458929  44.9871010 110.1629220 128.0271122  45.5461819 110.7441150
 129.4874620  45.0958061 107.5972586 128.6905784  45.2076755 108.1156082
 129.2600213  45.4344713 106.7313476 135.3180288  51.6202764 115.5455101
 135.3824721  52.0823171 116.3813272 134.6091212  50.9900129 115.6737410
 125.8197578  44.9843972 113.0704100 126.0705616  45.8690982 113.3361676
 126.3557126  44.8048574 112.2979192 135.0328306  53.2870872 105.4134081
 134.8973981  54.1322407 105.8418929 135.5738118  53.4890149 104.6500015
 128.4857703  50.8046310 105.9862006 128.9982224  51.5989560 106.1367571
 129.1380416  50.1072600 105.9195607 130.2952588  53.9212066 108.0684759
 130.4719216  54.8430031 107.8805743 131.0909421  53.6070485 108.4979139
 129.5804944  45.9676698 117.9446922 129.4658459  45.0661955 118.2454021
 128.7249462  46.2140394 117.5931739 136.6596782  53.9094438 119.5434423
 136.2160636  53.1230817 119.2255328 137.3213996  54.0973589 118.8778314
 131.4183903  55.4390240 114.0695102 131.9691328  55.3107303 113.2972095
 130.5795379  55.7385129 113.7189994 138.7578020  54.1897238 117.5715824
 138.7396496  55.0106119 117.0796093 139.6797940  54.0651313 117.7965965
 135.2151074  51.7041367 118.4139333 135.7479411  50.9429656 118.1838641
 134.6865155  51.4115019 119.1563487 126.4506620  49.1334964 106.7621577
 127.2881842  49.5431972 106.5455284 126.6284888  48.1934406 106.7321770
 138.3471052  46.8010044 102.4505410 137.8317675  47.5714649 102.6893797
 138.0748360  46.1275181 103.0738471 135.9318163  41.6459745 107.5090648
 135.0759759  41.2566596 107.3296287 136.3445115  41.7251706 106.6490433
 137.4617310  39.1806089 111.9082208 136.9582105  39.1436224 111.0950013
 137.7547917  40.0898831 111.9678864 133.7060196  39.2644818 110.9148389
 134.5713192  39.0687627 110.5554279 133.7737704  39.0355170 111.8417746
 138.1357355  44.6737137 104.2765191 137.8307491  44.9883286 105.1275334
 139.0887797  44.7518556 104.3192524 136.5803787  50.8327360 105.9258145
 136.0525149  50.0980119 105.6131382 136.0791290  51.6102036 105.6798113
 131.3122515  41.4947026 108.2864756 131.8866267  41.2722208 107.5537949
 131.8993497  41.5635721 109.0393357 140.3702092  47.3820753 109.0929133
 140.8833974  48.0150745 109.5950842 141.0203316  46.7821949 108.7272493
 131.6392102  43.5251487 102.3060641 130.8029414  43.8626174 102.6269916
 131.4996871  43.3900467 101.3687778 133.6145182  38.3688275 107.0139826
 132.9609595  38.0537292 106.3896440 133.5725656  37.7464016 107.7399649
 134.7256387  48.6507570  98.9293118 133.8183449  48.4196824  99.1284267
 135.2227419  47.8545189  99.1167099 137.6324466  57.3605077 101.8489804
 136.9586165  57.6636774 102.4574762 138.0190288  58.1634158 101.4995261
 136.8482923  44.8570209 111.3387473 135.9305484  45.0785156 111.1809161
 137.2643066  44.9316519 110.4799181 137.6317970  46.2561624 106.4690154
 138.3789789  46.7683022 106.1597276 137.9009560  45.9345677 107.3294547
 135.9044621  48.7520165 103.4517108 134.9955840  48.4679198 103.5489578
 135.9339704  49.1719244 102.5920415 141.1363888  52.3626755 107.2208275
 140.6826215  51.5217664 107.2773466 140.5057855  52.9988153 107.5583056
 140.0796808  43.2918741 108.4508943 139.3419564  42.7796127 108.7819185
 140.3323581  42.8519122 107.6392220 139.5796827  54.2003251 108.1558093
 139.8719802  54.7608308 107.4370459 140.0895448  54.4931812 108.9111253
 126.4732791  46.4725679 107.4332310 126.2757191  45.8795040 106.7083377
 125.9179455  46.1677889 108.1508249 134.4529515  46.3648786 109.5526903
 134.5078124  45.4122622 109.4769380 133.6420717  46.5208225 110.0368202
 135.6020708  50.2928909 100.7905186 135.1640138  49.5764768 100.3310824
 136.3431149  50.5205024 100.2290278 132.3921875  44.9825845 107.3117282
 131.5789740  45.2820016 107.7182474 132.8880869  44.5881534 108.0291764
 134.5430452  54.9783602 109.2451547 134.5006631  55.2044449 108.3160079
 135.4593151  54.7446977 109.3937348 131.8835949  42.5544201 112.9278517
 132.5235329  42.4132960 112.2301480 131.0513480  42.2678714 112.5517119
 132.6596253  51.8546631 109.0413509 133.4536852  51.3596951 108.8396084
 131.9487946  51.3264494 108.6781215 137.4791098  54.2364727 113.3925877
 137.5328120  54.8055663 114.1603593 136.6105879  54.4066612 113.0279914
 128.9679017  45.9989713 105.1173262 128.0376605  45.9374169 105.3343224
 129.0636489  45.4765666 104.3209903 128.8864566  42.5244526 107.7051504
 129.1471383  43.4389859 107.5960664 129.7081738  42.0568968 107.8548117
 130.3589491  43.9382283 114.8750328 131.0312545  43.7299645 114.2262977
 129.5319278  43.7404369 114.4355561 136.4379197  48.4024989 114.9512809
 137.3671257  48.5536149 114.7781776 136.0170228  48.4909010 114.0961455
 135.2367529  52.4275653 112.7211347 135.0978615  52.0594438 113.5937285
 134.4482125  52.9423293 112.5495304 135.8315681  57.5284750 104.0636883
 136.0067437  57.0572793 104.8782506 135.1448469  58.1550516 104.2918144
 136.7872744  51.8057256 110.1100184 136.4522577  51.7658026 111.0057834
 136.2876690  51.1401972 109.6370595 130.7616988  47.2124886 115.6352765
 130.6236786  46.4805125 116.2364305 131.6721912  47.1233786 115.3536953
 139.7231936  49.1513290 100.3837244 139.1061107  48.4260119 100.2870297
 139.2548425  49.9122651 100.0404318 133.3899289  46.9244845 115.1236445
 134.0998908  46.2838038 115.0823064 133.3468597  47.1757740 116.0462626
 132.1028223  43.9110063 116.9432085 131.5665580  43.4600802 117.5953681
 131.5144931  44.0455972 116.2002549 130.3976767  60.6774113 110.8376743
 130.6373365  61.3092637 111.5155762 129.5545963  60.3262153 111.1242102
 131.5130482  43.3698715  99.5058548 130.6359948  43.2487515  99.1420795
 131.9888235  42.5784793  99.2537437 123.0332622  48.1575874 109.6000055
 123.7203662  47.8437604 109.0121071 122.8780751  49.0617239 109.3267307
 127.8367344  43.0466071 114.0285079 127.7525533  42.4391741 113.2935489
 127.0150051  43.5375089 114.0294575 134.9104628  56.4853235 113.2418247
 134.8374800  57.2908206 113.7537552 134.4682021  56.6845201 112.4166269
 134.6994408  55.7225005 106.7521069 133.9161930  56.2646685 106.8459293
 135.3987153  56.2398985 107.1515310 138.0091058  41.5319634 109.3955274
 138.5059758  40.7789597 109.0756344 137.2378040  41.5683951 108.8298483
 137.3703312  56.3840069 115.3976406 138.0831284  57.0187534 115.3252307
 136.8793341  56.4803935 114.5816408 139.0920839  50.2891322 106.9693698
 138.1577118  50.4092784 106.7998402 139.2697507  49.3863788 106.7053707
 134.5926027  43.6737017 109.1226959 134.2223814  43.1208058 109.8107864
 135.0885119  43.0695151 108.5701959 132.4215225  54.1334512 116.2181977
 133.1224685  54.7670995 116.3711371 131.9510340  54.4749244 115.4577616
 140.5469621  52.4752462 104.5029884 140.8229465  52.3609057 105.4123758
 139.6774120  52.0769947 104.4642057 140.2216511  46.6879120 114.0434527
 139.5687962  46.9355027 113.3886980 140.5996891  45.8743258 113.7097004
 137.1823685  56.7238813 108.1462697 137.3646080  55.9060469 108.6090450
 138.0056671  56.9406505 107.7087587 137.5165851  55.6506998 105.4077746
 138.0453617  55.1399453 104.7947908 137.7794070  55.3349528 106.2723279
 128.0182944  53.6670868 113.1513079 128.6036380  52.9214555 113.2840984
 127.8207782  53.9774824 114.0349743 130.8721599  56.7022115 108.1675522
 130.2031974  57.1868243 107.6839562 130.7334468  56.9491335 109.0818900
 122.6100598  46.2376468 111.8717523 122.6484698  45.7040058 112.6654641
 122.1040891  45.7111673 111.2528500 135.0126867  58.7365858 114.7658180
 135.5645175  58.8997480 115.5307265 135.3533061  59.3270296 114.0938205
 129.9891361  41.0841008 115.3680065 130.0532687  41.9455839 114.9557463
 129.9258481  40.4715010 114.6352423 129.4643633  43.1564141 119.0153099
 130.0915672  42.7741218 119.6290623 128.6071552  42.9378343 119.3808792
 126.2409176  44.9640570 104.9471454 126.5362617  44.0551248 104.8938508
 125.3397212  44.9428309 104.6252456 138.1495255  56.6847834 111.7521862
 138.0246394  55.8837574 111.2432808 138.8074346  57.1794027 111.2635832
 129.7703423  43.0396566 110.9299002 129.0490009  43.6532534 110.7906476
 130.5596679  43.5754331 110.8515648 140.2130163  54.4856854 113.3801412
 139.2660499  54.3662205 113.3079739 140.5612936  53.5979352 113.4627674
 127.9697017  42.6454668 105.0710779 127.6409724  41.7652046 104.8885885
 128.3236388  42.5902336 105.9587168 137.2176596  54.2809570 109.5805765
 137.0701559  53.3526278 109.7613335 138.0430090  54.3029661 109.0962840
 131.0838841  42.9327637 105.4386257 131.4234913  43.4613559 104.7164865
 131.5310961  43.2708043 106.2144823 133.7782281  41.3164688 114.8889325
 133.4379102  40.5172501 115.2910005 133.0721288  41.6166399 114.3166158
 134.4298753  38.4014000 113.3416648 135.2524823  37.9274479 113.2195538
 134.6736817  39.1804484 113.8415334 133.0706988  41.4302259 103.6379549
 133.7915350  41.8083512 103.1343266 132.4472292  42.1491136 103.7414527
 137.2138111  42.1347408 104.5737882 137.4301725  43.0172046 104.2726710
 136.7332178  41.7433621 103.8443524 131.9537332  45.0933121 111.1508626
 131.8081913  45.4073424 112.0432908 131.4762536  45.7118021 110.5979525
 133.8133715  42.0835669 111.1989516 133.7995284  41.1876762 110.8621814
 134.5306143  42.0906333 111.8327802 135.6659846  42.5173009 113.2442643
 135.4077623  43.4390080 113.2426974 135.1344886  42.1203444 113.9343108
 140.6106034  55.6223796 106.0232729 140.7842912  55.0570219 105.2706581
 141.1034926  56.4224691 105.8412219 126.4282994  47.6338466 114.0896288
 125.8836462  48.4098274 114.2216562 127.3062344  47.9809270 113.9315409
 133.2170611  40.9650049 106.4677086 133.3386522  40.0366696 106.6667974
 132.9272653  40.9788735 105.5555402 136.0861801  38.6504960 109.6043806
 136.1083498  38.7144293 108.6495785 136.5029860  37.8109468 109.7984312
 127.2149016  46.7608362 116.9826444 126.4730752  46.9090997 117.5691075
 126.8941760  47.0216627 116.1193194 135.1592679  56.3024340 116.7806834
 135.4679805  56.0573487 117.6529534 135.9568161  56.5070979 116.2925705
 135.1813291  58.4562250 109.0112211 134.7418281  57.9638628 109.7045068
 135.9321408  57.9135217 108.7704286 127.6605630  54.6473791 109.0136839
 128.4863650  54.3477562 108.6335483 127.3099682  53.8781413 109.4626628
 132.6287163  54.0000259 111.0834513 132.0067172  53.3370964 110.7836741
 133.2992030  54.0261391 110.4008160 125.8614235  52.5660117 109.9725773
 125.0246143  52.1382291 109.7909774 125.8337880  52.7592560 110.9096564
 132.1900670  52.5504182 104.5592973 132.3388790  53.2339646 103.9059646
 132.9967113  52.5309272 105.0742429 129.9453303  48.5769360 105.5654042
 129.6999345  47.6731690 105.7634252 130.1149217  48.5786510 104.6233520
 129.2148950  44.3097717 103.0640204 128.5218195  44.3842072 102.4080240
 128.9700702  43.5458061 103.5861721 135.6896075  55.0452313 102.0304721
 135.1170042  55.6642500 101.5775193 136.2628869  55.5951674 102.5644643
 138.9093335  55.3289463 103.1613303 139.8424008  55.2635024 103.3646178
 138.8216548  56.1645730 102.7027836 136.0742874  46.3813125  99.3720773
 137.0201978  46.2519333  99.4409191 135.6957119  45.6427787  99.8490201
 134.2585791  44.3063102  99.3075658 133.3517246  44.0096214  99.3838372
 134.5361772  44.0092920  98.4409945 125.1763731  45.6269465 109.7574705
 124.8566516  44.7734773 109.4649079 124.6297159  45.8418043 110.5132672
 128.9543639  48.3431906 113.4744211 129.1729649  49.2749014 113.4932245
 129.3669413  47.9839880 114.2599015 135.8747857  38.8499991 105.4619900
 135.0648585  38.5047076 105.8375146 136.5632274  38.5407535 106.0507511
 137.8038405  37.9278038 107.0844196 138.3569444  38.3473492 107.7434219
 138.0408491  37.0013786 107.1267152 133.0284576  41.1650037  99.4487638
 133.8903740  41.4904935  99.7083455 133.2134920  40.3781533  98.9360703
 125.0451991  49.2472377 111.7267826 124.3515463  48.8326329 111.2137781
 125.7924982  49.2892913 111.1301245 141.1817212  40.0378563 106.5922861
 140.6015881  40.6963367 106.2100913 140.9153145  39.2155908 106.1810278
 139.6320778  39.4383621 108.7944181 140.1320557  39.5500156 107.9858500
 140.2756386  39.1344674 109.4344989 126.9588734  49.1790630 109.6033841
 126.9359422  49.2778318 108.6515724 127.2689370  50.0255781 109.9251007
 129.6176112  51.2366785 113.7180456 130.5719365  51.2050728 113.6510387
 129.4188635  50.7757409 114.5330682 130.2075494  49.8067901 116.2851253
 131.0268383  50.3011980 116.3086091 130.4812302  48.8899870 116.2568821
 139.9642090  42.1978654 105.6479209 139.0767945  42.4828304 105.4299404
 140.3796079  42.0372417 104.8006486 127.9726340  56.7786405 110.7350654
 127.8380808  56.0186806 110.1688652 127.5558403  57.5027305 110.2679442
 139.1085304  51.9623328  99.7427229 139.8121154  52.1673331 100.3584884
 138.3847952  52.5300090 100.0076312 139.9383114  47.7133190 105.8629499
 139.8818315  48.1701741 105.0237131 140.4911456  46.9523874 105.6852342
 131.1295466  57.6755722 110.9469096 131.0127851  58.6201154 110.8447786
 130.3087913  57.3729283 111.3354895 140.6717893  48.9037971 103.1582028
 140.6166697  48.7382242 102.2170472 140.0463948  49.6114004 103.3144218
 125.4610408  44.1406035 116.9843450 126.1069272  43.6304989 117.4730676
 125.2527559  44.8774717 117.5586876 133.9814019  38.4046080 102.7367347
 133.9692688  39.3487920 102.8935617 134.8737440  38.2216225 102.4426808
 132.1549980  58.3283984 114.1625025 133.0577227  58.3607594 114.4791520
 131.9287351  57.3984435 114.1771360 133.9103583  57.0814970 110.8235103
 132.9599214  57.0816832 110.7099476 134.2136069  56.3347705 110.3071138
 137.7966138  34.9988857 106.9913283 137.0298534  34.4447343 107.1369966
 138.2076843  35.0710725 107.8527435 139.8597230  66.2189605 110.6523502
 140.6518522  65.8780429 110.2369801 140.0993880  66.3284580 111.5725655
 139.4284204  62.5883386 110.5938067 139.5576585  62.8417865 111.5077479
 138.7481655  63.1811094 110.2742722 138.3753630  60.0605399 110.6389109
 137.5852684  60.3162928 110.1629220 138.8664877  60.8753737 110.7441150
 140.3268375  60.4249978 107.5972586 139.5299538  60.5368673 108.1156082
 140.0993967  60.7636631 106.7313476 136.6591333  60.3135890 113.0704100
 136.9099371  61.1982900 113.3361676 137.1950881  60.1340491 112.2979192
 139.3251458  66.1338227 105.9862006 139.8375978  66.9281477 106.1367571
 139.9774170  65.4364518 105.9195607 140.4198699  61.2968615 117.9446922
 140.3052214  60.3953873 118.2454021 139.5643217  61.5432312 117.5931739
 137.2900374  64.4626882 106.7621577 138.1275596  64.8723890 106.5455284
 137.4678642  63.5226324 106.7321770 137.3126546  61.8017597 107.4332310
 137.1150945  61.2086958 106.7083377 136.7573210  61.4969807 108.1508249
 139.8072771  61.3281631 105.1173262 138.8770359  61.2666086 105.3343224
 139.9030243  60.8057584 104.3209903 139.7258320  57.8536444 107.7051504
 139.9865138  58.7681777 107.5960664 140.5475493  57.3860886 107.8548117
 133.8726377  63.4867792 109.6000055 134.5597416  63.1729522 109.0121071
 133.7174505  64.3909157 109.3267307 138.6761099  58.3757989 114.0285079
 138.5919287  57.7683658 113.2935489 137.8543805  58.8667007 114.0294575
 138.8576698  68.9962785 113.1513079 139.4430135  68.2506473 113.2840984
 138.6601536  69.3066742 114.0349743 133.4494353  61.5668385 111.8717523
 133.4878452  61.0331976 112.6654641 132.9434646  61.0403591 111.2528500
 140.8285115  56.4132926 115.3680065 140.8926442  57.2747757 114.9557463
 140.7652235  55.8006928 114.6352423 140.3037388  58.4856058 119.0153099
 140.9309426  58.1033136 119.6290623 139.4465306  58.2670260 119.3808792
 137.0802930  60.2932488 104.9471454 137.3756371  59.3843166 104.8938508
 136.1790966  60.2720227 104.6252456 138.8090772  57.9746585 105.0710779
 138.4803478  57.0943964 104.8885885 139.1630143  57.9194254 105.9587168
 137.2676749  62.9630383 114.0896288 136.7230217  63.7390191 114.2216562
 138.1456098  63.3101188 113.9315409 138.0542770  62.0900279 116.9826444
 137.3124507  62.2382915 117.5691075 137.7335515  62.3508545 116.1193194
 138.4999384  69.9765708 109.0136839 139.3257404  69.6769480 108.6335483
 138.1493436  69.2073331 109.4626628 136.7007989  67.8952035 109.9725773
 135.8639898  67.4674209 109.7909774 136.6731635  68.0884478 110.9096564
 140.7847057  63.9061277 105.5654042 140.5393099  63.0023607 105.7634252
 140.9542972  63.9078428 104.6233520 140.0542705  59.6389635 103.0640204
 139.3611950  59.7133990 102.4080240 139.8094457  58.8749979 103.5861721
 136.0157486  60.9561383 109.7574705 135.6960270  60.1026691 109.4649079
 135.4690914  61.1709961 110.5132672 139.7937393  63.6723824 113.4744211
 140.0123403  64.6040932 113.4932245 140.2063167  63.3131798 114.2599015
 135.8845746  64.5764294 111.7267826 135.1909217  64.1618247 111.2137781
 136.6318737  64.6184831 111.1301245 137.7982488  64.5082548 109.6033841
 137.7753176  64.6070235 108.6515724 138.1083125  65.3547699 109.9251007
 138.8120095  72.1078323 110.7350654 138.6774563  71.3478723 110.1688652
 138.3952157  72.8319222 110.2679442 136.3004163  59.4697953 116.9843450
 136.9463026  58.9596907 117.4730676 136.0921314  60.2066635 117.5586876
 121.9196184  19.6058923  93.4173848 121.8420213  20.5566749  93.4962328
 121.3157827  19.2604796  94.0748774 124.1934552  14.9641076  92.1379388
 124.0580227  15.8092612  92.5664235 124.7344365  15.1660354  91.3745321
 119.4558835  15.5982271  94.7930066 119.6325463  16.5200235  94.6051050
 120.2515668  15.2840690  95.2224446 120.5790150  17.1160445 100.7940408
 121.1297575  16.9877508 100.0217402 119.7401626  17.4155334 100.4435301
 126.7930713  19.0375282  88.5735110 126.1192412  19.3406979  89.1820068
 127.1796535  19.8404363  88.2240568 123.7036699  16.6553807  95.9696853
 123.6612878  16.8814654  95.0405385 124.6199398  16.4217182  96.1182654
 126.6397345  15.9134932 100.1171184 126.6934367  16.4825868 100.8848900
 125.7712126  16.0836817  99.7525221 124.9921928  19.2054955  90.7882190
 125.1673684  18.7342998  91.6027812 124.3054716  19.8320721  91.0163450
 119.5583013  22.3544317  97.5622050 119.7979612  22.9862842  98.2401068
 118.7152210  22.0032357  97.8487409 124.0710875  18.1623440  99.9663554
 123.9981047  18.9678411 100.4782858 123.6288268  18.3615406  99.1411575
 123.8600655  17.3995210  93.4766375 123.0768177  17.9416890  93.5704600
 124.5593400  17.9169190  93.8760617 126.5309559  18.0610274 102.1221712
 127.2437531  18.6957739 102.0497614 126.0399587  18.1574140 101.3061714
 121.5821472  15.8104717 102.9427283 122.2830932  16.4441200 103.0956678
 121.1116587  16.1519449 102.1822923 126.3429932  18.4009018  94.8708004
 126.5252327  17.5830674  95.3335756 127.1662918  18.6176710  94.4332894
 126.6772098  17.3277203  92.1323052 127.2059864  16.8169658  91.5193215
 126.9400317  17.0119733  92.9968585 117.1789190  15.3441072  99.8758386
 117.7642627  14.5984760 100.0086290 116.9814029  15.6545029 100.7595050
 120.0327845  18.3792320  94.8920828 119.3638221  18.8638447  94.4084868
 119.8940715  18.6261540  95.8064207 124.1733114  20.4136063 101.4903487
 124.7251422  20.5767685 102.2552572 124.5139308  21.0040501 100.8183512
 127.3101501  18.3618039  98.4767169 127.1852641  17.5607779  97.9678114
 127.9680592  18.8564232  97.9881139 124.3198925  17.9794545 103.5052141
 124.6286052  17.7343692 104.3774841 125.1174407  18.1841183 103.0171011
 124.3419537  20.1332455  95.7357518 123.9024528  19.6408833  96.4290374
 125.0927654  19.5905422  95.4949593 116.8211876  16.3243995  95.7382146
 117.6469896  16.0247767  95.3580789 116.4705928  15.5551618  96.1871934
 121.7893410  15.6770464  97.8079819 121.1673419  15.0141169  97.5082047
 122.4598277  15.7031596  97.1253467 115.0220481  14.2430322  96.6971079
 114.1852390  13.8152496  96.5155081 114.9944127  14.4362765  97.6341871
 121.3506917  14.2274387  91.2838280 121.4995037  14.9109851  90.6304953
 122.1573360  14.2079477  91.7987736 124.8502322  16.7222517  88.7550027
 124.2776289  17.3412705  88.3020499 125.4235116  17.2721879  89.2889949
 128.0699582  17.0059668  89.8858610 129.0030255  16.9405229  90.0891485
 127.9822795  17.8415934  89.4273142 117.1332587  18.4556610  97.4595960
 116.9987055  17.6957011  96.8933958 116.7164650  19.1797510  96.9924749
 120.2901713  19.3525927  97.6714403 120.1734097  20.2971359  97.5693093
 119.4694159  19.0499488  98.0600202 121.3156227  20.0054189 100.8870331
 122.2183474  20.0377799 101.2036826 121.0893597  19.0754640 100.9016667
 123.0709829  18.7585175  97.5480410 122.1205460  18.7587037  97.4344782
 123.3742315  18.0117910  97.0316444 138.8062523  24.5945714  98.6126172
 139.4440933  24.4752461  97.9089512 138.6883366  25.5426558  98.6714124
 135.6152229  24.5473142  98.5487697 135.2770741  24.4314206  97.6608232
 136.4841997  24.1464307  98.5288703 131.4739045  26.4008618  94.5384588
 130.9103910  26.3098555  93.7700876 131.3591440  25.5808523  95.0187080
 136.0972012  25.7007993 104.5073902 136.0860653  25.3060792 103.6354406
 136.2592652  24.9674066 105.1007674 129.0203477  27.8959810  97.3768808
 129.8124769  27.5550634  96.9615108 129.2600127  28.0054785  98.2970962
 137.0538603  30.0679586  89.8499053 136.4026583  30.6533666  89.4633067
 137.8482966  30.5985781  89.9094090 130.9794231  27.1568723  90.2486187
 131.7525107  26.6097710  90.1099063 131.3319629  28.0212972  90.4600649
 132.8179273  28.4845105 103.4553086 132.5269139  29.3890736 103.3399753
 133.4536258  28.5261633 104.1697156 133.7435480  25.8621954 100.0454446
 134.3399052  25.6377976  99.3311409 133.8010452  25.1206699 100.6479894
 133.3160508  23.3161389  87.8804637 133.5686029  22.7942910  87.1188100
 132.3785068  23.1527535  87.9831321 138.3603791  22.3197167  95.6879380
 139.1466880  21.9016591  95.3369797 138.6242496  23.2243260  95.8561029
 138.5313869  27.7570018  90.3868037 137.8959702  27.8304644  91.0988942
 138.2011275  28.3463617  89.7087116 133.0356797  25.2189495  90.0829012
 132.9193055  24.5434398  90.7510096 133.1459057  24.7321869  89.2661165
 135.3788338  24.6799642  93.7875701 135.0146545  24.1530263  94.4988623
 136.2355454  24.2898111  93.6142187 135.0193825  19.7089542  88.7837050
 135.1868227  20.5769778  89.1507521 134.8290994  19.8716824  87.8598339
 137.7769158  28.1706521 100.4502880 137.4769881  29.0731560 100.3418687
 137.4320218  27.9038704 101.3024033 131.2281640  24.6220318  96.4839585
 130.3032136  24.4896532  96.6917276 131.4766053  25.4014537  96.9809527
 134.9983046  22.1647199  89.7683717 134.8782671  22.6104250  90.6069197
 134.3035634  22.5132517  89.2097255 128.5890451  24.2653591  97.3183374
 128.7182832  24.5188070  98.2322785 127.9087902  24.8581299  96.9988029
 132.7589938  34.9350841  93.4173848 132.6813968  35.8858666  93.4962328
 132.1551582  34.5896714  94.0748774 133.5053540  24.9164160 105.6353182
 134.2468225  25.4549204 105.3588005 132.7990526  25.5430449 105.7924734
 138.9808880  27.0593300 104.2325343 139.3892236  26.6175711 103.4879976
 138.2586141  26.4845928 104.4859536 135.3339950  21.9965907 101.6058900
 136.1801145  22.4205321 101.7493549 135.2738588  21.3399531 102.2997463
 139.3037694  27.6194491  97.9877632 138.6746557  27.7840205  97.2853700
 138.9163357  28.0336101  98.7588596 140.4377858  26.2008888 101.9417339
 140.6494753  26.8440648 101.2651720 140.3907606  25.3671204 101.4739269
 134.8565656  27.3568899  95.2527717 135.3204002  27.6356602  94.4632340
 134.5922454  26.4552344  95.0700808 131.7489737  26.9040381  98.1907480
 132.3191094  27.3327649  97.5524965 132.3397849  26.6222965  98.8891666
 133.7934542  23.4792051  92.0617282 134.4958586  23.9313095  92.5291209
 133.4615171  22.8375870  92.6897175 132.2414904  22.0703808 106.4368492
 131.6113564  22.7520089 106.6703889 132.1350992  21.9586890 105.4921630
 127.5359876  21.7375604  97.3634416 126.7458930  21.9933133  96.8874527
 128.0271124  22.5523942  97.4686456 129.4874622  22.1020183  94.3217893
 128.6905785  22.2138878  94.8401388 129.2600214  22.4406836  93.4558783
 135.3180289  28.6264887 102.2700407 135.3824722  29.0885294 103.1058579
 134.6091213  27.9962252 102.3982717 125.8197579  21.9906095  99.7949407
 126.0705618  22.8753105 100.0606983 126.3557128  21.8110696  99.0224499
 135.0328307  30.2932994  92.1379388 134.8973982  31.1384530  92.5664235
 135.5738119  30.4952272  91.3745321 128.4857704  27.8108432  92.7107313
 128.9982225  28.6051682  92.8612877 129.1380417  27.1134723  92.6440914
 130.2952589  30.9274188  94.7930066 130.4719217  31.8492153  94.6051050
 131.0909423  30.6132608  95.2224446 129.5804946  22.9738820 104.6692229
 129.4658461  22.0724078 104.9699328 128.7249463  23.2202517 104.3177046
 136.6596783  30.9156561 106.2679730 136.2160638  30.1292939 105.9500634
 137.3213997  31.1035711 105.6023620 131.4183905  32.4452362 100.7940408
 131.9691330  32.3169426 100.0217402 130.5795380  32.7447251 100.4435301
 138.7578021  31.1959361 104.2961131 138.7396497  32.0168242 103.8041400
 139.6797941  31.0713436 104.5211272 135.2151076  28.7103490 105.1384639
 135.7479412  27.9491778 104.9083947 134.6865157  28.4177142 105.8808794
 126.4506621  26.1397086  93.4866883 127.2881843  26.5494095  93.2700591
 126.6284889  25.1996529  93.4567077 138.3471053  23.8072167  89.1750716
 137.8317677  24.5776772  89.4139104 138.0748362  23.1337303  89.7983778
 138.1357356  21.6799259  91.0010497 137.8307492  21.9945408  91.8520641
 139.0887799  21.7580679  91.0437830 136.5803788  27.8389483  92.6503451
 136.0525150  27.1042242  92.3376689 136.0791291  28.6164159  92.4043420
 131.3122516  18.5009149  95.0110063 131.8866268  18.2784330  94.2783256
 131.8993498  18.5697843  95.7638664 140.3702093  24.3882876  95.8174439
 140.8833975  25.0212868  96.3196149 141.0203317  23.7884071  95.4517799
 131.6392103  20.5313610  89.0305948 130.8029415  20.8688296  89.3515223
 131.4996873  20.3962590  88.0933085 134.7256388  25.6569693  85.6538424
 133.8183450  25.4258946  85.8529573 135.2227420  24.8607312  85.8412406
 137.6324467  34.3667200  88.5735110 136.9586166  34.6698897  89.1820068
 138.0190289  35.1696280  88.2240568 136.8482924  21.8632331  98.0632780
 135.9305485  22.0847278  97.9054468 137.2643068  21.9378642  97.2044487
 137.6317972  23.2623747  93.1935460 138.3789791  23.7745144  92.8842582
 137.9009561  22.9407800  94.0539854 135.9044622  25.7582288  90.1762414
 134.9955841  25.4741320  90.2734884 135.9339706  26.1781366  89.3165721
 141.1363889  29.3688877  93.9453582 140.6826216  28.5279787  94.0018772
 140.5057856  30.0050276  94.2828362 139.5796829  31.2065374  94.8803400
 139.8719803  31.7670431  94.1615766 140.0895449  31.4993935  95.6356559
 126.4732792  23.4787802  94.1577617 126.2757192  22.8857162  93.4328683
 125.9179456  23.1740012  94.8753555 134.4529516  23.3710908  96.2772210
 134.5078126  22.4184745  96.2014686 133.6420718  23.5270347  96.7613508
 135.6020710  27.2991031  87.5150493 135.1640140  26.5826890  87.0556130
 136.3431151  27.5267146  86.9535584 132.3921876  21.9887968  94.0362589
 131.5789741  22.2882139  94.4427781 132.8880870  21.5943657  94.7537071
 134.5430454  31.9845725  95.9696853 134.5006633  32.2106571  95.0405385
 135.4593153  31.7509100  96.1182654 131.8835951  19.5606324  99.6523824
 132.5235330  19.4195083  98.9546787 131.0513481  19.2740837  99.2762426
 132.6596255  28.8608754  95.7658816 133.4536853  28.3659074  95.5641391
 131.9487947  28.3326617  95.4026522 137.4791099  31.2426849 100.1171184
 137.5328121  31.8117786 100.8848900 136.6105880  31.4128734  99.7525221
 128.9679018  23.0051836  91.8418569 128.0376606  22.9436291  92.0588531
 129.0636490  22.4827788  91.0455210 128.8864567  19.5306648  94.4296810
 129.1471384  20.4451982  94.3205971 129.7081739  19.0631091  94.5793423
 130.3589492  20.9444406 101.5995635 131.0312546  20.7361768 100.9508284
 129.5319279  20.7466492 101.1600867 136.4379199  25.4087111 101.6758116
 137.3671259  25.5598271 101.5027083 136.0170229  25.4971132 100.8206762
 135.2367531  29.4337776  99.4456653 135.0978616  29.0656560 100.3182591
 134.4482127  29.9485415  99.2740611 135.8315682  34.5346872  90.7882190
 136.0067438  34.0634916  91.6027812 135.1448471  35.1612639  91.0163450
 136.7872746  28.8119379  96.8345491 136.4522578  28.7720149  97.7303141
 136.2876691  28.1464095  96.3615901 130.7616990  24.2187009 102.3598072
 130.6236788  23.4867247 102.9609611 131.6721913  24.1295909 102.0782260
 139.7231937  26.1575413  87.1082551 139.1061108  25.4322241  87.0115603
 139.2548426  26.9184773  86.7649625 133.3899290  23.9306968 101.8481752
 134.0998909  23.2900160 101.8068370 133.3468598  24.1819863 102.7707933
 132.1028224  20.9172186 103.6677391 131.5665581  20.4662924 104.3198988
 131.5144933  21.0518095 102.9247856 130.3976768  37.6836235  97.5622050
 130.6373366  38.3154759  98.2401068 129.5545964  37.3324275  97.8487409
 131.5130483  20.3760837  86.2303855 130.6359950  20.2549638  85.8666102
 131.9888236  19.5846916  85.9782744 123.0332623  25.1637997  96.3245362
 123.7203663  24.8499727  95.7366377 122.8780752  26.0679362  96.0512613
 127.8367346  20.0528194 100.7530386 127.7525534  19.4453863 100.0180796
 127.0150052  20.5437212 100.7539882 134.9104630  33.4915358  99.9663554
 134.8374801  34.2970329 100.4782858 134.4682023  33.6907323  99.1411575
 134.6994409  32.7287128  93.4766375 133.9161931  33.2708808  93.5704600
 135.3987154  33.2461107  93.8760617 137.3703313  33.3902192 102.1221712
 138.0831285  34.0249656 102.0497614 136.8793342  33.4866058 101.3061714
 139.0920840  27.2953444  93.6939004 138.1577119  27.4154907  93.5243708
 139.2697509  26.3925911  93.4299014 134.5926028  20.6799140  95.8472265
 134.2223816  20.1270180  96.5353171 135.0885121  20.0757274  95.2947265
 132.4215227  31.1396635 102.9427283 133.1224686  31.7733118 103.0956678
 131.9510342  31.4811367 102.1822923 140.5469623  29.4814585  91.2275190
 140.8229466  29.3671179  92.1369064 139.6774121  29.0832070  91.1887363
 140.2216513  23.6941243 100.7679834 139.5687963  23.9417150 100.1132286
 140.5996893  22.8805381 100.4342311 137.1823687  33.7300936  94.8708004
 137.3646081  32.9122592  95.3335756 138.0056673  33.9468628  94.4332894
 137.5165852  32.6569121  92.1323052 138.0453618  32.1461575  91.5193215
 137.7794072  32.3411651  92.9968585 128.0182945  30.6732990  99.8758386
 128.6036382  29.9276678 100.0086290 127.8207783  30.9836947 100.7595050
 130.8721600  33.7084238  94.8920828 130.2031975  34.1930365  94.4084868
 130.7334470  33.9553458  95.8064207 122.6100599  23.2438590  98.5962829
 122.6484699  22.7102181  99.3899947 122.1040892  22.7173796  97.9773806
 135.0126869  35.7427981 101.4903487 135.5645177  35.9059603 102.2552572
 135.3533062  36.3332419 100.8183512 129.9891362  18.0903131 102.0925371
 130.0532688  18.9517962 101.6802769 129.9258482  17.4777132 101.3597730
 129.4643634  20.1626263 105.7398406 130.0915673  19.7803341 106.3535930
 128.6071553  19.9440465 106.1054098 126.2409177  21.9702692  91.6716761
 126.5362618  21.0613371  91.6183814 125.3397213  21.9490432  91.3497763
 138.1495256  33.6909957  98.4767169 138.0246395  32.8899696  97.9678114
 138.8074347  34.1856150  97.9881139 129.7703424  20.0458689  97.6544309
 129.0490010  20.6594657  97.5151782 130.5596680  20.5816454  97.5760955
 140.2130164  31.4918977 100.1046719 139.2660500  31.3724328 100.0325046
 140.5612937  30.6041475 100.1872980 127.9697019  19.6516790  91.7956086
 127.6409725  18.7714169  91.6131192 128.3236389  19.5964459  92.6832475
 137.2176598  31.2871693  96.3051071 137.0701560  30.3588400  96.4858641
 138.0430091  31.3091784  95.8208146 131.0838842  19.9389760  92.1631563
 131.4234914  20.4675681  91.4410172 131.5310962  20.2770166  92.9390130
 133.0706989  18.4364382  90.3624856 133.7915351  18.8145634  89.8588573
 132.4472293  19.1553258  90.4659834 131.9537333  22.0995244  97.8753933
 131.8081914  22.4135547  98.7678215 131.4762537  22.7180144  97.3224832
 135.6659847  19.5235132  99.9687950 135.4077625  20.4452203  99.9672280
 135.1344887  19.1265566 100.6588414 140.6106036  32.6285919  92.7478035
 140.7842913  32.0632342  91.9951888 141.1034927  33.4286814  92.5657525
 126.4282995  24.6400588 100.8141594 125.8836463  25.4160396 100.9461869
 127.3062345  24.9871393 100.6560716 127.2149017  23.7670484 103.7071751
 126.4730753  23.9153120 104.2936382 126.8941762  24.0278750 102.8438500
 135.1592680  33.3086463 103.5052141 135.4679806  33.0635609 104.3774841
 135.9568162  33.5133101 103.0171011 135.1813292  35.4624372  95.7357518
 134.7418282  34.9700751  96.4290374 135.9321409  34.9197340  95.4949593
 127.6605631  31.6535913  95.7382146 128.4863651  31.3539685  95.3580789
 127.3099683  30.8843536  96.1871934 132.6287164  31.0062381  97.8079819
 132.0067173  30.3433086  97.5082047 133.2992031  31.0323513  97.1253467
 125.8614236  29.5722240  96.6971079 125.0246144  29.1444414  96.5155081
 125.8337881  29.7654683  97.6341871 132.1900671  29.5566305  91.2838280
 132.3388791  30.2401769  90.6304953 132.9967114  29.5371395  91.7987736
 129.9453304  25.5831482  92.2899349 129.6999346  24.6793812  92.4879559
 130.1149219  25.5848633  91.3478827 129.2148952  21.3159840  89.7885510
 128.5218196  21.3904195  89.1325546 128.9700703  20.5520184  90.3107027
 135.6896077  32.0514435  88.7550027 135.1170044  32.6704622  88.3020499
 136.2628870  32.6013797  89.2889949 138.9093336  32.3351585  89.8858610
 139.8424009  32.2697147  90.0891485 138.8216549  33.1707852  89.4273142
 136.0742875  23.3875248  86.0966080 137.0201980  23.2581456  86.1654498
 135.6957120  22.6489910  86.5735508 134.2585792  21.3125224  86.0320965
 133.3517248  21.0158337  86.1083679 134.5361773  21.0155042  85.1655251
 125.1763733  22.6331588  96.4820011 124.8566517  21.7796896  96.1894385
 124.6297161  22.8480166  97.2377979 128.9543640  25.3494029 100.1989518
 129.1729650  26.2811136 100.2177552 129.3669414  24.9902003 100.9844322
 125.0451993  26.2534499  98.4513133 124.3515464  25.8388452  97.9383087
 125.7924984  26.2955036  97.8546552 126.9588735  26.1852753  96.3279148
 126.9359423  26.2840440  95.3761031 127.2689372  27.0317904  96.6496314
 129.6176113  28.2428908 100.4425762 130.5719367  28.2112850 100.3755694
 129.4188637  27.7819532 101.2575988 130.2075495  26.8130024 103.0096560
 131.0268384  27.3074103 103.0331397 130.4812303  25.8961992 102.9814127
 127.9726342  33.7848527  97.4595960 127.8380810  33.0248928  96.8933958
 127.5558404  34.5089427  96.9924749 139.1085305  28.9685451  86.4672535
 139.8121155  29.1735454  87.0830191 138.3847954  29.5362213  86.7321619
 139.9383115  24.7195312  92.5874806 139.8818316  25.1763864  91.7482438
 140.4911458  23.9585997  92.4097648 131.1295468  34.6817845  97.6714403
 131.0127852  35.6263277  97.5693093 130.3087914  34.3791406  98.0600202
 140.6717894  25.9100094  89.8827335 140.6166698  25.7444365  88.9415779
 140.0463950  26.6176126  90.0389525 125.4610409  21.1468158 103.7088757
 126.1069273  20.6367112 104.1975982 125.2527560  21.8836840 104.2832182
 132.1549982  35.3346106 100.8870331 133.0577228  35.3669717 101.2036826
 131.9287352  34.4046557 100.9016667 133.9103584  34.0877093  97.5480410
 132.9599215  34.0878955  97.4344782 134.2136070  33.3409828  97.0316444
 139.8597231  43.2251727  97.3768808 140.6518523  42.8842552  96.9615108
 140.0993881  43.3346702  98.2970962 139.4284205  39.5945509  97.3183374
 139.5576586  39.8479988  98.2322785 138.7481657  40.1873217  96.9988029
 138.3753631  37.0667522  97.3634416 137.5852685  37.3225050  96.8874527
 138.8664878  37.8815860  97.4686456 140.3268376  37.4312101  94.3217893
 139.5299539  37.5430795  94.8401388 140.0993968  37.7698753  93.4558783
 136.6591334  37.3198012  99.7949407 136.9099372  38.2045022 100.0606983
 137.1950882  37.1402614  99.0224499 139.3251459  43.1400350  92.7107313
 139.8375979  43.9343600  92.8612877 139.9774172  42.4426640  92.6440914
 140.4198700  38.3030738 104.6692229 140.3052215  37.4015995 104.9699328
 139.5643218  38.5494435 104.3177046 137.2900376  41.4689004  93.4866883
 138.1275598  41.8786012  93.2700591 137.4678643  40.5288446  93.4567077
 137.3126547  38.8079719  94.1577617 137.1150947  38.2149080  93.4328683
 136.7573211  38.5031930  94.8753555 139.8072772  38.3343753  91.8418569
 138.8770361  38.2728209  92.0588531 139.9030244  37.8119706  91.0455210
 139.7258322  34.8598566  94.4296810 139.9865139  35.7743899  94.3205971
 140.5475494  34.3923009  94.5793423 133.8726378  40.4929915  96.3245362
 134.5597418  40.1791645  95.7366377 133.7174507  41.3971279  96.0512613
 138.6761100  35.3820111 100.7530386 138.5919289  34.7745781 100.0180796
 137.8543806  35.8729130 100.7539882 138.8576699  46.0024908  99.8758386
 139.4430136  45.2568596 100.0086290 138.6601538  46.3128865 100.7595050
 133.4494354  38.5730508  98.5962829 133.4878453  38.0394099  99.3899947
 132.9434647  38.0465714  97.9773806 140.8285116  33.4195049 102.0925371
 140.8926443  34.2809879 101.6802769 140.7652237  32.8069050 101.3597730
 140.3037389  35.4918181 105.7398406 140.9309428  35.1095258 106.3535930
 139.4465308  35.2732383 106.1054098 137.0802932  37.2994610  91.6716761
 137.3756373  36.3905289  91.6183814 136.1790967  37.2782350  91.3497763
 138.8090773  34.9808708  91.7956086 138.4803479  34.1006087  91.6131192
 139.1630144  34.9256377  92.6832475 137.2676750  39.9692506 100.8141594
 136.7230218  40.7452314 100.9461869 138.1456100  40.3163310 100.6560716
 138.0542772  39.0962402 103.7071751 137.3124508  39.2445037 104.2936382
 137.7335516  39.3570668 102.8438500 138.4999385  46.9827831  95.7382146
 139.3257405  46.6831603  95.3580789 138.1493437  46.2135453  96.1871934
 136.7007990  44.9014157  96.6971079 135.8639899  44.4736332  96.5155081
 136.6731636  45.0946601  97.6341871 140.7847058  40.9123400  92.2899349
 140.5393100  40.0085730  92.4879559 140.9542973  40.9140550  91.3478827
 140.0542706  36.6451758  89.7885510 139.3611951  36.7196113  89.1325546
 139.8094458  35.8812101  90.3107027 136.0157487  37.9623505  96.4820011
 135.6960271  37.1088814  96.1894385 135.4690915  38.1772084  97.2377979
 139.7937395  40.6785946 100.1989518 140.0123404  41.6103054 100.2177552
 140.2063168  40.3193921 100.9844322 135.8845747  41.5826417  98.4513133
 135.1909218  41.1680370  97.9383087 136.6318738  41.6246953  97.8546552
 137.7982490  41.5144671  96.3279148 137.7753178  41.6132358  95.3761031
 138.1083126  42.3609821  96.6496314 138.8120096  49.1140445  97.4595960
 138.6774564  48.3540846  96.8933958 138.3952159  49.8381345  96.9924749
 136.3004164  36.4760076 103.7088757 136.9463027  35.9659030 104.1975982
 136.0921315  37.2128757 104.2832182 138.8576701  23.0087030  86.6003693
 139.4430137  22.2630718  86.7331597 138.6601539  23.3190987  87.4840357
 138.4999387  23.9889953  82.4627452 139.3257407  23.6893725  82.0826096
 138.1493439  23.2197576  82.9117241 136.7007992  21.9076280  83.4216386
 135.8639900  21.4798454  83.2400387 136.6731637  22.1008723  84.3587177
 138.8120098  26.1202568  84.1841267 138.6774565  25.3602969  83.6179265
 138.3952160  26.8443468  83.7170056  57.4404221  76.9683105 154.2578101
  57.6929741  76.4464627 153.4961564  56.5028780  76.8049251 154.3604784
  62.4714766  77.4593883 155.5524180  61.9561389  78.2298488 155.7912567
  62.1992074  76.7859020 156.1757241  58.8500101  79.3091409 152.0311888
  57.9427162  79.0780663 152.2303037  59.3471133  78.5129028 152.2185870
  59.7264422  80.9512748 153.8923957  59.2883852  80.2348607 153.4329594
  60.4674863  81.1788862 153.3309048  63.8475650  79.8097129 153.4856014
  63.2304820  79.0843957 153.3889067  63.3792138  80.5706490 153.1423089
  60.1986587  77.0396964 152.4739544  61.1445692  76.9103172 152.5427962
  59.8200832  76.3011626 152.9508972  58.3829504  74.9646941 152.4094429
  57.4760960  74.6680053 152.4857142  58.6605485  74.6676759 151.5428715
  61.1782317  60.7263425 142.9517823  60.5270297  61.3117505 142.5651837
  61.9726680  61.2569620 143.0112861  57.4404222  53.9745228 140.9823407
  57.6929743  53.4526749 140.2206870  56.5028781  53.8111373 141.0850091
  62.6557582  58.4153857 143.4886807  62.0203415  58.4888483 144.2007712
  62.3254989  59.0047456 142.8105887  56.8833652  65.5934680 146.5192618
  56.8057681  66.5442505 146.5981099  56.2795295  65.2480553 147.1767545
  64.8211826  53.2952511 143.6982821  65.7329682  53.5279898 143.5230519
  64.3121473  53.8789556 143.1357900  67.3070640  59.2132768 148.4440766
  66.6221678  59.5931669 147.8937800  67.3914489  59.8228094 149.1772714
  59.1572021  60.9516833 145.2398158  59.0217695  61.7968369 145.6683006
  59.6981833  61.1536111 144.4764092  62.4714767  54.4656006 142.2769487
  61.9561390  55.2360611 142.5157874  62.1992075  53.7921142 142.9002548
  67.4449041  57.2188361 144.2122660  66.6678484  56.8799520 143.7677822
  68.1240522  57.2240984 143.5377625  58.8500102  56.3153532 138.7557195
  57.9427164  56.0842785 138.9548344  59.3471134  55.5191151 138.9431176
  61.7568181  65.0251039 141.6753881  61.0829880  65.3282736 142.2838839
  62.1434003  65.8280119 141.3259338  60.0288335  56.4166127 143.2781185
  59.1199555  56.1325159 143.3753655  60.0583419  56.8365205 142.4184492
  65.2607603  60.0272716 147.0472352  64.8069930  59.1863626 147.1037543
  64.6301570  60.6634114 147.3847133  63.7040542  61.8649213 147.9822171
  63.9963516  62.4254270 147.2634536  64.2139163  62.1577774 148.7375330
  59.7264423  57.9574870 140.6169263  59.2883853  57.2410729 140.1574901
  60.4674864  58.1850985 140.0554355  67.8437538  56.2332067 146.6745582
  67.7055437  56.4233663 145.7466771  67.4873757  56.9951450 147.1313633
  59.9559396  65.1930711 143.8900960  60.1311152  64.7218754 144.7046583
  59.2692184  65.8196477 144.1182221  63.8475651  56.8159252 140.2101321
  63.2304821  56.0906080 140.1134374  63.3792139  57.5768612 139.8668395
  58.8238123  63.3870967 146.5785146  58.0405645  63.9292647 146.6723370
  59.5230868  63.9044946 146.9779387  64.6713336  60.1398424 144.3293961
  64.9473180  60.0255018 145.2387835  63.8017835  59.7415909 144.2906134
  61.3067400  64.3884775 147.9726774  61.4889795  63.5706431 148.4354527
  62.1300386  64.6052467 147.5351664  61.6409566  63.3152960 145.2341823
  62.1697332  62.8045414 144.6211985  61.9037785  62.9995490 146.0987356
  64.7349749  63.2869758 145.8496806  64.9086627  62.7216180 145.0970658
  65.2278640  64.0870653 145.6676296  70.5889140  56.0506181 147.4687106
  71.0320286  55.3013506 147.0706229  69.7115651  56.0416317 147.0860838
  65.7224922  62.6036522 142.9493704  66.4175826  63.2243215 143.1681019
  66.0648072  61.7531874 143.2246082  67.6216345  60.0536228 144.4781035
  68.1467669  60.3923501 143.7530355  67.5338697  59.1183243 144.2944169
  56.3144385  60.2150144 144.3857050  56.4632505  60.8985608 143.7323723
  57.1210828  60.1955234 144.9006506  59.8139790  62.7098274 141.8568798
  59.2413757  63.3288461 141.4039270  60.3872584  63.2597636 142.3908720
  63.0337050  62.9935424 142.9877380  63.9667723  62.9280986 143.1910255
  62.9460263  63.8291691 142.5291913  65.6625067  62.3101295 139.9481328
  65.5838698  61.9761158 140.8417085  66.4834733  62.8023062 139.9472800
  60.1986589  54.0459087 139.1984850  61.1445693  53.9165295 139.2673268
  59.8200834  53.3073749 139.6754278  58.3829506  51.9709063 139.1339735
  57.4760961  51.6742176 139.2102449  58.6605487  51.6738881 138.2674022
  63.2329018  59.6269290 139.5691306  63.9364868  59.8319292 140.1848961
  62.5091667  60.1946052 139.8340389  65.1415716  60.0651819 141.6189766
  65.9761320  59.6333018 141.4367241  64.9800059  59.8933833 142.5466660
  64.7961608  56.5683932 142.9846105  64.7410412  56.4028204 142.0434549
  64.1707663  57.2759965 143.1408295  73.7699991  70.5821470 151.7144943
  74.4078401  70.4628218 151.0108283  73.6520834  71.5302314 151.7732895
  70.5789697  70.5348898 151.6506467  70.2408209  70.4189963 150.7627002
  71.4479465  70.1340063 151.6307473  66.4376513  72.3884375 147.6403358
  65.8741378  72.2974312 146.8719646  66.3228908  71.5684279 148.1205851
  63.9840945  73.8835566 150.4787579  64.7762237  73.5426391 150.0633878
  64.2237595  73.9930541 151.3989732  72.0176072  76.0555342 142.9517823
  71.3664051  76.6409423 142.5651837  72.8120434  76.5861537 143.0112861
  65.9431699  73.1444480 143.3504958  66.7162575  72.5973467 143.2117833
  66.2957098  74.0088729 143.5619419  68.7072948  71.8497710 153.1473216
  69.3036520  71.6253733 152.4330179  68.7647920  71.1082456 153.7498664
  68.2797976  69.3037146 140.9823407  68.5323497  68.7818667 140.2206870
  67.3422536  69.1403291 141.0850091  73.3241259  68.3072924 148.7898151
  74.1104349  67.8892347 148.4388568  73.5879964  69.2119016 148.9579799
  73.4951337  73.7445774 143.4886807  72.8597170  73.8180401 144.2007712
  73.1648743  74.3339373 142.8105887  78.7249686  68.2448157 149.6931129
  79.4574858  67.6747374 149.9268959  77.9689042  67.8569758 150.1337635
  67.9994265  71.2065252 143.1847782  67.8830523  70.5310155 143.8528867
  68.1096525  70.7197626 142.3679935  70.3425806  70.6675399 146.8894472
  69.9784013  70.1406020 147.6007393  71.1992922  70.2773868 146.7160957
  69.9831293  65.6965298 141.8855820  70.1505695  66.5645535 142.2526291
  69.7928462  65.8592580 140.9617109  72.7406626  74.1582277 153.5521651
  72.4407349  75.0607316 153.4437458  72.3957686  73.8914461 154.4042803
  66.1919108  70.6096074 149.5858355  65.2669604  70.4772288 149.7936047
  66.4403521  71.3890293 150.0828297  76.1403770  66.6764818 151.2319088
  75.2320647  66.6080226 150.9377849  76.0891366  67.1536763 152.0600913
  69.9620514  68.1522956 142.8702487  69.8420139  68.5980007 143.7087967
  69.2673102  68.5008274 142.3116025  63.5527919  70.2529348 150.4202144
  63.6820300  70.5063827 151.3341556  62.8725370  70.8457056 150.1006799
  67.7227406  80.9226598 146.5192618  67.6451436  81.8734423 146.5981099
  67.1189050  80.5772470 147.1767545  78.0065416  64.8781256 153.0096962
  77.3639797  65.1713789 152.3636756  77.5020345  64.7634176 153.8150158
  75.6605580  68.6244429 143.6982821  76.5723436  68.8571816 143.5230519
  75.1515227  69.2081473 143.1357900  74.2675162  73.6070248 151.0896402
  73.6384025  73.7715962 150.3872470  73.8800825  74.0211857 151.8607367
  78.1464394  74.5424685 148.4440766  77.4615433  74.9223587 147.8937800
  78.2308244  75.1520012 149.1772714  73.0041555  64.8002465 151.9472682
  72.1426034  65.0983719 152.2389419  73.0303990  65.0172864 151.0153715
  69.8203124  73.3444656 148.3546488  70.2841470  73.6232359 147.5651110
  69.5559922  72.4428100 148.1719578  66.7127205  72.8916137 151.2926251
  67.2828562  73.3203406 150.6543735  67.3035317  72.6098722 151.9910436
  68.7572010  69.4667808 145.1636053  69.4596054  69.9188852 145.6309979
  68.4252639  68.8251627 145.7915946  62.4997344  67.7251361 150.4653186
  61.7096398  67.9808889 149.9893297  62.9908592  68.5399699 150.5705227
  64.4512090  68.0895940 147.4236663  63.6543253  68.2014634 147.9420159
  64.2237682  68.4282592 146.5577554  84.6067147  71.4095348 149.5643439
  83.8530855  70.8402746 149.4087443  84.7414688  71.3758013 150.5114073
  69.9965775  76.2808751 145.2398158  69.8611450  77.1260286 145.6683006
  70.5375588  76.4828028 144.4764092  63.4495172  73.7984189 145.8126083
  63.9619693  74.5927439 145.9631648  64.1017885  73.1010479 145.7459684
  65.2590057  76.9149945 147.8948836  65.4356685  77.8367910 147.7069820
  66.0546891  76.6008364 148.3243216  66.3821373  78.4328119 153.8959179
  66.9328798  78.3045182 153.1236172  65.5432848  78.7323008 153.5454071
  61.4144089  72.1272843 146.5885654  62.2519311  72.5369851 146.3719361
  61.5922357  71.1872285 146.5585847  73.3108521  69.7947924 142.2769487
  72.7955145  70.5652528 142.5157874  73.0385830  69.1213060 142.9002548
  70.8955632  64.6397624 147.3354725  70.0397229  64.2504475 147.1560364
  71.3082584  64.7189585 146.4754510  72.4254779  62.1743968 151.7346285
  71.9219575  62.1374103 150.9214090  72.7185386  63.0836710 151.7942941
  78.2842795  72.5480278 144.2122660  77.5072238  72.2091438 143.7677822
  78.9634276  72.5532901 143.5377625  73.0994824  67.6675016 144.1029268
  72.7944960  67.9821165 144.9539411  74.0525267  67.7456436 144.1456601
  71.5441256  73.8265239 145.7522222  71.0162618  73.0917999 145.4395459
  71.0428759  74.6039915 145.5062190  76.5234102  72.0214260 150.8689268
  75.8657777  72.7113521 150.9569397  77.3274502  72.4110692 151.2123254
  66.2759984  64.4884905 148.1128833  66.8503736  64.2660087 147.3802026
  66.8630966  64.5573600 148.8657434  75.3339561  70.3758632 148.9193210
  75.8471443  71.0088624 149.4214919  75.9840785  69.7759828 148.5536570
  66.6029571  66.5189366 142.1324718  65.7666883  66.8564053 142.4533993
  66.4634341  66.3838346 141.1951855  68.5782652  61.3626154 146.8403903
  67.9247064  61.0475171 146.2160517  68.5363126  60.7401895 147.5663726
  69.6893856  71.6445449 138.7557195  68.7820918  71.4134703 138.9548344
  70.1864888  70.8483069 138.9431176  72.5961935  80.3542957 141.6753881
  71.9223634  80.6574653 142.2838839  72.9827757  81.1572037 141.3259338
  71.8120392  67.8508088 151.1651550  70.8942953  68.0723035 151.0073238
  72.2280536  67.9254398 150.3063258  72.5955440  69.2499503 146.2954231
  73.3427259  69.7620901 145.9861353  72.8647029  68.9283556 147.1558624
  70.8682090  71.7458044 143.2781185  69.9593309  71.4617077 143.3753655
  70.8977174  72.1657123 142.4184492  76.1001357  75.3564634 147.0472352
  75.6463684  74.5155544 147.1037543  75.4695324  75.9926032 147.3847133
  75.0434277  66.2856620 148.2773020  74.3057034  65.7734006 148.6083262
  75.2961050  65.8457001 147.4656297  74.5434297  77.1941130 147.9822171
  74.8357271  77.7546188 147.2634536  75.0532917  77.4869691 148.7375330
  75.1445904  59.0632872 148.8714789  75.4504781  58.2030235 148.5840704
  75.8698509  59.6550492 148.6713783  61.4370260  69.4663558 147.2596387
  61.2394660  68.8732919 146.5347454  60.8816924  69.1615769 147.9772326
  69.4166984  69.3586665 149.3790980  69.4715594  68.4060501 149.3033457
  68.6058186  69.5146104 149.8632279  70.5658178  73.2866788 140.6169263
  70.1277608  72.5702647 140.1574901  71.3068619  73.5142903 140.0554355
  67.3559344  67.9763725 147.1381359  66.5427209  68.2757895 147.5446551
  67.8518338  67.5819413 147.8555841  69.5067922  77.9721481 149.0715624
  69.4644101  78.1982328 148.1424156  70.4230621  77.7384856 149.2201425
  78.6831293  71.5623985 146.6745582  78.5449191  71.7525581 145.7466771
  78.3267511  72.3243368 147.1313633  67.6233723  74.8484511 148.8677586
  68.4174321  74.3534831 148.6660161  66.9125415  74.3202374 148.5045292
  63.9316486  68.9927592 144.9437339  63.0014074  68.9312048 145.1607301
  64.0273958  68.4703545 144.1473980  63.8502035  65.5182405 147.5315581
  64.1108852  66.4327738 147.4224741  64.6719207  65.0506848 147.6812194
  71.4016667  71.3962868 154.7776886  72.3308727  71.5474028 154.6045853
  70.9807697  71.4846889 153.9225532  70.2004999  75.4213533 152.5475424
  70.0616084  75.0532317 153.4201362  69.4119595  75.9361172 152.3759381
  70.7953151  80.5222629 143.8900960  70.9704906  80.0510672 144.7046583
  70.1085939  81.1488395 144.1182221  71.7510214  74.7995135 149.9364261
  71.4160046  74.7595905 150.8321911  71.2514159  74.1339851 149.4634672
  74.6869405  72.1451170 140.2101321  74.0698576  71.4197998 140.1134374
  74.2185894  72.9060530 139.8668395  66.4767951  66.3636594 139.3322625
  65.5997418  66.2425395 138.9684872  66.9525704  65.5722672 139.0801514
  57.9970091  71.1513754 149.4264132  58.6841131  70.8375484 148.8385148
  57.8418220  72.0555118 149.1531384  69.6631877  78.7162884 146.5785146
  68.8799399  79.2584564 146.6723370  70.3624622  79.2336864 146.9779387
  72.9728527  64.5257514 149.2219351  73.4697227  63.7727476 148.9020421
  72.2015509  64.5621830 148.6562560  80.8258285  70.2297879 150.8637643
  80.8148161  71.1122595 150.4931576  79.9575664  69.8769430 150.6692180
  74.0558308  73.2829201 146.7957775  73.1214587  73.4030663 146.6262479
  74.2334977  72.3801668 146.5317784  69.5563496  66.6674897 148.9491036
  69.1861284  66.1145937 149.6371941  70.0522589  66.0633030 148.3966036
  77.4430859  69.1246520 147.3307809  77.9091312  69.9574512 147.2568111
  77.8938360  68.6591502 148.0353067  75.5107091  75.4690341 144.3293961
  75.7866934  75.3546936 145.2387835  74.6411589  75.0707826 144.2906134
  75.4147522  61.4927107 151.3698710  74.5010602  61.7231334 151.5380917
  75.8440624  61.5765551 152.2212742  75.1853981  69.6816999 153.8698604
  74.5325431  69.9292907 153.2151057  75.5634361  68.8681137 153.5361081
  72.1461155  79.7176692 147.9726774  72.3283549  78.8998348 148.4354527
  72.9694141  79.9344385 147.5351664  72.4803320  78.6444877 145.2341823
  73.0091086  78.1337332 144.6211985  72.7431540  78.3287408 146.0987356
  62.9820413  76.6608747 152.9777156  63.5673850  75.9152435 153.1105061
  62.7845251  76.9712703 153.8613820  65.8359068  79.6959994 147.9939599
  65.1669443  80.1806122 147.5103639  65.6971938  79.9429215 148.9082977
  61.2046645  67.9578449 144.7735531  61.5000086  67.0489127 144.7202585
  60.3034681  67.9366189 144.4516533  64.7340892  66.0334446 150.7563080
  64.0127478  66.6470413 150.6170553  65.5234148  66.5692210 150.6779725
  62.9334487  65.6392547 144.8974856  62.6047193  64.7589926 144.7149962
  63.2873857  65.5840215 145.7851245  72.1814066  77.2747449 149.4069842
  72.0339028  76.3464157 149.5877412  73.0067559  77.2967540 148.9226917
  66.0476310  65.9265517 145.2650334  66.3872382  66.4551438 144.5428942
  66.4948430  66.2645923 146.0408900  68.0344457  64.4240138 143.4643626
  68.7552819  64.8021391 142.9607343  67.4109761  65.1429015 143.5678604
  72.1775580  65.1285287 144.4001959  72.3939194  66.0109925 144.0990787
  71.6969647  64.7371501 143.6707601  66.9174801  68.0871000 150.9772703
  66.7719382  68.4011303 151.8696985  66.4400005  68.7055901 150.4243602
  68.7771184  65.0773548 151.0253593  68.7632753  64.1814642 150.6885891
  69.4943612  65.0844212 151.6591879  75.5743504  78.6161676 145.8496806
  75.7480381  78.0508098 145.0970658  76.0672395  79.4162571 145.6676296
  68.1808080  63.9587929 146.2941163  68.3023991  63.0304575 146.4932051
  67.8910122  63.9726615 145.3819479  71.0499270  61.6442839 149.4307883
  71.0720967  61.7082172 148.4759863  71.4667329  60.8047348 149.6248389
  81.4282895  71.3798099 147.4687106  81.8714041  70.6305424 147.0706229
  80.5509405  71.3708235 147.0860838  76.5618676  77.9328440 142.9493704
  77.2569581  78.5535133 143.1681019  76.9041826  77.0823791 143.2246082
  78.4610099  75.3828146 144.4781035  78.9861423  75.7215418 143.7530355
  78.3732452  74.4475161 144.2944169  70.1450760  81.4500129 148.8376288
  69.7055750  80.9576508 149.5309145  70.8958877  80.9073097 148.5968363
  62.6243099  77.6411670 148.8400916  63.4501119  77.3415442 148.4599560
  62.2737151  76.8719292 149.2890705  67.5924632  76.9938138 150.9098590
  66.9704641  76.3308843 150.6100818  68.2629499  77.0199270 150.2272237
  60.8251704  75.5597996 149.7989850  59.9883612  75.1320171 149.6173851
  60.7975349  75.7530440 150.7360641  67.1538139  75.5442061 144.3857050
  67.3026259  76.2277526 143.7323723  67.9604582  75.5247151 144.9006506
  80.9715759  72.8503337 149.8609553  81.8062651  73.2893141 150.0247113
  81.1074888  72.3741990 149.0417799  64.9090772  71.5707239 145.3918119
  64.6636814  70.6669569 145.5898329  65.0786687  71.5724389 144.4497597
  64.1786420  67.3035596 142.8904281  63.4855664  67.3779951 142.2344317
  63.9338171  66.5395940 143.4125798  70.6533545  78.0390192 141.8568798
  70.0807512  78.6580379 141.4039270  71.2266338  78.5889553 142.3908720
  76.7208934  67.2848832 154.0415346  77.6726357  67.3846929 154.0627571
  76.5512385  66.4927100 154.5513431  74.7423314  64.3704415 154.2274747
  74.1473246  64.6509428 153.5321236  74.4573011  64.8598316 154.9991488
  73.8730804  78.3227342 142.9877380  74.8061477  78.2572904 143.1910255
  73.7854017  79.1583609 142.5291913  76.5018821  77.6393212 139.9481328
  76.4232453  77.3053076 140.8417085  77.3228488  78.1314980 139.9472800
  79.1997012  70.5054952 153.1557646  79.1673332  69.5670952 153.3417330
  79.8097636  70.5838988 152.4223471  71.0380343  69.3751004 139.1984850
  71.9839448  69.2457213 139.2673268  70.6594588  68.6365666 139.6754278
  79.3491501  67.2965995 153.2015929  78.8330549  66.5124452 153.0145858
  80.2331449  66.9684712 153.3662449  77.0102228  61.0407011 149.1611742
  76.8127049  60.7322099 150.0455074  77.6201933  61.7668649 149.2909672
  69.2223260  67.3000981 139.1339735  68.3154716  67.0034094 139.2102449
  69.4999241  67.0030799 138.2674022  60.1401201  68.6207344 149.5838782
  59.8203985  67.7672652 149.2913156  59.5934629  68.8355922 150.3396749
  63.9181108  71.3369785 153.3008288  64.1367118  72.2686893 153.3196322
  64.3306882  70.9777760 154.0863092  70.8385326  61.8437871 145.2883977
  70.0286054  61.4984956 145.6639223  71.5269743  61.5345414 145.8771588
  72.7675874  60.9215917 146.9108273  73.3206913  61.3411371 147.5698296
  73.0045961  59.9951666 146.9531229  67.9922045  64.1587916 139.2751715
  68.8541209  64.4842814 139.5347532  68.1772389  63.3719412 138.7624780
  60.0089461  72.2410256 151.5531903  59.3152932  71.8264209 151.0401858
  60.7562452  72.2830792 150.9565322  76.1454681  63.0316443 146.4186938
  75.5653350  63.6901247 146.0364990  75.8790614  62.2093787 146.0074355
  74.5958248  62.4321500 148.6208258  75.0958026  62.5438035 147.8122577
  75.2393856  62.1282553 149.2609066  61.9226203  72.1728510 149.4297918
  61.8996891  72.2716197 148.4779801  62.2326840  73.0193660 149.7515084
  64.5813581  74.2304665 153.5444533  65.5356835  74.1988607 153.4774464
  64.3826105  73.7695288 154.3594759  74.9279559  65.1916533 145.4743286
  74.0405414  65.4766184 145.2563481  75.3433548  65.0310296 144.6270563
  78.2794095  65.2163054 149.1897625  79.0554486  65.7059506 149.4622242
  77.5542230  65.6421108 149.6469495  80.7166654  65.9290673 150.2471566
  81.3111145  65.6886409 149.5364874  80.7893238  65.2097804 150.8745102
  62.9363810  79.7724284 150.5614731  62.8018278  79.0124685 149.9952729
  62.5195872  80.4965184 150.0943519  74.0722773  74.9561208 139.5691306
  74.7758623  75.1611210 140.1848961  73.3485422  75.5237969 139.8340389
  74.9020583  70.7071069 145.6893576  74.8455784  71.1639620 144.8501208
  75.4548926  69.9461753 145.5116419  78.7125389  66.4960801 146.5143695
  78.4562323  66.0957436 147.3451903  78.0878257  67.2104595 146.3893835
  83.0237727  69.2356874 149.0214987  82.4637285  69.3050063 149.7946549
  82.4181230  69.0597859 148.3014483  66.0932936  80.6693601 150.7733173
  65.9765320  81.6139034 150.6711863  65.2725382  80.3667163 151.1618972
  75.9809470  75.3943737 141.6189766  76.8155074  74.9624935 141.4367241
  75.8193813  75.2225750 142.5466660  75.6355362  71.8975850 142.9846105
  75.5804166  71.7320122 142.0434549  75.0101418  72.6051883 143.1408295
  68.9451488  61.3983959 142.5631424  68.9330158  62.3425799 142.7199694
  69.8374910  61.2154105 142.2690885  68.8741052  80.0752850 150.6499180
  67.9236683  80.0754711 150.5363553  69.1773538  79.3285584 150.1335215
  72.7603607  57.9926736 146.8177360  71.9936003  57.4385222 146.9634043
  73.1714312  58.0648605 147.6791512  76.7825453  88.4736397 143.3504958
  77.5556329  87.9265384 143.2117833  77.1350852  89.3380647 143.5619419
  79.1191731  84.6329063 140.9823407  79.3717252  84.1110585 140.2206870
  78.1816290  84.4695209 141.0850091  78.8388020  86.5357169 143.1847782
  78.7224278  85.8602073 143.8528867  78.9490280  86.0489543 142.3679935
  80.8225048  81.0257216 141.8855820  80.9899450  81.8937453 142.2526291
  80.6322217  81.1884498 140.9617109  80.8014268  83.4814874 142.8702487
  80.6813894  83.9271924 143.7087967  80.1066857  83.8300191 142.3116025
  75.2905844  83.4187858 147.4236663  74.4937007  83.5306552 147.9420159
  75.0631436  83.7574510 146.5577554  84.1502276  85.1239841 142.2769487
  83.6348899  85.8944446 142.5157874  83.8779584  84.4504978 142.9002548
  77.4423326  81.8481284 142.1324718  76.6060638  82.1855971 142.4533993
  77.3028095  81.7130264 141.1951855  79.4176406  76.6918072 146.8403903
  78.7640818  76.3767089 146.2160517  79.3756880  76.0693812 147.5663726
  80.5287611  86.9737367 138.7557195  79.6214673  86.7426620 138.9548344
  81.0258643  86.1774986 138.9431176  72.2764015  84.7955476 147.2596387
  72.0788415  84.2024837 146.5347454  71.7210679  84.4907686 147.9772326
  81.4051932  88.6158706 140.6169263  80.9671362  87.8994564 140.1574901
  82.1462373  88.8434820 140.0554355  74.7710241  84.3219510 144.9437339
  73.8407829  84.2603965 145.1607301  74.8667713  83.7995463 144.1473980
  74.6895790  80.8474323 147.5315581  74.9502607  81.7619656 147.4224741
  75.5112962  80.3798765 147.6812194  85.5263160  87.4743087 140.2101321
  84.9092330  86.7489915 140.1134374  85.0579648  88.2352447 139.8668395
  77.3161706  81.6928512 139.3322625  76.4391172  81.5717312 138.9684872
  77.7919459  80.9014590 139.0801514  72.0440400  83.2870367 144.7735531
  72.3393841  82.3781045 144.7202585  71.1428435  83.2658106 144.4516533
  73.7728241  80.9684464 144.8974856  73.4440947  80.0881843 144.7149962
  74.1267612  80.9132133 145.7851245  76.8870064  81.2557434 145.2650334
  77.2266137  81.7843355 144.5428942  77.3342185  81.5937840 146.0408900
  78.8738211  79.7532056 143.4643626  79.5946574  80.1313309 142.9607343
  78.2503516  80.4720933 143.5678604  83.0169334  80.4577205 144.4001959
  83.2332949  81.3401843 144.0990787  82.5363402  80.0663418 143.6707601
  79.0201835  79.2879846 146.2941163  79.1417746  78.3596492 146.4932051
  78.7303877  79.3018532 145.3819479  75.7484526  86.8999157 145.3918119
  75.5030568  85.9961487 145.5898329  75.9180441  86.9016307 144.4497597
  75.0180174  82.6327514 142.8904281  74.3249419  82.7071869 142.2344317
  74.7731926  81.8687858 143.4125798  81.8774098  84.7042922 139.1984850
  82.8233202  84.5749130 139.2673268  81.4988342  83.9657584 139.6754278
  80.0617015  82.6292899 139.1339735  79.1548470  82.3326011 139.2102449
  80.3392996  82.3322717 138.2674022  81.6779080  77.1729788 145.2883977
  80.8679809  76.8276873 145.6639223  82.3663497  76.8637332 145.8771588
  83.6069629  76.2507835 146.9108273  84.1600667  76.6703288 147.5698296
  83.8439715  75.3243583 146.9531229  78.8315799  79.4879834 139.2751715
  79.6934963  79.8134732 139.5347532  79.0166143  78.7011330 138.7624780
  79.7845242  76.7275877 142.5631424  79.7723912  77.6717717 142.7199694
  80.6768664  76.5446022 142.2690885  83.5997362  73.3218653 146.8177360
  82.8329758  72.7677140 146.9634043  84.0108067  73.3940522 147.6791512
  61.1782318  37.7325547 129.6763130  60.5270298  38.3179628 129.2897144
  61.9726681  38.2631742 129.7358167  57.4404223  30.9807351 127.7068714
  57.6929744  30.4588872 126.9452177  56.5028782  30.8173496 127.8095398
  62.6557583  35.4215979 130.2132114  62.0203416  35.4950606 130.9253019
  62.3254990  36.0109578 129.5351193  56.8833653  42.5996803 133.2437925
  56.8057683  43.5504628 133.3226405  56.2795296  42.2542675 133.9012851
  64.8211827  30.3014634 130.4228128  65.7329683  30.5342021 130.2475825
  64.3121474  30.8851678 129.8603206  67.3070641  36.2194890 135.1686073
  66.6221679  36.5993792 134.6183106  67.3914490  36.8290217 135.9018021
  59.1572022  37.9578956 131.9643465  59.0217697  38.8030491 132.3928312
  59.6981834  38.1598233 131.2009398  62.4714768  31.4718129 129.0014793
  61.9561392  32.2422733 129.2403181  62.1992077  30.7983265 129.6247855
  67.4449042  34.2250483 130.9367967  66.6678485  33.8861643 130.4923129
  68.1240523  34.2303106 130.2622932  58.8500103  33.3215654 125.4802501
  57.9427165  33.0904908 125.6793650  59.3471135  32.5253274 125.6676483
  61.7568182  42.0313161 128.3999188  61.0829881  42.3344858 129.0084145
  62.1434004  42.8342242 128.0504645  60.0288337  33.4228249 130.0026491
  59.1199556  33.1387282 130.0998961  60.0583421  33.8427328 129.1429798
  65.2607604  37.0334839 133.7717659  64.8069931  36.1925749 133.8282849
  64.6301571  37.6696237 134.1092439  63.7040543  38.8711335 134.7067477
  63.9963518  39.4316392 133.9879843  64.2139164  39.1639896 135.4620636
  59.7264425  34.9636993 127.3414570  59.2883854  34.2472852 126.8820207
  60.4674865  35.1913108 126.7799661  67.8437539  33.2394190 133.3990889
  67.7055438  33.4295786 132.4712078  67.4873758  34.0013573 133.8558940
  59.9559397  42.1992834 130.6146267  60.1311153  41.7280877 131.4291889
  59.2692185  42.8258600 130.8427527  63.8475652  33.8221374 126.9346628
  63.2304823  33.0968203 126.8379680  63.3792141  34.5830735 126.5913702
  58.8238124  40.3933089 133.3030452  58.0405646  40.9354769 133.3968677
  59.5230869  40.9107069 133.7024694  64.6713337  37.1460546 131.0539267
  64.9473181  37.0317141 131.9633141  63.8017836  36.7478031 131.0151440
  61.3067401  41.3946897 134.6972081  61.4889796  40.5768553 135.1599833
  62.1300387  41.6114589 134.2596971  61.6409567  40.3215082 131.9587129
  62.1697333  39.8107537 131.3457292  61.9037786  40.0057613 132.8232662
  64.7349750  40.2931881 132.5742112  64.9086628  39.7278303 131.8215965
  65.2278642  41.0932775 132.3921602  70.5889142  33.0568304 134.1932412
  71.0320288  32.3075629 133.7951535  69.7115652  33.0478440 133.8106144
  65.7224923  39.6098645 129.6739011  66.4175827  40.2305338 129.8926325
  66.0648073  38.7593996 129.9491389  67.6216346  37.0598350 131.2026341
  68.1467670  37.3985623 130.4775661  67.5338699  36.1245366 131.0189476
  56.3144386  37.2212266 131.1102357  56.4632506  37.9047731 130.4569030
  57.1210829  37.2017356 131.6251813  59.8139791  39.7160397 128.5814104
  59.2413758  40.3350584 128.1284576  60.3872585  40.2659758 129.1154026
  63.0337051  39.9997547 129.7122687  63.9667724  39.9343108 129.9155562
  62.9460264  40.8353814 129.2537219  65.6625068  39.3163417 126.6726634
  65.5838699  38.9823281 127.5662392  66.4834735  39.8085185 126.6718106
  60.1986590  31.0521209 125.9230157  61.1445695  30.9227418 125.9918575
  59.8200835  30.3135871 126.3999585  58.3829507  28.9771186 125.8585042
  57.4760962  28.6804299 125.9347756  58.6605488  28.6801004 124.9919328
  63.2329020  36.6331413 126.2936612  63.9364870  36.8381415 126.9094268
  62.5091668  37.2008174 126.5585696  65.1415717  37.0713942 128.3435073
  65.9761321  36.6395140 128.1612547  64.9800060  36.8995955 129.2711967
  64.7961609  33.5746055 129.7091412  64.7410413  33.4090326 128.7679856
  64.1707664  34.2822088 129.8653602  73.7699992  47.5883593 138.4390249
  74.4078402  47.4690340 137.7353589  73.6520835  48.5364437 138.4978201
  70.5789698  47.5411021 138.3751774  70.2408210  47.4252086 137.4872309
  71.4479467  47.1402186 138.3552780  66.4376514  49.3946497 134.3648665
  65.8741379  49.3036434 133.5964953  66.3228909  48.5746402 134.8451157
  63.9840946  50.8897689 137.2032885  64.7762238  50.5488514 136.7879185
  64.2237596  50.9992664 138.1235039  72.0176073  53.0617465 129.6763130
  71.3664053  53.6471545 129.2897144  72.8120436  53.5923660 129.7358167
  65.9431700  50.1506602 130.0750264  66.7162576  49.6035589 129.9363140
  66.2957099  51.0150852 130.2864726  67.7816742  51.4782984 143.2817163
  67.4906608  52.3828615 143.1663830  68.4173727  51.5199512 143.9961233
  68.7072949  48.8559833 139.8718523  69.3036522  48.6315855 139.1575486
  68.7647921  48.1144578 140.4743971  68.2797978  46.3099268 127.7068714
  68.5323498  45.7880790 126.9452177  67.3422537  46.1465414 127.8095398
  73.3241261  45.3135047 135.5143457  74.1104350  44.8954470 135.1633874
  73.5879965  46.2181139 135.6825106  73.4951338  50.7507897 130.2132114
  72.8597171  50.8242524 130.9253019  73.1648744  51.3401496 129.5351193
  78.7249688  45.2510280 136.4176436  79.4574860  44.6809497 136.6514265
  77.9689043  44.8631880 136.8582941  67.9994266  48.2127374 129.9093089
  67.8830525  47.5372278 130.5774173  68.1096526  47.7259748 129.0925242
  70.3425807  47.6737521 133.6139778  69.9784015  47.1468142 134.3252700
  71.1992923  47.2835990 133.4406264  69.9831294  42.7027421 128.6101127
  70.1505697  43.5707657 128.9771598  69.7928463  42.8654703 127.6862416
  72.7406628  51.1644400 140.2766957  72.4407351  52.0669439 140.1682764
  72.3957687  50.8976583 141.1288110  66.1919109  47.6158197 136.3103662
  65.2669606  47.4834411 136.5181353  66.4403522  48.3952416 136.8073604
  76.1403771  43.6826940 137.9564394  75.2320649  43.6142349 137.6623155
  76.0891367  44.1598885 138.7846220  69.9620515  45.1585079 129.5947794
  69.8420140  45.6042129 130.4333274  69.2673104  45.5070396 129.0361332
  63.5527920  47.2591470 137.1447451  63.6820301  47.5125949 138.0586862
  62.8725371  47.8519178 136.8252106  67.7227407  57.9288720 133.2437925
  67.6451437  58.8796545 133.3226405  67.1189051  57.5834593 133.9012851
  78.0065418  41.8843379 139.7342268  77.3639798  42.1775912 139.0882063
  77.5020346  41.7696299 140.5395465  75.6605581  45.6306552 130.4228128
  76.5723438  45.8633939 130.2475825  75.1515228  46.2143596 129.8603206
  73.9446349  50.0531180 144.0589420  74.3529705  49.6113590 143.3144053
  73.2223611  49.4783807 144.3123613  74.2675164  50.6132370 137.8141709
  73.6384026  50.7778084 137.1117777  73.8800826  51.0273980 138.5852673
  78.1464396  51.5486808 135.1686073  77.4615434  51.9285709 134.6183106
  78.2308245  52.1582135 135.9018021  75.4015327  49.1946767 141.7681416
  75.6132222  49.8378527 141.0915797  75.3545075  48.3609084 141.3003346
  73.0041556  41.8064588 138.6717989  72.1426035  42.1045841 138.9634726
  73.0303991  42.0234987 137.7399021  69.8203126  50.3506778 135.0791794
  70.2841471  50.6294481 134.2896417  69.5559924  49.4490223 134.8964885
  66.7127207  49.8978260 138.0171557  67.2828564  50.3265528 137.3789042
  67.3035319  49.6160845 138.7155743  68.7572012  46.4729931 131.8881359
  69.4596055  46.9250974 132.3555286  68.4252640  45.8313750 132.5161252
  62.4997346  44.7313483 137.1898493  61.7096400  44.9871012 136.7138604
  62.9908593  45.5461821 137.2950533  76.5161155  52.0718723 139.9403774
  77.3378599  51.6698910 139.6586455  76.5123558  51.9686957 140.8919890
  64.4512091  45.0958063 134.1481970  63.6543254  45.2076757 134.6665465
  64.2237683  45.4344715 133.2822860  70.2817759  51.6202766 142.0964484
  70.3462191  52.0823173 142.9322656  69.5728682  50.9900131 142.2246794
  84.6067148  48.4157471 136.2888745  83.8530857  47.8464869 136.1332750
  84.7414689  48.3820135 137.2359380  69.9965776  53.2870873 131.9643465
  69.8611451  54.1322409 132.3928312  70.5375589  53.4890151 131.2009398
  63.4495174  50.8046311 132.5371390  63.9619694  51.5989562 132.6876954
  64.1017886  50.1072602 132.4704991  65.2590058  53.9212068 134.6194143
  65.4356687  54.8430032 134.4315127  66.0546892  53.6070487 135.0488523
  71.6234253  53.9094440 146.0943807  71.1798107  53.1230818 145.7764711
  72.2851466  54.0973590 145.4287697  66.3821374  55.4390241 140.6204485
  66.9328799  55.3107305 139.8481479  65.5432850  55.7385130 140.2699378
  73.7215491  54.1897240 144.1225208  73.7033966  55.0106121 143.6305477
  74.6435411  54.0651315 144.3475349  61.4144090  49.1334966 133.3130960
  62.2519312  49.5431974 133.0964668  61.5922358  48.1934408 133.2831154
  73.3108523  46.8010046 129.0014793  72.7955146  47.5714651 129.2403181
  73.0385831  46.1275182 129.6247855  70.8955634  41.6459747 134.0600032
  70.0397230  41.2566597 133.8805670  71.3082585  41.7251708 133.1999817
  72.4254780  39.1806090 138.4591591  71.9219576  39.1436225 137.6459397
  72.7185387  40.0898833 138.5188248  78.2842797  49.5542401 130.9367967
  77.5072239  49.2153560 130.4923129  78.9634278  49.5595024 130.2622932
  73.0994826  44.6737138 130.8274574  72.7944961  44.9883288 131.6784718
  74.0525268  44.7518558 130.8701907  71.5441258  50.8327362 132.4767528
  71.0162619  50.0980121 132.1640766  71.0428760  51.6102038 132.2307497
  76.5234104  49.0276382 137.5934575  75.8657778  49.7175644 137.6814703
  77.3274503  49.4172814 137.9368561  66.2759985  41.4947028 134.8374140
  66.8503737  41.2722209 134.1047333  66.8630968  41.5635722 135.5902741
  75.3339562  47.3820755 135.6438516  75.8471444  48.0150747 136.1460226
  75.9840786  46.7821950 135.2781876  66.6029572  43.5251489 128.8570025
  65.7666885  43.8626176 129.1779300  66.4634342  43.3900469 127.9197162
  68.5782653  38.3688277 133.5649209  67.9247065  38.0537294 132.9405824
  68.5363127  37.7464017 134.2909032  69.6893858  48.6507572 125.4802501
  68.7820919  48.4196825 125.6793650  70.1864890  47.8545191 125.6676483
  72.5961937  57.3605079 128.3999188  71.9223635  57.6636776 129.0084145
  72.9827759  58.1634159 128.0504645  71.8120393  44.8570210 137.8896857
  70.8942955  45.0785157 137.7318545  72.2280537  44.9316521 137.0308564
  72.5955441  46.2561626 133.0199537  73.3427260  46.7683023 132.7106659
  72.8647031  45.9345679 133.8803931  70.8682091  48.7520167 130.0026491
  69.9593310  48.4679200 130.0998961  70.8977175  49.1719245 129.1429798
  76.1001359  52.3626756 133.7717659  75.6463686  51.5217666 133.8282849
  75.4695325  52.9988155 134.1092439  75.0434278  43.2918742 135.0018326
  74.3057035  42.7796129 135.3328569  75.2961052  42.8519124 134.1901603
  74.5434298  54.2003253 134.7067477  74.8357272  54.7608310 133.9879843
  75.0532918  54.4931814 135.4620636  75.1445905  36.0694994 135.5960096
  75.4504782  35.2092358 135.3086011  75.8698510  36.6612615 135.3959090
  61.4370262  46.4725681 133.9841694  61.2394661  45.8795042 133.2592760
  60.8816926  46.1677891 134.7017632  69.4166985  46.3648787 136.1036287
  69.4715595  45.4122624 136.0278763  68.6058187  46.5208227 136.5877585
  70.5658179  50.2928910 127.3414570  70.1277609  49.5764769 126.8820207
  71.3068620  50.5205025 126.7799661  67.3559345  44.9825847 133.8626666
  66.5427211  45.2820018 134.2691858  67.8518339  44.5881536 134.5801148
  69.5067923  54.9783604 135.7960930  69.4644102  55.2044450 134.8669462
  70.4230622  54.7446979 135.9446731  78.6831294  48.5686108 133.3990889
  78.5449192  48.7587704 132.4712078  78.3267513  49.3305490 133.8558940
  78.7100673  50.6362635 138.4102160  79.1437180  50.5437924 139.2585214
  79.4232254  50.6120135 137.7722176  67.6233724  51.8546633 135.5922893
  68.4174322  51.3596953 135.3905468  66.9125416  51.3264496 135.2290599
  72.4428568  54.2364729 139.9435261  72.4965591  54.8055665 140.7112977
  71.5743350  54.4066614 139.5789298  63.9316487  45.9989715 131.6682646
  63.0014075  45.9374170 131.8852608  64.0273959  45.4765668 130.8719287
  63.8502036  42.5244528 134.2560887  64.1108854  43.4389861 134.1470048
  64.6719209  42.0568970 134.4057500  79.5716223  50.6786335 140.9435045
  79.7652113  51.5832146 141.1894320  79.4716841  50.2193754 141.7773631
  74.6331332  50.8293078 146.5175926  74.4816838  50.6003630 145.6006010
  74.6236011  51.7863679 146.5307271  71.4016668  48.4024991 141.5022193
  72.3308728  48.5536150 141.3291160  70.9807698  48.4909011 140.6470839
  70.2005000  52.4275655 139.2720730  70.0616086  52.0594439 140.1446668
  69.4119596  52.9423295 139.1004688  70.7953152  57.5284752 130.6146267
  70.9704907  57.0572795 131.4291889  70.1085940  58.1550518 130.8427527
  71.7510215  51.8057258 136.6609568  71.4160048  51.7658028 137.5567218
  71.2514161  51.1401974 136.1879978  74.6869407  49.1513292 126.9346628
  74.0698577  48.4260120 126.8379680  74.2185895  49.9122652 126.5913702
  76.3423538  53.8612200 144.5952408  76.2836084  53.1771421 143.9282991
  76.7443057  54.6031190 144.1433034  65.3614237  60.6774114 137.3886127
  65.6010835  61.3092638 138.0665145  64.5183434  60.3262154 137.6751486
  66.4767953  43.3698716 126.0567932  65.5997419  43.2487517 125.6930179
  66.9525706  42.5784795 125.8046821  76.3440946  51.8251784 142.8266388
  75.4567724  51.4877706 142.9492786  76.9139497  51.0934816 143.0635153
  57.9970093  48.1575876 136.1509439  58.6841132  47.8437606 135.5630454
  57.8418221  49.0617241 135.8776690  69.8742099  56.4853237 139.7927631
  69.8012270  57.2908208 140.3046935  69.4319492  56.6845203 138.9675652
  69.6631879  55.7225007 133.3030452  68.8799400  56.2646687 133.3968677
  70.3624624  56.2398986 133.7024694  72.9728529  41.5319636 135.9464658
  73.4697228  40.7789599 135.6265728  72.2015510  41.5683953 135.3807867
  80.8258286  47.2360002 137.5882949  80.8148162  48.1184717 137.2176882
  79.9575666  46.8831553 137.3937486  72.3340782  56.3840071 141.9485789
  73.0468755  57.0187536 141.8761691  71.8430811  56.4803937 141.1325791
  74.0558309  50.2891323 133.5203081  73.1214588  50.4092786 133.3507785
  74.2334978  49.3863790 133.2563091  69.5563497  43.6737019 135.6736342
  69.1861285  43.1208060 136.3617248  70.0522590  43.0695153 135.1211342
  77.4430861  46.1308643 134.0553115  77.9091313  46.9636634 133.9813418
  77.8938361  45.6653624 134.7598374  67.3852696  54.1334514 142.7691360
  68.0862155  54.7670997 142.9220755  66.9147811  54.4749246 142.0087000
  75.5107092  52.4752464 131.0539267  75.7866936  52.3609059 131.9633141
  74.6411591  52.0769949 131.0151440  75.4147523  38.4989230 138.0944017
  74.5010603  38.7293457 138.2626224  75.8440625  38.5827674 138.9458049
  75.1853982  46.6879122 140.5943911  74.5325432  46.9355029 139.9396363
  75.5634362  45.8743260 140.2606388  72.1461156  56.7238815 134.6972081
  72.3283550  55.9060471 135.1599833  72.9694142  56.9406507 134.2596971
  72.4803321  55.6507000 131.9587129  73.0091088  55.1399455 131.3457292
  72.7431541  55.3349530 132.8232662  62.9820414  53.6670869 139.7022463
  63.5673851  52.9214557 139.8350367  62.7845253  53.9774826 140.5859127
  65.8359069  56.7022117 134.7184905  65.1669445  57.1868244 134.2348945
  65.6971939  56.9491337 135.6328284  69.9764338  58.7365860 141.3167564
  70.5282646  58.8997482 142.0816649  70.3170531  59.3270298 140.6447589
  74.8275212  53.5627118 147.1716218  75.3715116  54.1757076 146.6771173
  74.2462057  54.1206696 147.6883231  61.2046646  44.9640572 131.4980838
  61.5000087  44.0551250 131.4447891  60.3034682  44.9428311 131.1761840
  73.1132725  56.6847836 138.3031246  72.9883865  55.8837576 137.7942191
  73.7711816  57.1794029 137.8145216  64.7340893  43.0396568 137.4808386
  64.0127479  43.6532536 137.3415859  65.5234149  43.5754333 137.4025032
  75.1767634  54.4856856 139.9310796  74.2297969  54.3662207 139.8589123
  75.5250407  53.5979354 140.0137057  62.9334488  42.6454669 131.6220163
  62.6047194  41.7652048 131.4395269  63.2873859  42.5902338 132.5096552
  72.1814067  54.2809572 136.1315148  72.0339029  53.3526279 136.3122718
  73.0067560  54.3029663 135.6472223  66.0476311  42.9327639 131.9895640
  66.3872384  43.4613560 131.2674249  66.4948432  43.2708045 132.7654207
  75.7848189  55.1038131 137.2180021  76.7094736  54.8980992 137.0804472
  75.6163492  54.8554532 138.1269362  68.0344458  41.4302261 130.1888933
  68.7552821  41.8083514 129.6852650  67.4109762  42.1491138 130.2923911
  72.1775581  42.1347410 131.1247265  72.3939196  43.0172048 130.8236094
  71.6969648  41.7433623 130.3952907  66.9174803  45.0933123 137.7018010
  66.7719383  45.4073426 138.5942292  66.4400006  45.7118023 137.1488909
  68.7771185  42.0835671 137.7498900  68.7632754  41.1876764 137.4131198
  69.4943614  42.0906335 138.3837186  75.5743505  55.6223798 132.5742112
  75.7480382  55.0570221 131.8215965  76.0672396  56.4224693 132.3921602
  68.1808081  40.9650051 133.0186470  68.3023993  40.0366697 133.2177357
  67.8910124  40.9788737 132.1064785  71.0499272  38.6504962 136.1553190
  71.0720969  38.7144295 135.2005169  71.4667331  37.8109470 136.3493696
  81.4282896  48.3860221 134.1932412  81.8714042  47.6367546 133.7951535
  80.5509406  48.3770358 133.8106144  76.5618677  54.9390563 129.6739011
  77.2569582  55.5597255 129.8926325  76.9041827  54.0885914 129.9491389
  78.4610100  52.3890268 131.2026341  78.9861425  52.7277541 130.4775661
  78.3732453  51.4537283 131.0189476  70.1230149  56.3024342 143.3316218
  70.4317276  56.0573489 144.2038918  70.9205631  56.5070980 142.8435088
  70.1450761  58.4562251 135.5621595  69.7055752  57.9638630 136.2554451
  70.8958878  57.9135219 135.3213670  62.6243100  54.6473792 135.5646223
  63.4501120  54.3477564 135.1844866  62.2737152  53.8781415 136.0136011
  67.5924633  54.0000261 137.6343896  66.9704643  53.3370966 137.3346124
  68.2629500  54.0261392 136.9517544  60.8251705  52.5660119 136.5235156
  59.9883614  52.1382293 136.3419158  60.7975351  52.7592562 137.4605948
  78.1504007  53.0223172 146.5077539  77.3599550  53.0047311 145.9682039
  77.9137361  53.5611466 147.2626576  78.2701882  49.8715638 143.8210268
  78.3199887  49.7065646 144.7625791  78.1615805  49.0042897 143.4308149
  67.1538140  52.5504184 131.1102357  67.3026261  53.2339648 130.4569030
  67.9604584  52.5309274 131.6251813  79.7720078  52.2912580 144.0652290
  79.4804887  52.6542560 144.9015750  79.1592210  51.5779588 143.8865622
  80.9715761  49.8565459 136.5854860  81.8062652  50.2955264 136.7492420
  81.1074890  49.3804113 135.7663106  78.0207267  47.4145194 142.5332347
  78.4961388  47.6072841 141.7251199  77.0972832  47.4704380 142.2875731
  64.9090773  48.5769362 132.1163426  64.6636815  47.6731692 132.3143636
  65.0786688  48.5786512 131.1742904  64.1786421  44.3097719 129.6149587
  63.4855666  44.3842074 128.9589623  63.9338173  43.5458063 130.1371104
  70.6533546  55.0452314 128.5814104  70.0807513  55.6642501 128.1284576
  71.2266339  55.5951676 129.1154026  76.7208936  44.2910954 140.7660653
  77.6726359  44.3909052 140.7872877  76.5512386  43.4989223 141.2758737
  74.7423315  41.3766538 140.9520054  74.1473247  41.6571550 140.2566543
  74.4573012  41.8660439 141.7236795  73.8730806  55.3289464 129.7122687
  74.8061479  55.2635026 129.9155562  73.7854018  56.1645731 129.2537219
  76.5018822  54.6455335 126.6726634  76.4232454  54.3115198 127.5662392
  77.3228489  55.1377103 126.6718106  79.1997013  47.5117074 139.8802953
  79.1673334  46.5733075 140.0662637  79.8097637  47.5901111 139.1468778
  71.0380344  46.3813127 125.9230157  71.9839449  46.2519335 125.9918575
  70.6594589  45.6427789 126.3999585  79.3491502  44.3028118 139.9261236
  78.8330551  43.5186574 139.7391165  80.2331450  43.9746834 140.0907755
  77.0102229  38.0469133 135.8857049  76.8127050  37.7384221 136.7700381
  77.6201934  38.7730772 136.0154978  85.0173563  48.5733081 139.0208990
  85.7476952  48.3118369 139.5816693  84.4080509  47.8361803 139.0611058
  83.0988860  46.7140944 139.6183441  82.3722024  46.5796908 139.0099932
  82.6836147  47.0217772 140.4240159  69.2223261  44.3063103 125.8585042
  68.3154717  44.0096216 125.9347756  69.4999242  44.0092922 124.9919328
  60.1401202  45.6269467 136.3084088  59.8203986  44.7734775 136.0158462
  59.5934630  45.8418045 137.0642056  63.9181109  48.3431908 140.0253595
  64.1367119  49.2749016 140.0441629  64.3306883  47.9839882 140.8108399
  70.8385327  38.8499993 132.0129283  70.0286056  38.5047078 132.3884529
  71.5269744  38.5407537 132.6016895  72.7675875  37.9278040 133.6353580
  73.3206914  38.3473493 134.2943603  73.0045962  37.0013788 133.6776536
  67.9922046  41.1650039 125.9997021  68.8541210  41.4904937 126.2592839
  68.1772390  40.3781535 125.4870087  60.0089462  49.2472378 138.2777210
  59.3152933  48.8326331 137.7647164  60.7562453  49.2892915 137.6810629
  76.1454683  40.0378565 133.1432244  75.5653352  40.6963369 132.7610297
  75.8790615  39.2155910 132.7319662  74.5958249  39.4383623 135.3453565
  75.0958027  39.5500157 134.5367883  75.2393857  39.1344676 135.9854373
  61.9226204  49.1790632 136.1543225  61.8996892  49.2778319 135.2025108
  62.2326841  50.0255783 136.4760391  64.5813582  51.2366787 140.2689839
  65.5356836  51.2050730 140.2019771  64.3826106  50.7757411 141.0840065
  74.9279561  42.1978656 132.1988592  74.0405416  42.4828306 131.9808787
  75.3433550  42.0372419 131.3515869  78.2794097  42.2225177 135.9142932
  79.0554487  42.7121629 136.1867549  77.5542231  42.6483231 136.3714801
  80.7166655  42.9352796 136.9716872  81.3111146  42.6948532 136.2610181
  80.7893239  42.2159926 137.5990409  62.9363811  56.7786407 137.2860037
  62.8018279  56.0186808 136.7198035  62.5195873  57.5027307 136.8188826
  74.0722774  51.9623330 126.2936612  74.7758624  52.1673333 126.9094268
  73.3485423  52.5300092 126.5585696  74.9020584  47.7133191 132.4138883
  74.8455786  48.1701743 131.5746515  75.4548927  46.9523876 132.2361725
  78.7125390  43.5022923 133.2389002  78.4562324  43.1019559 134.0697210
  78.0878258  44.2166717 133.1139141  83.0237728  46.2418997 135.7460294
  82.4637286  46.3112186 136.5191856  82.4181231  46.0659981 135.0259790
  66.0932937  57.6755724 137.4978480  65.9765321  58.6201156 137.3957170
  65.2725383  57.3729285 137.8864279  75.9809471  52.4005859 128.3435073
  76.8155075  51.9687058 128.1612547  75.8193814  52.2287873 129.2711967
  75.6355364  48.9037973 129.7091412  75.5804167  48.7382244 128.7679856
  75.0101419  49.6114006 129.8653602  68.9451489  38.4046082 129.2876730
  68.9330159  39.3487922 129.4445001  69.8374911  38.2216227 128.9936191
  67.1187451  58.3283986 140.7134408  68.0214698  58.3607596 141.0300903
  66.8924821  57.3984437 140.7280744  68.8741053  57.0814972 137.3744487
  67.9236684  57.0816834 137.2608859  69.1773539  56.3347707 136.8580521
  72.7603609  34.9988858 133.5422667  71.9936004  34.4447345 133.6879349
  73.1714314  35.0710727 134.4036819  84.6093747  62.9175511 138.4390249
  85.2472157  62.7982258 137.7353589  84.4914589  63.8656354 138.4978201
  81.4183453  62.8702939 138.3751774  81.0801964  62.7544003 137.4872309
  82.2873221  62.4694104 138.3552780  77.2770269  64.7238415 134.3648665
  76.7135134  64.6328352 133.5964953  77.1622664  63.9038319 134.8451157
  81.9003236  64.0237790 144.3337979  81.8891877  63.6290589 143.4618483
  82.0623875  63.2903863 144.9271751  74.8234700  66.2189607 137.2032885
  75.6155992  65.8780431 136.7879185  75.0631351  66.3284582 138.1235039
  82.8569827  68.3909383 129.6763130  82.2057807  68.9763463 129.2897144
  83.6514190  68.9215578 129.7358167  76.7825454  65.4798520 130.0750264
  77.5556330  64.9327507 129.9363140  77.1350853  66.3442769 130.2864726
  78.6210497  66.8074902 143.2817163  78.3300363  67.7120533 143.1663830
  79.2567481  66.8491430 143.9961233  79.5466704  64.1851751 139.8718523
  80.1430276  63.9607773 139.1575486  79.6041675  63.4436496 140.4743971
  79.1191732  61.6391186 127.7068714  79.3717253  61.1172707 126.9452177
  78.1816291  61.4757331 127.8095398  84.1635015  60.6426964 135.5143457
  84.9498104  60.2246388 135.1633874  84.4273719  61.5473057 135.6825106
  84.3345092  66.0799815 130.2132114  83.6990925  66.1534441 130.9253019
  84.0042499  66.6693414 129.5351193  89.5643442  60.5802198 136.4176436
  90.2968614  60.0101414 136.6514265  88.8082798  60.1923798 136.8582941
  78.8388021  63.5419292 129.9093089  78.7224279  62.8664195 130.5774173
  78.9490281  63.0551666 129.0925242  81.1819562  63.0029439 133.6139778
  80.8177769  62.4760060 134.3252700  82.0386678  62.6127908 133.4406264
  87.0868863  54.2923772 140.8771044  86.7552187  55.1619183 140.6532259
  86.4914476  53.9760056 141.5565075  80.8225049  58.0319339 128.6101127
  80.9899451  58.8999575 128.9771598  80.6322218  58.1946620 127.6862416
  83.5800382  66.4936318 140.2766957  83.2801105  67.3961356 140.1682764
  83.2351442  66.2268501 141.1288110  77.0312864  62.9450115 136.3103662
  76.1063360  62.8126329 136.5181353  77.2797277  63.7244334 136.8073604
  86.9797526  59.0118858 137.9564394  86.0714403  58.9434266 137.6623155
  86.9285122  59.4890803 138.7846220  80.8014270  60.4876996 129.5947794
  80.6813895  60.9334047 130.4333274  80.1066858  60.8362314 129.0361332
  74.3921675  62.5883388 137.1447451  74.5214056  62.8417867 138.0586862
  73.7119126  63.1811096 136.8252106  78.5621162  73.2580638 133.2437925
  78.4845192  74.2088463 133.3226405  77.9582805  72.9126511 133.9012851
  81.0538392  60.4308503 145.8999292  80.2771726  60.9902424 145.8902156
  81.6928955  60.9165286 146.4214162  88.8459172  57.2135296 139.7342268
  88.2033552  57.5067829 139.0882063  88.3414101  57.0988217 140.5395465
  86.4999336  60.9598469 130.4228128  87.4117192  61.1925856 130.2475825
  85.9908983  61.5435514 129.8603206  79.3084764  63.2393957 145.4617259
  80.0499448  63.7779001 145.1852082  78.6021749  63.8660246 145.6188811
  84.7840104  65.3823097 144.0589420  85.1923460  64.9405508 143.3144053
  84.0617365  64.8075725 144.3123613  81.1371174  60.3195704 141.4322977
  81.9832369  60.7435118 141.5757626  81.0769811  59.6629328 142.1261540
  85.1068918  65.9424288 137.8141709  84.4777781  66.1070002 137.1117777
  84.7194580  66.3565897 138.5852673  88.9858150  66.8778726 135.1686073
  88.3009188  67.2577627 134.6183106  89.0701999  67.4874052 135.9018021
  84.2870619  57.9800072 143.0904151  84.0431551  58.7342133 142.5538427
  84.5630549  58.3585420 143.9251398  86.2409082  64.5238685 141.7681416
  86.4525977  65.1670445 141.0915797  86.1938830  63.6901001 141.3003346
  83.8435311  57.1356505 138.6717989  82.9819790  57.4337759 138.9634726
  83.8697745  57.3526904 137.7399021  80.6596880  65.6798696 135.0791794
  81.1235226  65.9586399 134.2896417  80.3953678  64.7782141 134.8964885
  77.5520961  65.2270178 138.0171557  78.1222318  65.6557446 137.3789042
  78.1429073  64.9452762 138.7155743  79.5965766  61.8021848 131.8881359
  80.2989809  62.2542892 132.3555286  79.2646395  61.1605667 132.5161252
  78.0446128  60.3933605 146.2632569  77.4144788  61.0749886 146.4967966
  77.9382216  60.2816687 145.3185707  73.3391100  60.0605401 137.1898493
  72.5490154  60.3162930 136.7138604  73.8302347  60.8753739 137.2950533
  87.3554910  67.4010640 139.9403774  88.1772353  66.9990827 139.6586455
  87.3517313  67.2978874 140.8919890  75.2905845  60.4249980 134.1481970
  74.4937009  60.5368675 134.6665465  75.0631438  60.7636632 133.2822860
  81.1211513  66.9494683 142.0964484  81.1855946  67.4115091 142.9322656
  80.4122437  66.3192048 142.2246794  71.6228803  60.3135891 139.6213484
  71.8736841  61.1982901 139.8871060  72.1588351  60.1340493 138.8488576
  95.4460903  63.7449389 136.2888745  94.6924611  63.1756787 136.1332750
  95.5808444  63.7112053 137.2359380  80.8359531  68.6162791 131.9643465
  80.7005206  69.4614327 132.3928312  81.3769343  68.8182069 131.2009398
  77.3226870  54.6954371 148.6257820  76.9293816  54.1420569 149.3005464
  78.1393011  55.0064949 149.0164337  74.2888928  66.1338229 132.5371390
  74.8013449  66.9281479 132.6876954  74.9411641  65.4364519 132.4704991
  76.0983813  69.2503985 134.6194143  76.2750441  70.1721950 134.4315127
  76.8940646  68.9362404 135.0488523  80.2394831  56.1112250 146.2178076
  80.9804545  56.7119403 146.1382539  80.4712754  55.3689888 145.6596119
  75.3836169  61.2968617 144.4956306  75.2689685  60.3953874 144.7963405
  74.5280687  61.5432314 144.1441123  82.4628007  69.2386357 146.0943807
  82.0191861  68.4522736 145.7764711  83.1245221  69.4265508 145.4287697
  77.2215128  70.7682159 140.6204485  77.7722553  70.6399222 139.8481479
  76.3826604  71.0677048 140.2699378  84.5609245  69.5189157 144.1225208
  84.5427721  70.3398038 143.6305477  85.4829165  69.3943233 144.3475349
  81.0182299  67.0333287 144.9648716  81.5510636  66.2721575 144.7348024
  80.4896380  66.7406939 145.7072871  84.1851994  52.1393353 140.4942358
  83.8416264  53.0294995 140.4181469  84.5530957  51.9495010 139.6311943
  72.2537845  64.4626883 133.3130960  73.0913067  64.8723892 133.0964668
  72.4316113  63.5226325 133.2831154  84.1502277  62.1301964 129.0014793
  83.6348900  62.9006569 129.2403181  83.8779585  61.4567100 129.6247855
  81.7349388  56.9751665 134.0600032  80.8790984  56.5858515 133.8805670
  82.1476340  57.0543626 133.1999817  83.2648535  54.5098008 138.4591591
  82.7613330  54.4728143 137.6459397  83.5579142  55.4190751 138.5188248
  79.5091421  54.5936738 137.4657773  80.3744417  54.3979546 137.1063662
  79.5768930  54.3647089 138.3927130  89.1236551  64.8834319 130.9367967
  88.3465994  64.5445478 130.4923129  89.8028032  64.8886942 130.2622932
  83.9388580  60.0029056 130.8274574  83.6338716  60.3175205 131.6784718
  84.8919022  60.0810476 130.8701907  82.3835012  66.1619279 132.4767528
  81.8556374  65.4272039 132.1640766  81.8822515  66.9393956 132.2307497
  87.3627858  64.3568300 137.5934575  86.7051533  65.0467561 137.6814703
  88.1668257  64.7464732 137.9368561  77.1153740  56.8238946 134.8374140
  77.6897492  56.6014127 134.1047333  77.7024722  56.8927640 135.5902741
  86.1733317  62.7112673 135.6438516  86.6865199  63.3442664 136.1460226
  86.8234541  62.1113868 135.2781876  77.4423327  58.8543407 128.8570025
  76.6060639  59.1918093 129.1779300  77.3028096  58.7192386 127.9197162
  79.4176407  53.6980195 133.5649209  78.7640820  53.3829212 132.9405824
  79.3756882  53.0755935 134.2909032  80.5287612  63.9799490 125.4802501
  79.6214674  63.7488743 125.6793650  81.0258644  63.1837109 125.6676483
  83.4355691  72.6896997 128.3999188  82.7617390  72.9928694 129.0084145
  83.8221513  73.4926077 128.0504645  82.6514148  60.1862128 137.8896857
  81.7336709  60.4077075 137.7318545  83.0674291  60.2608439 137.0308564
  83.4349196  61.5853544 133.0199537  84.1821014  62.0974941 132.7106659
  83.7040785  61.2637596 133.8803931  81.7075846  64.0812084 130.0026491
  80.7987065  63.7971117 130.0998961  81.7370929  64.5011163 129.1429798
  86.9395113  67.6918674 133.7717659  86.4857440  66.8509584 133.8282849
  86.3089080  68.3280072 134.1092439  85.8828033  58.6210660 135.0018326
  85.1450789  58.1088046 135.3328569  86.1354806  58.1811042 134.1901603
  85.3828052  69.5295171 134.7067477  85.6751027  70.0900228 133.9879843
  85.8926673  69.8223732 135.4620636  85.9839660  51.3986912 135.5960096
  86.2898537  50.5384275 135.3086011  86.7092265  51.9904532 135.3959090
  72.2764016  61.8017599 133.9841694  72.0788416  61.2086959 133.2592760
  71.7210680  61.4969809 134.7017632  80.2560740  61.6940705 136.1036287
  80.3109350  60.7414541 136.0278763  79.4451942  61.8500144 136.5877585
  81.4051933  65.6220828 127.3414570  80.9671363  64.9056687 126.8820207
  82.1462374  65.8496943 126.7799661  78.1953100  60.3117765 133.8626666
  77.3820965  60.6111935 134.2691858  78.6912094  59.9173454 134.5801148
  80.3461678  70.3075522 135.7960930  80.3037856  70.5336368 134.8669462
  81.2624376  70.0738896 135.9446731  83.7927311  60.7759589 142.6941560
  84.1476699  61.0031062 143.5536025  84.4399443  61.1077966 142.0718815
  89.5225048  63.8978025 133.3990889  89.3842947  64.0879621 132.4712078
  89.1661267  64.6597408 133.8558940  77.6867174  57.8836120 139.4787901
  78.3266554  57.7424879 138.7810864  76.8544705  57.5970634 139.1026503
  89.5494428  65.9654552 138.4102160  89.9830935  65.8729841 139.2585214
  90.2626009  65.9412053 137.7722176  78.4627478  67.1838551 135.5922893
  79.2568077  66.6888871 135.3905468  77.7519171  66.6556414 135.2290599
  83.2822323  69.5656646 139.9435261  83.3359345  70.1347583 140.7112977
  82.4137104  69.7358531 139.5789298  74.7710242  61.3281633 131.6682646
  73.8407830  61.2666088 131.8852608  74.8667714  60.8057585 130.8719287
  74.6895791  57.8536445 134.2560887  74.9502608  58.7681779 134.1470048
  75.5112963  57.3860888 134.4057500  76.1620716  59.2674203 141.4259712
  76.8343770  59.0591565 140.7772361  75.3350503  59.0696289 140.9864944
  90.4109977  66.0078253 140.9435045  90.6045868  66.9124063 141.1894320
  90.3110596  65.5485672 141.7773631  82.0646288  55.8936143 143.4425373
  81.4174203  56.5926093 143.3489849  82.8347304  56.3272287 143.8101621
  85.4725086  66.1584996 146.5175926  85.3210593  65.9295547 145.6006010
  85.4629766  67.1155597 146.5307271  82.2410423  63.7316908 141.5022193
  83.1702483  63.8828068 141.3291160  81.8201453  63.8200929 140.6470839
  81.0398754  67.7567573 139.2720730  80.9009840  67.3886357 140.1446668
  80.2513351  68.2715212 139.1004688  81.6346906  72.8576669 130.6146267
  81.8098662  72.3864712 131.4291889  80.9479694  73.4842435 130.8427527
  82.5903969  67.1349175 136.6609568  82.2553802  67.0949945 137.5567218
  82.0907915  66.4693891 136.1879978  76.5648213  62.5416805 142.1862149
  76.4268011  61.8097044 142.7873688  77.4753137  62.4525706 141.9046337
  85.5263161  64.4805210 126.9346628  84.9092332  63.7552038 126.8379680
  85.0579650  65.2414570 126.5913702  79.1930514  62.2536765 141.6745829
  79.9030133  61.6129957 141.6332447  79.1499822  62.5049660 142.5972010
  87.1817293  69.1904118 144.5952408  87.1229839  68.5063338 143.9282991
  87.5836811  69.9323108 144.1433034  77.9059448  59.2401983 143.4941468
  77.3696805  58.7892721 144.1463065  77.3176157  59.3747892 142.7511933
  76.2007992  76.0066032 137.3886127  76.4404590  76.6384556 138.0665145
  75.3577188  75.6554072 137.6751486  77.3161707  58.6990634 126.0567932
  76.4391173  58.5779435 125.6930179  77.7919460  57.9076712 125.8046821
  87.1834700  67.1543702 142.8266388  86.2961479  66.8169624 142.9492786
  87.7533251  66.4226733 143.0635153  68.8363847  63.4867794 136.1509439
  69.5234887  63.1729524 135.5630454  68.6811976  64.3909158 135.8776690
  73.6398569  58.3757990 140.5794463  73.5556758  57.7683660 139.8444873
  72.8181276  58.8667009 140.5803959  80.7135853  71.8145154 139.7927631
  80.6406025  72.6200126 140.3046935  80.2713247  72.0137120 138.9675652
  80.5025633  71.0516924 133.3030452  79.7193155  71.5938605 133.3968677
  81.2018378  71.5690904 133.7024694  83.8122283  56.8611554 135.9464658
  84.3090983  56.1081516 135.6265728  83.0409265  56.8975871 135.3807867
  91.6652041  62.5651919 137.5882949  91.6541917  63.4476635 137.2176882
  90.7969420  62.2123470 137.3937486  83.1734537  71.7131988 141.9485789
  83.8862509  72.3479453 141.8761691  82.6824566  71.8095854 141.1325791
  84.8952064  65.6183241 133.5203081  83.9608343  65.7384704 133.3507785
  85.0728732  64.7155708 133.2563091  80.3957252  59.0028937 135.6736342
  80.0255039  58.4499977 136.3617248  80.8916344  58.3987070 135.1211342
  88.2824615  61.4600560 134.0553115  88.7485067  62.2928552 133.9813418
  88.7332116  60.9945542 134.7598374  78.2246450  69.4626432 142.7691360
  78.9255910  70.0962915 142.9220755  77.7541565  69.8041163 142.0087000
  86.3500846  67.8044382 131.0539267  86.6260690  67.6900976 131.9633141
  85.4805345  67.4061867 131.0151440  86.2541278  53.8281147 138.0944017
  85.3404358  54.0585374 138.2626224  86.6834379  53.9119591 138.9458049
  86.0247736  62.0171039 140.5943911  85.3719187  62.2646947 139.9396363
  86.4028116  61.2035178 140.2606388  82.9854910  72.0530733 134.6972081
  83.1677305  71.2352388 135.1599833  83.8087896  72.2698425 134.2596971
  83.3197076  70.9798918 131.9587129  83.8484842  70.4691372 131.3457292
  83.5825295  70.6641448 132.8232662  82.0735309  62.7590850 147.0809948
  81.3975946  62.6584980 147.7512323  82.8962943  62.6030064 147.5445945
  73.8214169  68.9962787 139.7022463  74.4067605  68.2506475 139.8350367
  73.6239007  69.3066744 140.5859127  76.6752824  72.0314034 134.7184905
  76.0063199  72.5160162 134.2348945  76.5365693  72.2783255 135.6328284
  68.4131823  61.5668387 138.4226906  68.4515923  61.0331978 139.2164024
  67.9072116  61.0403593 137.8037883  80.8158092  74.0657778 141.3167564
  81.3676400  74.2289399 142.0816649  81.1564286  74.6562216 140.6447589
  75.7922586  56.4132928 141.9189448  75.8563912  57.2747759 141.5066846
  75.7289706  55.8006929 141.1861807  75.2674858  58.4856060 145.5662483
  75.8946897  58.1033138 146.1800007  74.4102777  58.2670262 145.9318175
  85.6668967  68.8919035 147.1716218  86.2108871  69.5048994 146.6771173
  85.0855812  69.4498614 147.6883231  72.0440401  60.2932489 131.4980838
  72.3393842  59.3843168 131.4447891  71.1428437  60.2720229 131.1761840
  83.9526480  72.0139753 138.3031246  83.8277619  71.2129493 137.7942191
  84.6105571  72.5085947 137.8145216  75.5734648  58.3688486 137.4808386
  74.8521234  58.9824454 137.3415859  76.3627904  58.9046251 137.4025032
  86.0161388  69.8148774 139.9310796  85.0691724  69.6954125 139.8589123
  86.3644161  68.9271272 140.0137057  78.3760961  55.7042912 143.7549038
  78.8995363  55.9505209 144.5175347  78.1573295  56.5362947 143.3352175
  73.7728242  57.9746587 131.6220163  73.4440949  57.0943966 131.4395269
  74.1267613  57.9194256 132.5096552  83.0207821  69.6101490 136.1315148
  82.8732784  68.6818197 136.3122718  83.8461315  69.6321580 135.6472223
  76.8870066  58.2619557 131.9895640  77.2266138  58.7905478 131.2674249
  77.3342186  58.5999963 132.7654207  86.6241943  70.4330048 137.2180021
  87.5488491  70.2272910 137.0804472  86.4557247  70.1846450 138.1269362
  79.5813506  56.6456608 141.4398708  79.2410327  55.8464421 141.8419388
  78.8752513  56.9458318 140.8675542  80.2329978  53.7305920 139.8926031
  81.0556048  53.2566398 139.7704922  80.4768042  54.5096404 140.3924718
  78.8738213  56.7594178 130.1888933  79.5946575  57.1375431 129.6852650
  78.2503517  57.4783055 130.2923911  83.0169336  57.4639327 131.1247265
  83.2332950  58.3463965 130.8236094  82.5363403  57.0725541 130.3952907
  77.7568557  60.4225041 137.7018010  77.6113138  60.7365344 138.5942292
  77.2793761  61.0409941 137.1488909  79.6164940  57.4127589 137.7498900
  79.6026509  56.5168682 137.4131198  80.3337368  57.4198252 138.3837186
  81.4691071  57.8464929 139.7952027  81.2108848  58.7681999 139.7936357
  80.9376111  57.4495363 140.4852491  86.4137259  70.9515716 132.5742112
  86.5874137  70.3862138 131.8215965  86.9066151  71.7516611 132.3921602
  72.2314219  62.9630385 140.6405671  71.6867687  63.7390193 140.7725946
  73.1093569  63.3101189 140.4824793  79.0201836  56.2941969 133.0186470
  79.1417747  55.3658615 133.2177357  78.7303878  56.3080655 132.1064785
  81.8893026  53.9796879 136.1553190  81.9114723  54.0436212 135.2005169
  82.3061085  53.1401388 136.3493696  92.2676651  63.7152139 134.1932412
  92.7107797  62.9659464 133.7951535  91.3903161  63.7062275 133.8106144
  87.4012432  70.2682480 129.6739011  88.0963336  70.8889173 129.8926325
  87.7435582  69.4177832 129.9491389  73.0180241  62.0900281 143.5335828
  72.2761977  62.2382917 144.1200459  72.6972985  62.3508547 142.6702578
  89.3003855  67.7182186 131.2026341  89.8255179  68.0569459 130.4775661
  89.2126208  66.7829201 131.0189476  80.9623904  71.6316259 143.3316218
  81.2711030  71.3865406 144.2038918  81.7599386  71.8362898 142.8435088
  80.9844516  73.7854169 135.5621595  80.5449506  73.2930548 136.2554451
  81.7352633  73.2427137 135.3213670  73.4636855  69.9765710 135.5646223
  74.2894875  69.6769482 135.1844866  73.1130907  69.2073332 136.0136011
  78.4318388  69.3292178 137.6343896  77.8098397  68.6662883 137.3346124
  79.1023255  69.3553310 136.9517544  71.6645460  67.8952036 136.5235156
  70.8277368  67.4674211 136.3419158  71.6369105  68.0884480 137.4605948
  78.5042915  57.8073966 147.2276402  78.5531071  58.6836089 146.8454172
  79.0465430  57.2651359 146.6548046  88.9897761  68.3515089 146.5077539
  88.1993305  68.3339228 145.9682039  88.7531116  68.8903383 147.2626576
  89.1095636  65.2007556 143.8210268  89.1593641  65.0357563 144.7625791
  89.0009559  64.3334815 143.4308149  77.9931895  67.8796102 131.1102357
  78.1420015  68.5631566 130.4569030  78.7998338  67.8601192 131.6251813
  86.3999398  61.1838484 145.1369575  87.3009261  61.0444949 144.8453572
  86.4747373  61.3492939 146.0767752  80.7342204  58.5605339 143.9822761
  79.8645513  58.8538905 143.7105350  80.9701684  59.1445784 144.7030025
  90.6113833  67.6204497 144.0652290  90.3198641  67.9834478 144.9015750
  89.9985964  66.9071506 143.8865622  91.8109515  65.1857377 136.5854860
  92.6456407  65.6247181 136.7492420  91.9468644  64.7096030 135.7663106
  88.8601021  62.7437112 142.5332347  89.3355143  62.9364758 141.7251199
  87.9366587  62.7996298 142.2875731  75.7484528  63.9061279 132.1163426
  75.5030570  63.0023609 132.3143636  75.9180442  63.9078430 131.1742904
  83.4381238  54.7784956 141.4988181  83.9563182  55.5145982 141.1734670
  83.0836370  55.0848949 142.3334941  75.0180175  59.6389637 129.6149587
  74.3249420  59.7133992 128.9589623  74.7731927  58.8749980 130.1371104
  83.6893832  51.1985238 137.0189078  83.9695586  50.5308427 137.6449505
  84.4744439  51.3914334 136.5063742  81.4927300  70.3744232 128.5814104
  80.9201267  70.9934419 128.1284576  82.0660094  70.9243594 129.1154026
  87.5602690  59.6202872 140.7660653  88.5120113  59.7200970 140.7872877
  87.3906141  58.8281141 141.2758737  85.5817070  56.7058455 140.9520054
  84.9867002  56.9863468 140.2566543  85.2966766  57.1952356 141.7236795
  84.7124560  70.6581382 129.7122687  85.6455233  70.5926944 129.9155562
  84.6247773  71.4937649 129.2537219  87.3412577  69.9747252 126.6726634
  87.2626208  69.6407116 127.5662392  88.1622244  70.4669020 126.6718106
  90.0390768  62.8408992 139.8802953  90.0067088  61.9024993 140.0662637
  90.6491392  62.9193028 139.1468778  81.8774099  61.7105045 125.9230157
  82.8233204  61.5811253 125.9918575  81.4988344  60.9719707 126.3999585
  90.1885256  59.6320035 139.9261236  89.6724305  58.8478492 139.7391165
  91.0725205  59.3038752 140.0907755  87.8495983  53.3761051 135.8857049
  87.6520804  53.0676139 136.7700381  88.4595689  54.1022690 136.0154978
  95.8567318  63.9024999 139.0208990  96.5870706  63.6410287 139.5816693
  95.2474263  63.1653721 139.0611058  93.9382615  62.0432861 139.6183441
  93.2115778  61.9088826 139.0099932  93.5229902  62.3509690 140.4240159
  81.7612791  65.7622791 147.3830814  82.6815801  65.9401390 147.5770860
  81.7262374  64.8178836 147.2310513  80.0617016  59.6355021 125.8585042
  79.1548471  59.3388134 125.9347756  80.3392997  59.3384839 124.9919328
  70.9794956  60.9561385 136.3084088  70.6597741  60.1026693 136.0158462
  70.4328385  61.1709963 137.0642056  74.7574864  63.6723826 140.0253595
  74.9760874  64.6040933 140.0441629  75.1700638  63.3131800 140.8108399
  81.6779082  54.1791911 132.0129283  80.8679810  53.8338996 132.3884529
  82.3663499  53.8699455 132.6016895  83.6069630  53.2569958 133.6353580
  84.1600669  53.6765411 134.2943603  83.8439716  52.3305706 133.6776536
  79.6302729  59.2457031 149.4156344  79.5299456  60.1951388 149.3468435
  79.4124271  58.9175270 148.5432414  78.8315801  56.4941956 125.9997021
  79.6934965  56.8196855 126.2592839  79.0166145  55.7073452 125.4870087
  70.8483216  64.5764296 138.2777210  70.1546688  64.1618249 137.7647164
  71.5956207  64.6184833 137.6810629  86.9848437  55.3670483 133.1432244
  86.4047106  56.0255287 132.7610297  86.7184370  54.5447827 132.7319662
  85.4352003  54.7675541 135.3453565  85.9351782  54.8792075 134.5367883
  86.0787611  54.4636593 135.9854373  79.4933999  62.6754170 148.2321406
  79.0101081  63.4754530 148.4385295  79.5794938  62.6862115 147.2788849
  72.7619959  64.5082550 136.1543225  72.7390647  64.6070237 135.2025108
  73.0720595  65.3547701 136.4760391  75.4207337  66.5658705 140.2689839
  76.3750590  66.5342647 140.2019771  75.2219860  66.1049329 141.0840065
  76.0106719  65.1359821 142.8360637  76.8299608  65.6303900 142.8595474
  76.2843527  64.2191789 142.8078204  85.7673315  57.5270573 132.1988592
  84.8799170  57.8120224 131.9808787  86.1827304  57.3664337 131.3515869
  89.1187851  57.5517094 135.9142932  89.8948241  58.0413547 136.1867549
  88.3935985  57.9775148 136.3714801  91.5560410  58.2644713 136.9716872
  92.1504901  58.0240449 136.2610181  91.6286994  57.5451844 137.5990409
  73.7757566  72.1078324 137.2860037  73.6412033  71.3478725 136.7198035
  73.3589628  72.8319224 136.8188826  84.9116529  67.2915248 126.2936612
  85.6152379  67.4965250 126.9094268  84.1879177  67.8592010 126.5585696
  85.7414339  63.0425109 132.4138883  85.6849540  63.4993661 131.5746515
  86.2942681  62.2815794 132.2361725  89.5519145  58.8314841 133.2389002
  89.2956079  58.4311477 134.0697210  88.9272013  59.5458635 133.1139141
  93.8631483  61.5710914 135.7460294  93.3031041  61.6404104 136.5191856
  93.2574986  61.3951899 135.0259790  76.9326691  73.0047641 137.4978480
  76.8159076  73.9493074 137.3957170  76.1119138  72.7021203 137.8864279
  86.8203226  67.7297777 128.3435073  87.6548830  67.2978976 128.1612547
  86.6587569  67.5579791 129.2711967  86.4749118  64.2329890 129.7091412
  86.4197922  64.0674162 128.7679856  85.8495173  64.9405923 129.8653602
  71.2641633  59.4697955 143.5352834  71.9100497  58.9596909 144.0240059
  71.0558784  60.2066636 144.1096259  83.7895025  66.5378802 149.0344975
  84.6586185  66.7119455 148.6731610  83.3101777  67.3573219 148.9120704
  79.7845244  53.7337999 129.2876730  79.7723913  54.6779839 129.4445001
  80.6768665  53.5508145 128.9936191  77.9581206  73.6575903 140.7134408
  78.8608452  73.6899514 141.0300903  77.7318576  72.7276354 140.7280744
  79.7134808  72.4106890 137.3744487  78.7630439  72.4108751 137.2608859
  80.0167294  71.6639624 136.8580521  83.5997363  50.3280776 133.5422667
  82.8329759  49.7739263 133.6879349  84.0108068  50.4002645 134.4036819
  75.6039124  56.6165572 147.6327848  76.4670586  56.2602377 147.8431173
  75.0304535  56.2779467 148.3203253  95.4487501  78.2467428 138.4390249
  96.0865911  78.1274176 137.7353589  95.3308344  79.1948272 138.4978201
  92.2577207  78.1994856 138.3751774  91.9195719  78.0835921 137.4872309
  93.1266976  77.7986021 138.3552780  88.1164023  80.0530333 134.3648665
  87.5528888  79.9620270 133.5964953  88.0016418  79.2330237 134.8451157
  85.6628455  81.5481524 137.2032885  86.4549747  81.2072349 136.7879185
  85.9025105  81.6576499 138.1235039  93.6963582  83.7201300 129.6763130
  93.0451561  84.3055381 129.2897144  94.4907945  84.2507495 129.7358167
  87.6219209  80.8090438 130.0750264  88.3950085  80.2619425 129.9363140
  87.9744608  81.6734687 130.2864726  90.3860458  79.5143668 139.8718523
  90.9824031  79.2899691 139.1575486  90.4435430  78.7728414 140.4743971
  89.9585487  76.9683104 127.7068714  90.2111007  76.4464625 126.9452177
  89.0210046  76.8049249 127.8095398  95.0028770  75.9718882 135.5143457
  95.7891859  75.5538305 135.1633874  95.2667474  76.8764974 135.6825106
  95.1738847  81.4091732 130.2132114  94.5384680  81.4826359 130.9253019
  94.8436253  81.9985331 129.5351193 100.4037197  75.9094115 136.4176436
 101.1362369  75.3393332 136.6514265  99.6476552  75.5215716 136.8582941
  89.6781775  78.8711210 129.9093089  89.5618034  78.1956113 130.5774173
  89.7884035  78.3843584 129.0925242  92.0213316  78.3321357 133.6139778
  91.6571524  77.8051978 134.3252700  92.8780432  77.9419826 133.4406264
  97.9262617  69.6215689 140.8771044  97.5945942  70.4911100 140.6532259
  97.3308230  69.3051973 141.5565075  91.6618803  73.3611256 128.6101127
  91.8293206  74.2291493 128.9771598  91.4715972  73.5238538 127.6862416
  94.4194137  81.8228235 140.2766957  94.1194860  82.7253274 140.1682764
  94.0745196  81.5560419 141.1288110  87.8706618  78.2742032 136.3103662
  86.9457114  78.1418246 136.5181353  88.1191031  79.0536251 136.8073604
  97.8191280  74.3410776 137.9564394  96.9108158  74.2726184 137.6623155
  97.7678876  74.8182720 138.7846220  91.6408024  75.8168914 129.5947794
  91.5207649  76.2625965 130.4333274  90.9460613  76.1654232 129.0361332
  85.2315429  77.9175306 137.1447451  85.3607810  78.1709785 138.0586862
  84.5512880  78.5103014 136.8252106  89.4014916  88.5872556 133.2437925
  89.3238946  89.5380381 133.3226405  88.7976560  88.2418428 133.9012851
  99.6852927  72.5427214 139.7342268  99.0427307  72.8359747 139.0882063
  99.1807855  72.4280134 140.5395465  97.3393090  76.2890387 130.4228128
  98.2510946  76.5217774 130.2475825  96.8302737  76.8727431 129.8603206
  91.9764928  75.6487622 141.4322977  92.8226123  76.0727035 141.5757626
  91.9163566  74.9921246 142.1261540  95.9462673  81.2716206 137.8141709
  95.3171535  81.4361920 137.1117777  95.5588335  81.6857815 138.5852673
  99.8251905  82.2070643 135.1686073  99.1402943  82.5869545 134.6183106
  99.9095754  82.8165970 135.9018021  95.1264373  73.3091990 143.0904151
  94.8825305  74.0634051 142.5538427  95.4024304  73.6877338 143.9251398
  94.6829065  72.4648423 138.6717989  93.8213544  72.7629677 138.9634726
  94.7091500  72.6818822 137.7399021  91.4990635  81.0090614 135.0791794
  91.9628980  81.2878317 134.2896417  91.2347433  80.1074058 134.8964885
  88.3914716  80.5562095 138.0171557  88.9616073  80.9849364 137.3789042
  88.9822827  80.2744680 138.7155743  90.4359521  77.1313766 131.8881359
  91.1383564  77.5834810 132.3555286  90.1040149  76.4897585 132.5161252
  88.8839882  75.7225523 146.2632569  88.2538543  76.4041804 146.4967966
  88.7775970  75.6108604 145.3185707  84.1784855  75.3897319 137.1898493
  83.3883909  75.6454847 136.7138604  84.6696102  76.2045657 137.2950533
  86.1299600  75.7541898 134.1481970  85.3330763  75.8660592 134.6665465
  85.9025192  76.0928550 133.2822860  82.4622558  75.6427809 139.6213484
  82.7130596  76.5274819 139.8871060  82.9982106  75.4632411 138.8488576
 106.2854657  79.0741306 136.2888745 105.5318366  78.5048704 136.1332750
 106.4202198  79.0403971 137.2359380  91.6753285  83.9454709 131.9643465
  91.5398960  84.7906244 132.3928312  92.2163098  84.1473986 131.2009398
  88.1620625  70.0246288 148.6257820  87.7687570  69.4712487 149.3005464
  88.9786765  70.3356867 149.0164337  85.1282683  81.4630147 132.5371390
  85.6407203  82.2573397 132.6876954  85.7805395  80.7656437 132.4704991
  86.9377567  84.5795903 134.6194143  87.1144196  85.5013868 134.4315127
  87.7334401  84.2654322 135.0488523  91.0788586  71.4404168 146.2178076
  91.8198299  72.0411321 146.1382539  91.3106509  70.6981805 145.6596119
  86.2229924  76.6260535 144.4956306  86.1083439  75.7245792 144.7963405
  85.3674442  76.8724232 144.1441123  88.0608883  86.0974077 140.6204485
  88.6116308  85.9691140 139.8481479  87.2220359  86.3968966 140.2699378
  95.0245749  67.4685271 140.4942358  94.6810018  68.3586912 140.4181469
  95.3924711  67.2786928 139.6311943  83.0931599  79.7918801 133.3130960
  83.9306821  80.2015809 133.0964668  83.2709867  78.8518243 133.2831154
  94.9896032  77.4593882 129.0014793  94.4742655  78.2298486 129.2403181
  94.7173340  76.7859018 129.6247855  92.5743143  72.3043582 134.0600032
  91.7184739  71.9150433 133.8805670  92.9870094  72.3835543 133.1999817
  94.1042289  69.8389926 138.4591591  93.6007085  69.8020061 137.6459397
  94.3972896  70.7482668 138.5188248  90.3485175  69.9228655 137.4657773
  91.2138172  69.7271464 137.1063662  90.4162684  69.6939007 138.3927130
  99.9630306  80.2126236 130.9367967  99.1859748  79.8737396 130.4923129
 100.6421787  80.2178859 130.2622932  94.7782335  75.3320974 130.8274574
  94.4732470  75.6467123 131.6784718  95.7312777  75.4102394 130.8701907
  93.2228767  81.4911197 132.4767528  92.6950128  80.7563957 132.1640766
  92.7216269  82.2685873 132.2307497  98.2021613  79.6860218 137.5934575
  97.5445287  80.3759479 137.6814703  99.0062012  80.0756649 137.9368561
  87.9547494  72.1530863 134.8374140  88.5291246  71.9306045 134.1047333
  88.5418477  72.2219558 135.5902741  97.0127071  78.0404590 135.6438516
  97.5258953  78.6734582 136.1460226  97.6628295  77.4405786 135.2781876
  88.2817081  74.1835324 128.8570025  87.4454394  74.5210011 129.1779300
  88.1421851  74.0484304 127.9197162  90.2570162  69.0272112 133.5649209
  89.6034574  68.7121129 132.9405824  90.2150636  68.4047853 134.2909032
  91.3681367  79.3091407 125.4802501  90.4608428  79.0780661 125.6793650
  91.8652399  78.5129027 125.6676483  94.2749446  88.0188914 128.3999188
  93.6011144  88.3220611 129.0084145  94.6615268  88.8217995 128.0504645
  93.4907902  75.5154046 137.8896857  92.5730464  75.7368993 137.7318545
  93.9068046  75.5900356 137.0308564  94.2742950  76.9145461 133.0199537
  95.0214769  77.4266859 132.7106659  94.5434540  76.5929514 133.8803931
  92.5469600  79.4104002 130.0026491  91.6380819  79.1263035 130.0998961
  92.5764684  79.8303081 129.1429798  97.7788868  83.0210592 133.7717659
  97.3251195  82.1801502 133.8282849  97.1482834  83.6571990 134.1092439
  96.7221787  73.9502578 135.0018326  95.9844544  73.4379964 135.3328569
  96.9748561  73.5102959 134.1901603  96.2221807  84.8587088 134.7067477
  96.5144781  85.4192145 133.9879843  96.7320427  85.1515649 135.4620636
  96.8233414  66.7278830 135.5960096  97.1292291  65.8676193 135.3086011
  97.5486019  67.3196450 135.3959090  83.1157771  77.1309516 133.9841694
  82.9182170  76.5378877 133.2592760  82.5604435  76.8261726 134.7017632
  91.0954494  77.0232623 136.1036287  91.1503104  76.0706459 136.0278763
  90.2845696  77.1792062 136.5877585  92.2445688  80.9512746 127.3414570
  91.8065118  80.2348605 126.8820207  92.9856129  81.1788861 126.7799661
  89.0346854  75.6409683 133.8626666  88.2214720  75.9403853 134.2691858
  89.5305848  75.2465371 134.5801148  91.1855432  85.6367439 135.7960930
  91.1431611  85.8628286 134.8669462  92.1018131  85.4030814 135.9446731
  94.6321066  76.1051507 142.6941560  94.9870454  76.3322980 143.5536025
  95.2793197  76.4369884 142.0718815 100.3618803  79.2269943 133.3990889
 100.2236701  79.4171539 132.4712078 100.0055022  79.9889326 133.8558940
  88.5260929  73.2128038 139.4787901  89.1660308  73.0716797 138.7810864
  87.6938459  72.9262551 139.1026503  89.3021233  82.5130468 135.5922893
  90.0961831  82.0180789 135.3905468  88.5912925  81.9848332 135.2290599
  85.6103996  76.6573550 131.6682646  84.6801584  76.5958006 131.8852608
  85.7061468  76.1349503 130.8719287  85.5289545  73.1828363 134.2560887
  85.7896363  74.0973696 134.1470048  86.3506718  72.7152806 134.4057500
  87.0014471  74.5966120 141.4259712  87.6737524  74.3883482 140.7772361
  86.1744257  74.3988206 140.9864944  92.9040043  71.2228061 143.4425373
  92.2567958  71.9218011 143.3489849  93.6741058  71.6564205 143.8101621
  93.0804177  79.0608826 141.5022193  94.0096237  79.2119986 141.3291160
  92.6595207  79.1492847 140.6470839  91.8792509  83.0859490 139.2720730
  91.7403594  82.7178275 140.1446668  91.0907105  83.6007130 139.1004688
  92.4740661  88.1868587 130.6146267  92.6492416  87.7156630 131.4291889
  91.7873449  88.8134353 130.8427527  93.4297724  82.4641093 136.6609568
  93.0947557  82.4241863 137.5567218  92.9301670  81.7985809 136.1879978
  87.4041968  77.8708723 142.1862149  87.2661766  77.1388962 142.7873688
  88.3146891  77.7817623 141.9046337  96.3656916  79.8097127 126.9346628
  95.7486086  79.0843956 126.8379680  95.8973404  80.5706488 126.5913702
  90.0324269  77.5828683 141.6745829  90.7423887  76.9421875 141.6332447
  89.9893577  77.8341577 142.5972010  88.7453203  74.5693900 143.4941468
  88.2090560  74.1184639 144.1463065  88.1569911  74.7039809 142.7511933
  88.1555462  74.0282552 126.0567932  87.2784928  73.9071353 125.6930179
  88.6313215  73.2368630 125.8046821  79.6757602  78.8159712 136.1509439
  80.3628641  78.5021442 135.5630454  79.5205730  79.7201076 135.8776690
  84.4792324  73.7049908 140.5794463  84.3950513  73.0975578 139.8444873
  83.6575030  74.1958926 140.5803959  91.3419388  86.3808842 133.3030452
  90.5586909  86.9230522 133.3968677  92.0412133  86.8982822 133.7024694
  94.6516038  72.1903472 135.9464658  95.1484737  71.4373434 135.6265728
  93.8803019  72.2267788 135.3807867 102.5045795  77.8943837 137.5882949
 102.4935671  78.7768553 137.2176882 101.6363174  77.5415388 137.3937486
  95.7345818  80.9475159 133.5203081  94.8002097  81.0676621 133.3507785
  95.9122487  80.0447626 133.2563091  91.2351006  74.3320855 135.6736342
  90.8648794  73.7791895 136.3617248  91.7310099  73.7278988 135.1211342
  99.1218370  76.7892478 134.0553115  99.5878822  77.6220470 133.9813418
  99.5725870  76.3237460 134.7598374  97.1894601  83.1336299 131.0539267
  97.4654445  83.0192894 131.9633141  96.3199100  82.7353784 131.0151440
  97.0935032  69.1573065 138.0944017  96.1798112  69.3877292 138.2626224
  97.5228134  69.2411509 138.9458049  96.8641491  77.3462957 140.5943911
  96.2112941  77.5938865 139.9396363  97.2421871  76.5327095 140.2606388
  93.8248665  87.3822650 134.6972081  94.0071059  86.5644306 135.1599833
  94.6481651  87.5990342 134.2596971  94.1590830  86.3090835 131.9587129
  94.6878597  85.7983290 131.3457292  94.4219050  85.9933366 132.8232662
  84.6607923  84.3254705 139.7022463  85.2461360  83.5798393 139.8350367
  84.4632761  84.6358661 140.5859127  87.5146578  87.3605952 134.7184905
  86.8456954  87.8452080 134.2348945  87.3759448  87.6075173 135.6328284
  79.2525578  76.8960305 138.4226906  79.2909677  76.3623896 139.2164024
  78.7465871  76.3695510 137.8037883  86.6316340  71.7424845 141.9189448
  86.6957667  72.6039676 141.5066846  86.5683460  71.1298847 141.1861807
  86.1068613  73.8147978 145.5662483  86.7340651  73.4325055 146.1800007
  85.2496531  73.5962180 145.9318175  82.8834155  75.6224407 131.4980838
  83.1787596  74.7135085 131.4447891  81.9822191  75.6012146 131.1761840
  86.4128402  73.6980404 137.4808386  85.6914988  74.3116371 137.3415859
  87.2021658  74.2338168 137.4025032  89.2154716  71.0334830 143.7549038
  89.7389118  71.2797127 144.5175347  88.9967049  71.8654865 143.3352175
  84.6121997  73.3038505 131.6220163  84.2834703  72.4235884 131.4395269
  84.9661368  73.2486173 132.5096552  93.8601576  84.9393407 136.1315148
  93.7126538  84.0110115 136.3122718  94.6855069  84.9613498 135.6472223
  87.7263820  73.5911474 131.9895640  88.0659893  74.1197396 131.2674249
  88.1735941  73.9291881 132.7654207  90.4207261  71.9748525 141.4398708
  90.0804081  71.1756338 141.8419388  89.7146267  72.2750236 140.8675542
  91.0723733  69.0597838 139.8926031  91.8949802  68.5858316 139.7704922
  91.3161796  69.8388321 140.3924718  89.7131967  72.0886096 130.1888933
  90.4340330  72.4667349 129.6852650  89.0897271  72.8074973 130.2923911
  93.8563090  72.7931245 131.1247265  94.0726705  73.6755883 130.8236094
  93.3757157  72.4017458 130.3952907  88.5962311  75.7516958 137.7018010
  88.4506892  76.0657261 138.5942292  88.1187515  76.3701859 137.1488909
  90.4558694  72.7419506 137.7498900  90.4420263  71.8460600 137.4131198
  91.1731122  72.7490170 138.3837186  92.3084825  73.1756846 139.7952027
  92.0502603  74.0973917 139.7936357  91.7769865  72.7787281 140.4852491
  97.2531014  86.2807634 132.5742112  97.4267891  85.7154056 131.8215965
  97.7459905  87.0808528 132.3921602  83.0707974  78.2922303 140.6405671
  82.5261442  79.0682111 140.7725946  83.9487324  78.6393107 140.4824793
  89.8595590  71.6233887 133.0186470  89.9811502  70.6950533 133.2177357
  89.5697633  71.6372573 132.1064785  92.7286781  69.3088797 136.1553190
  92.7508478  69.3728130 135.2005169  93.1454840  68.4693306 136.3493696
 103.1070405  79.0444057 134.1932412 103.5501551  78.2951382 133.7951535
 102.2296915  79.0354193 133.8106144  98.2406186  85.5974398 129.6739011
  98.9357091  86.2181091 129.8926325  98.5829336  84.7469749 129.9491389
  83.8573996  77.4192199 143.5335828  83.1155732  77.5674834 144.1200459
  83.5366740  77.6800465 142.6702578 100.1397609  83.0474104 131.2026341
 100.6648934  83.3861376 130.4775661 100.0519962  82.1121119 131.0189476
  91.8238270  89.1146087 135.5621595  91.3843260  88.6222465 136.2554451
  92.5746387  88.5719054 135.3213670  84.3030609  85.3057628 135.5646223
  85.1288629  85.0061400 135.1844866  83.9524661  84.5365250 136.0136011
  89.2712142  84.6584096 137.6343896  88.6492152  83.9954801 137.3346124
  89.9417009  84.6845228 136.9517544  82.5039214  83.2243954 136.5235156
  81.6671123  82.7966128 136.3419158  82.4762860  83.4176397 137.4605948
  89.3436670  73.1365884 147.2276402  89.3924825  74.0128007 146.8454172
  89.8859184  72.5943277 146.6548046  88.8325649  83.2088019 131.1102357
  88.9813770  83.8923484 130.4569030  89.6392093  83.1893109 131.6251813
  91.5735958  73.8897256 143.9822761  90.7039268  74.1830822 143.7105350
  91.8095439  74.4737701 144.7030025 102.6503270  80.5149295 136.5854860
 103.4850161  80.9539099 136.7492420 102.7862399  80.0387948 135.7663106
  86.5878282  79.2353197 132.1163426  86.3424324  78.3315527 132.3143636
  86.7574197  79.2370347 131.1742904  94.2774992  70.1076873 141.4988181
  94.7956936  70.8437900 141.1734670  93.9230125  70.4140867 142.3334941
  85.8573930  74.9681554 129.6149587  85.1643175  75.0425909 128.9589623
  85.6125682  74.2041898 130.1371104  94.5287586  66.5277156 137.0189078
  94.8089340  65.8600345 137.6449505  95.3138193  66.7206251 136.5063742
  92.3321055  85.7036150 128.5814104  91.7595022  86.3226337 128.1284576
  92.9053848  86.2535511 129.1154026  98.3996445  74.9494790 140.7660653
  99.3513868  75.0492887 140.7872877  98.2299895  74.1573058 141.2758737
  96.4210824  72.0350373 140.9520054  95.8260756  72.3155386 140.2566543
  96.1360521  72.5244274 141.7236795  95.5518315  85.9873300 129.7122687
  96.4848988  85.9218861 129.9155562  95.4641527  86.8229567 129.2537219
  98.1806331  85.3039170 126.6726634  98.1019963  84.9699034 127.5662392
  99.0015998  85.7960938 126.6718106 100.8784522  78.1700909 139.8802953
 100.8460843  77.2316910 140.0662637 101.4885146  78.2484946 139.1468778
  92.7167853  77.0396962 125.9230157  93.6626958  76.9103171 125.9918575
  92.3382098  76.3011624 126.3999585 101.0279011  74.9611953 139.9261236
 100.5118060  74.1770410 139.7391165 101.9118959  74.6330670 140.0907755
  98.6889738  68.7052968 135.8857049  98.4914559  68.3968057 136.7700381
  99.2989443  69.4314607 136.0154978  90.9010770  74.9646939 125.8585042
  89.9942226  74.6680052 125.9347756  91.1786751  74.6676757 124.9919328
  81.8188711  76.2853302 136.3084088  81.4991495  75.4318610 136.0158462
  81.2722139  76.5001880 137.0642056  85.5968618  79.0015743 140.0253595
  85.8154628  79.9332851 140.0441629  86.0094392  78.6423718 140.8108399
  92.5172836  69.5083829 132.0129283  91.7073564  69.1630914 132.3884529
  93.2057253  69.1991372 132.6016895  94.4463384  68.5861875 133.6353580
  94.9994423  69.0057329 134.2943603  94.6833471  67.6597623 133.6776536
  89.6709555  71.8233874 125.9997021  90.5328719  72.1488772 126.2592839
  89.8559899  71.0365370 125.4870087  81.6876971  79.9056214 138.2777210
  80.9940442  79.4910167 137.7647164  82.4349962  79.9476750 137.6810629
  97.8242192  70.6962400 133.1432244  97.2440861  71.3547205 132.7610297
  97.5578124  69.8739745 132.7319662  96.2745758  70.0967458 135.3453565
  96.7745536  70.2083993 134.5367883  96.9181366  69.7928511 135.9854373
  83.6013713  79.8374467 136.1543225  83.5784401  79.9362155 135.2025108
  83.9114350  80.6839618 136.4760391  86.2601091  81.8950623 140.2689839
  87.2144345  81.8634565 140.2019771  86.0613615  81.4341246 141.0840065
  86.8500473  80.4651739 142.8360637  87.6693362  80.9595817 142.8595474
  87.1237281  79.5483707 142.8078204  96.6067070  72.8562491 132.1988592
  95.7192925  73.1412142 131.9808787  97.0221059  72.6956254 131.3515869
  99.9581606  72.8809012 135.9142932 100.7341996  73.3705464 136.1867549
  99.2329740  73.3067066 136.3714801 102.3954164  73.5936631 136.9716872
 102.9898655  73.3532367 136.2610181 102.4680748  72.8743762 137.5990409
  84.6151320  87.4370242 137.2860037  84.4805788  86.6770643 136.7198035
  84.1983382  88.1611142 136.8188826  95.7510283  82.6207166 126.2936612
  96.4546133  82.8257168 126.9094268  95.0272932  83.1883927 126.5585696
  96.5808093  78.3717027 132.4138883  96.5243295  78.8285578 131.5746515
  97.1336436  77.6107711 132.2361725 100.3912899  74.1606759 133.2389002
 100.1349833  73.7603394 134.0697210  99.7665767  74.8750553 133.1139141
 104.7025237  76.9002832 135.7460294 104.1424795  76.9696021 136.5191856
 104.0968740  76.7243817 135.0259790  87.7720446  88.3339559 137.4978480
  87.6552830  89.2784992 137.3957170  86.9512892  88.0313121 137.8864279
  97.6596980  83.0589695 128.3435073  98.4942584  82.6270893 128.1612547
  97.4981323  82.8871708 129.2711967  97.3142873  79.5621808 129.7091412
  97.2591676  79.3966079 128.7679856  96.6888928  80.2697841 129.8653602
  82.1035388  74.7989872 143.5352834  82.7494251  74.2888826 144.0240059
  81.8952539  75.5358554 144.1096259  90.6238998  69.0629917 129.2876730
  90.6117668  70.0071757 129.4445001  91.5162420  68.8800062 128.9936191
  90.5528562  87.7398807 137.3744487  89.6024193  87.7400669 137.2608859
  90.8561048  86.9931542 136.8580521  94.4391118  65.6572694 133.5422667
  93.6723513  65.1031180 133.6879349  94.8501823  65.7294562 134.4036819
  86.4432879  71.9457490 147.6327848  87.3064340  71.5894294 147.8431173
  85.8698289  71.6071384 148.3203253  98.4612963  96.1382355 130.0750264
  99.2343839  95.5911342 129.9363140  98.8138362  97.0026605 130.2864726
 100.7979241  92.2975021 127.7068714 101.0504762  91.7756543 126.9452177
  99.8603800  92.1341167 127.8095398 100.5175530  94.2003127 129.9093089
 100.4011788  93.5248031 130.5774173 100.6277790  93.7135501 129.0925242
 102.5012558  88.6903174 128.6101127 102.6686960  89.5583411 128.9771598
 102.3109727  88.8530456 127.6862416 102.4801779  91.1460832 129.5947794
 102.3601404  91.5917882 130.4333274 101.7854367  91.4946149 129.0361332
  96.9693354  91.0833816 134.1481970  96.1724518  91.1952510 134.6665465
  96.7418947  91.4220468 133.2822860 105.8289786  92.7885799 129.0014793
 105.3136409  93.5590404 129.2403181 105.5567094  92.1150935 129.6247855
  99.1210836  89.5127242 128.8570025  98.2848148  89.8501929 129.1779300
  98.9815605  89.3776222 127.9197162 101.0963916  84.3564030 133.5649209
 100.4428329  84.0413047 132.9405824 101.0544391  83.7339770 134.2909032
 102.2075121  94.6383325 125.4802501 101.3002183  94.4072578 125.6793650
 102.7046153  93.8420944 125.6676483  93.9551525  92.4601434 133.9841694
  93.7575925  91.8670795 133.2592760  93.3998189  92.1553644 134.7017632
 103.0839442  96.2804664 127.3414570 102.6458872  95.5640522 126.8820207
 103.8249883  96.5080778 126.7799661  96.4497751  91.9865468 131.6682646
  95.5195339  91.9249923 131.8852608  96.5455223  91.4641421 130.8719287
  96.3683300  88.5120281 134.2560887  96.6290117  89.4265614 134.1470048
  97.1900472  88.0444723 134.4057500 107.2050670  95.1389045 126.9346628
 106.5879841  94.4135873 126.8379680 106.7367159  95.8998405 126.5913702
  98.9949216  89.3574469 126.0567932  98.1178682  89.2363270 125.6930179
  99.4706969  88.5660548 125.8046821  93.7227910  90.9516325 131.4980838
  94.0181351  90.0427003 131.4447891  92.8215946  90.9304064 131.1761840
  95.4515751  88.6330422 131.6220163  95.1228458  87.7527801 131.4395269
  95.8055122  88.5778091 132.5096552  98.5657575  88.9203392 131.9895640
  98.9053647  89.4489313 131.2674249  99.0129695  89.2583798 132.7654207
 100.5525722  87.4178014 130.1888933 101.2734084  87.7959267 129.6852650
  99.9291026  88.1366891 130.2923911 104.6956845  88.1223163 131.1247265
 104.9120459  89.0047801 130.8236094 104.2150912  87.7309376 130.3952907
 100.6989345  86.9525804 133.0186470 100.8205256  86.0242450 133.2177357
 100.4091387  86.9664490 132.1064785  97.4272037  94.5645115 132.1163426
  97.1818079  93.6607445 132.3143636  97.5967951  94.5662265 131.1742904
  96.6967684  90.2973472 129.6149587  96.0036929  90.3717827 128.9589623
  96.4519436  89.5333816 130.1371104 103.5561608  92.3688880 125.9230157
 104.5020713  92.2395088 125.9918575 103.1775853  91.6303542 126.3999585
 101.7404525  90.2938856 125.8585042 100.8335980  89.9971969 125.9347756
 102.0180506  89.9968675 124.9919328 103.3566591  84.8375746 132.0129283
 102.5467319  84.4922831 132.3884529 104.0451008  84.5283290 132.6016895
 105.2857139  83.9153793 133.6353580 105.8388178  84.3349246 134.2943603
 105.5227225  82.9889541 133.6776536 100.5103310  87.1525792 125.9997021
 101.3722474  87.4780690 126.2592839 100.6953654  86.3657288 125.4870087
 101.4632753  84.3921835 129.2876730 101.4511422  85.3363675 129.4445001
 102.3556174  84.2091980 128.9936191 105.2784872  80.9864611 133.5422667
 104.5117268  80.4323098 133.6879349 105.6895577  81.0586480 134.4036819
  61.1782320  14.7387670 116.4008436  60.5270299  15.3241750 116.0142450
  61.9726682  15.2693865 116.4603474  57.4404225   7.9869473 114.4314021
  57.6929745   7.4650995 113.6697484  56.5028784   7.8235619 114.5340704
  62.6557585  12.4278102 116.9377421  62.0203418  12.5012728 117.6498325
  62.3254991  13.0171701 116.2596500  56.8833654  19.6058925 119.9683231
  56.8057684  20.5566750 120.0471712  56.2795298  19.2604798 120.6258158
  64.8211828   7.3076757 117.1473434  65.7329684   7.5404143 116.9721132
  64.3121475   7.8913801 116.5848513  67.3070642  13.2257013 121.8931380
  66.6221681  13.6055914 121.3428413  67.3914492  13.8352340 122.6263327
  59.1572023  14.9641078 118.6888771  59.0217698  15.8092614 119.1173619
  59.6981836  15.1660356 117.9254705  62.4714769   8.4780251 115.7260100
  61.9561393   9.2484856 115.9648487  62.1992078   7.8045387 116.3493161
  67.4449043  11.2312606 117.6613273  66.6678486  10.8923765 117.2168435
  68.1240524  11.2365229 116.9868238  58.8500105  10.3277777 112.2047808
  57.9427166  10.0967030 112.4038957  59.3471137   9.5315396 112.3921790
  61.7568183  19.0375284 115.1244494  61.0829882  19.3406981 115.7329452
  62.1434005  19.8404364 114.7749951  60.0288338  10.4290372 116.7271798
  59.1199557  10.1449405 116.8244268  60.0583422  10.8489450 115.8675105
  65.2607605  14.0396961 120.4962966  64.8069932  13.1987871 120.5528156
  64.6301572  14.6758360 120.8337746  63.7040545  15.8773458 121.4312784
  63.9963519  16.4378515 120.7125149  64.2139165  16.1702019 122.1865943
  59.7264426  11.9699115 114.0659877  59.2883856  11.2534974 113.6065514
  60.4674867  12.1975230 113.5044968  67.8437541  10.2456312 120.1236195
  67.7055439  10.4357908 119.1957384  67.4873759  11.0075695 120.5804246
  59.9559399  19.2054956 117.3391573  60.1311154  18.7343000 118.1537196
  59.2692187  19.8320723 117.5672834  63.8475653  10.8283497 113.6591934
  63.2304824  10.1030325 113.5624987  63.3792142  11.5892857 113.3159008
  58.8238125  17.3995212 120.0275759  58.0405647  17.9416892 120.1213984
  59.5230870  17.9169191 120.4270000  64.6713339  14.1522669 117.7784574
  64.9473182  14.0379264 118.6878448  63.8017837  13.7540154 117.7396747
  61.3067403  18.4009020 121.4217388  61.4889797  17.5830676 121.8845140
  62.1300389  18.6176712 120.9842278  61.6409568  17.3277205 118.6832436
  62.1697335  16.8169660 118.0702598  61.9037788  17.0119735 119.5477969
  64.7349752  17.2994003 119.2987419  64.9086629  16.7340426 118.5461272
  65.2278643  18.0994898 119.1166909  70.5889143  10.0630426 120.9177719
  71.0320289   9.3137751 120.5196842  69.7115653  10.0540562 120.5351451
  65.7224924  16.6160768 116.3984317  66.4175829  17.2367460 116.6171632
  66.0648074  15.7656119 116.6736695  67.6216347  14.0660473 117.9271648
  68.1467671  14.4047746 117.2020968  67.5338700  13.1307488 117.7434783
  56.3144387  14.2274389 117.8347664  56.4632507  14.9109853 117.1814336
  57.1210831  14.2079479 118.3497119  59.8139793  16.7222519 115.3059411
  59.2413760  17.3412706 114.8529883  60.3872586  17.2721881 115.8399333
  63.0337052  17.0059669 116.4367993  63.9667726  16.9405231 116.6400869
  62.9460265  17.8415936 115.9782526  65.6625069  16.3225540 113.3971941
  65.5838701  15.9885403 114.2907699  66.4834736  16.8147308 113.3963413
  60.1986591   8.0583332 112.6475463  61.1445696   7.9289540 112.7163881
  59.8200836   7.3197994 113.1244892  58.3829508   5.9833308 112.5830349
  57.4760964   5.6866421 112.6593062  58.6605489   5.6863126 111.7164635
  63.2329021  13.6393535 113.0181919  63.9364871  13.8443538 113.6339575
  62.5091670  14.2070297 113.2831003  65.1415718  14.0776064 115.0680379
  65.9761322  13.6457263 114.8857854  64.9800061  13.9058078 115.9957274
  64.7961610  10.5808178 116.4336718  64.7410414  10.4152449 115.4925163
  64.1707666  11.2884211 116.5898908  73.7699993  24.5945715 125.1635556
  74.4078403  24.4752463 124.4598896  73.6520836  25.5426559 125.2223508
  70.5789700  24.5473144 125.0997081  70.2408211  24.4314208 124.2117615
  71.4479468  24.1464309 125.0798087  66.4376515  26.4008620 121.0893972
  65.8741380  26.3098557 120.3210259  66.3228910  25.5808524 121.5696464
  63.9840947  27.8959812 123.9278192  64.7762239  27.5550636 123.5124491
  64.2237597  28.0054787 124.8480345  72.0176074  30.0679588 116.4008436
  71.3664054  30.6533668 116.0142450  72.8120437  30.5985783 116.4603474
  65.9431701  27.1568725 116.7995571  66.7162577  26.6097712 116.6608447
  66.2957100  28.0212974 117.0110032  67.7816744  28.4845107 130.0062470
  67.4906610  29.3890738 129.8909136  68.4173728  28.5261635 130.7206540
  68.7072951  25.8621956 126.5963830  69.3036523  25.6377978 125.8820793
  68.7647922  25.1206701 127.1989278  68.2797979  23.3161391 114.4314021
  68.5323500  22.7942912 113.6697484  67.3422538  23.1527536 114.5340704
  73.3241262  22.3197169 122.2388764  74.1104351  21.9016592 121.8879181
  73.5879966  23.2243261 122.4070412  73.4951339  27.7570020 116.9377421
  72.8597172  27.8304646 117.6498325  73.1648746  28.3463618 116.2596500
  78.7249689  22.2572402 123.1421742  79.4574861  21.6871619 123.3759572
  77.9689045  21.8694003 123.5828248  67.9994268  25.2189497 116.6338396
  67.8830526  24.5434400 117.3019480  68.1096528  24.7321871 115.8170549
  70.3425809  24.6799644 120.3385085  69.9784016  24.1530265 121.0498006
  71.1992925  24.2898113 120.1651570  69.9831296  19.7089544 115.3346433
  70.1505698  20.5769780 115.7016904  69.7928465  19.8716825 114.4107723
  72.7406629  28.1706523 127.0012264  72.4407352  29.0731561 126.8928071
  72.3957688  27.9038706 127.8533417  66.1919110  24.6220319 123.0348968
  65.2669607  24.4896534 123.2426660  66.4403523  25.4014539 123.5318911
  76.1403773  20.6889063 124.6809701  75.2320650  20.6204471 124.3868462
  76.0891368  21.1661008 125.5091527  69.9620517  22.1647201 116.3193100
  69.8420142  22.6104252 117.1578581  69.2673105  22.5132519 115.7606638
  63.5527921  24.2653593 123.8692757  63.6820303  24.5188072 124.7832169
  62.8725373  24.8581301 123.5497412  67.7227409  34.9350843 119.9683231
  67.6451438  35.8858668 120.0471712  67.1189052  34.5896715 120.6258158
  78.0065419  18.8905501 126.4587575  77.3639799  19.1838034 125.8127370
  77.5020348  18.7758421 127.2640772  75.6605583  22.6368674 117.1473434
  76.5723439  22.8696061 116.9721132  75.1515230  23.2205719 116.5848513
  73.9446350  27.0593302 130.7834727  74.3529706  26.6175713 130.0389359
  73.2223612  26.4845930 131.0368920  74.2675165  27.6194493 124.5387016
  73.6384027  27.7840207 123.8363084  73.8800827  28.0336102 125.3097980
  78.1464397  28.5548931 121.8931380  77.4615435  28.9347832 121.3428413
  78.2308246  29.1644257 122.6263327  75.4015328  26.2008890 128.4926723
  75.6132224  26.8440650 127.8161104  75.3545077  25.3671206 128.0248653
  73.0041557  18.8126710 125.3963295  72.1426036  19.1107964 125.6880033
  73.0303992  19.0297109 124.4644328  69.8203127  27.3568901 121.8037101
  70.2841472  27.6356604 121.0141723  69.5559925  26.4552345 121.6210192
  66.7127208  26.9040382 124.7416864  67.2828565  27.3327651 124.1034349
  67.3035320  26.6222967 125.4401050  68.7572013  23.4792053 118.6126666
  69.4596056  23.9313097 119.0800592  68.4252641  22.8375872 119.2406559
  62.4997347  21.7375606 123.9143800  61.7096401  21.9933134 123.4383910
  62.9908594  22.5523944 124.0195840  76.5161156  29.0780845 126.6649080
  77.3378600  28.6761032 126.3831762  76.5123559  28.9749079 127.6165196
  64.4512092  22.1020185 120.8727276  63.6543256  22.2138879 121.3910772
  64.2237684  22.4406837 120.0068167  70.2817760  28.6264888 128.8209791
  70.3462192  29.0885296 129.6567963  69.5728684  27.9962253 128.9492101
  84.6067149  25.4219594 123.0134052  83.8530858  24.8526992 122.8578056
  84.7414691  25.3882258 123.9604687  69.9965778  30.2932996 118.6888771
  69.8611452  31.1384532 119.1173619  70.5375590  30.4952274 117.9254705
  63.4495175  27.8108434 119.2616696  63.9619695  28.6051684 119.4122261
  64.1017888  27.1134724 119.1950298  65.2590060  30.9274190 121.3439449
  65.4356688  31.8492155 121.1560433  66.0546893  30.6132609 121.7733829
  71.6234254  30.9156562 132.8189113  71.1798108  30.1292941 132.5010018
  72.2851467  31.1035713 132.1533004  66.3821375  32.4452364 127.3449792
  66.9328800  32.3169427 126.5726786  65.5432851  32.7447253 126.9944685
  73.7215492  31.1959362 130.8470515  73.7033967  32.0168243 130.3550784
  74.6435412  31.0713438 131.0720656  61.4144092  26.1397088 120.0376267
  62.2519314  26.5494097 119.8209975  61.5922359  25.1996530 120.0076461
  73.3108524  23.8072169 115.7260100  72.7955147  24.5776774 115.9648487
  73.0385832  23.1337305 116.3493161  70.8955635  18.6521870 120.7845338
  70.0397231  18.2628720 120.6050977  71.3082587  18.7313830 119.9245124
  72.4254781  16.1868213 125.1836898  71.9219577  16.1498348 124.3704703
  72.7185388  17.0960956 125.2433555  78.2842798  26.5604524 117.6613273
  77.5072241  26.2215683 117.2168435  78.9634279  26.5657147 116.9868238
  73.0994827  21.6799261 117.5519881  72.7944963  21.9945410 118.4030024
  74.0525269  21.7580681 117.5947214  71.5441259  27.8389484 119.2012835
  71.0162620  27.1042244 118.8886072  71.0428762  28.6164161 118.9552803
  76.5234105  26.0338505 124.3179881  75.8657779  26.7237766 124.4060010
  77.3274504  26.4234937 124.6613868  66.2759986  18.5009151 121.5619446
  66.8503738  18.2784332 120.8292639  66.8630969  18.5697845 122.3148048
  75.3339564  24.3882877 122.3683823  75.8471445  25.0212869 122.8705533
  75.9840788  23.7884073 122.0027183  66.6029574  20.5313612 115.5815332
  65.7666886  20.8688298 115.9024606  66.4634343  20.3962591 114.6442469
  68.5782654  15.3750399 120.2894516  67.9247066  15.0599417 119.6651131
  68.5363128  14.7526140 121.0154339  69.6893859  25.6569695 112.2047808
  68.7820921  25.4258948 112.4038957  70.1864891  24.8607314 112.3921790
  72.5961938  34.3667202 115.1244494  71.9223637  34.6698898 115.7329452
  72.9827760  35.1696282 114.7749951  71.8120395  21.8632333 124.6142164
  70.8942956  22.0847280 124.4563852  72.2280538  21.9378643 123.7553871
  72.5955442  23.2623749 119.7444844  73.3427261  23.7745146 119.4351966
  72.8647032  22.9407801 120.6049237  70.8682092  25.7582289 116.7271798
  69.9593312  25.4741322 116.8244268  70.8977176  26.1781368 115.8675105
  76.1001360  29.3688879 120.4962966  75.6463687  28.5279789 120.5528156
  75.4695327  30.0050277 120.8337746  75.0434279  20.2980865 121.7263633
  74.3057036  19.7858251 122.0573876  75.2961053  19.8581247 120.9146910
  74.5434299  31.2065376 121.4312784  74.8357273  31.7670433 120.7125149
  75.0532920  31.4993937 122.1865943  75.1445907  13.0757117 122.3205402
  75.4504784  12.2154480 122.0331317  75.8698512  13.6674737 122.1204396
  61.4370263  23.4787804 120.7087000  61.2394663  22.8857164 119.9838067
  60.8816927  23.1740014 121.4262939  69.4166986  23.3710910 122.8281593
  69.4715596  22.4184746 122.7524070  68.6058189  23.5270349 123.3122892
  70.5658180  27.2991033 114.0659877  70.1277610  26.5826892 113.6065514
  71.3068621  27.5267148 113.5044968  67.3559346  21.9887970 120.5871972
  66.5427212  22.2882140 120.9937164  67.8518341  21.5943659 121.3046455
  69.5067924  31.9845727 122.5206237  69.4644103  32.2106573 121.5914769
  70.4230623  31.7509101 122.6692038  78.6831295  25.5748230 120.1236195
  78.5449194  25.7649826 119.1957384  78.3267514  26.3367613 120.5804246
  78.7100675  27.6424757 125.1347467  79.1437181  27.5500046 125.9830521
  79.4232255  27.6182258 124.4967483  67.6233725  28.8608756 122.3168200
  68.4174324  28.3659076 122.1150775  66.9125417  28.3326619 121.9535905
  72.4428570  31.2426851 126.6680567  72.4965592  31.8117788 127.4358283
  71.5743351  31.4128736 126.3034604  63.9316489  23.0051837 118.3927952
  63.0014077  22.9436293 118.6097915  64.0273961  22.4827790 117.5964594
  63.8502038  19.5306650 120.9806194  64.1108855  20.4451984 120.8715355
  64.6719210  19.0631093 121.1302807  79.5716224  27.6848458 127.6680352
  79.7652114  28.5894268 127.9139627  79.4716842  27.2255877 128.5018937
  74.6331333  27.8355201 133.2421233  74.4816839  27.6065752 132.3251316
  74.6236012  28.7925802 133.2552578  71.4016669  25.4087113 128.2267499
  72.3308729  25.5598273 128.0536466  70.9807699  25.4971134 127.3716146
  70.2005001  29.4337778 125.9966037  70.0616087  29.0656562 126.8691975
  69.4119597  29.9485417 125.8249995  70.7953153  34.5346874 117.3391573
  70.9704909  34.0634917 118.1537196  70.1085941  35.1612640 117.5672834
  71.7510216  28.8119380 123.3854875  71.4160049  28.7720150 124.2812524
  71.2514162  28.1464096 122.9125285  74.6869408  26.1575415 113.6591934
  74.0698579  25.4322243 113.5624987  74.2185896  26.9184775 113.3159008
  76.3423540  30.8674323 131.3197715  76.2836086  30.1833543 130.6528298
  76.7443058  31.6093313 130.8678341  65.3614238  37.6836237 124.1131433
  65.6010837  38.3154761 124.7910452  64.5183435  37.3324277 124.3996793
  66.4767954  20.3760839 112.7813239  65.5997420  20.2549640 112.4175485
  66.9525707  19.5846917 112.5292127  76.3440947  28.8313907 129.5511694
  75.4567726  28.4939829 129.6738093  76.9139498  28.0996938 129.7880460
  57.9970094  25.1637999 122.8754746  58.6841134  24.8499729 122.2875761
  57.8418223  26.0679363 122.6021997  69.8742100  33.4915359 126.5172937
  69.8012272  34.2970331 127.0292242  69.4319493  33.6907325 125.6920959
  69.6631880  32.7287129 120.0275759  68.8799402  33.2708810 120.1213984
  70.3624625  33.2461109 120.4270000  72.9728530  18.5381759 122.6709964
  73.4697229  17.7851721 122.3511035  72.2015511  18.5746076 122.1053174
  80.8258287  24.2422124 124.3128256  80.8148164  25.1246840 123.9422189
  79.9575667  23.8893675 124.1182793  72.3340784  33.3902193 128.6731096
  73.0468756  34.0249658 128.6006998  71.8430812  33.4866059 127.8571098
  74.0558311  27.2953446 120.2448388  73.1214589  27.4154909 120.0753092
  74.2334979  26.3925913 119.9808398  69.5563499  20.6799142 122.3981649
  69.1861286  20.1270182 123.0862555  70.0522591  20.0757275 121.8456649
  77.4430862  23.1370765 120.7798422  77.9091314  23.9698757 120.7058725
  77.8938362  22.6715747 121.4843680  67.3852697  31.1396637 129.4936667
  68.0862157  31.7733120 129.6466061  66.9147812  31.4811368 128.7332306
  75.5107093  29.4814587 117.7784574  75.7866937  29.3671181 118.6878448
  74.6411592  29.0832072 117.7396747  75.4147525  15.5051352 124.8189323
  74.5010605  15.7355579 124.9871530  75.8440626  15.5889796 125.6703356
  75.1853983  23.6941244 127.3189217  74.5325433  23.9417152 126.6641670
  75.5634363  22.8805383 126.9851695  72.1461157  33.7300937 121.4217388
  72.3283552  32.9122593 121.8845140  72.9694143  33.9468630 120.9842278
  72.4803323  32.6569123 118.6832436  73.0091089  32.1461577 118.0702598
  72.7431542  32.3411653 119.5477969  62.9820415  30.6732992 126.4267770
  63.5673852  29.9276680 126.5595674  62.7845254  30.9836949 127.3104434
  65.8359071  33.7084239 121.4430212  65.1669446  34.1930367 120.9594252
  65.6971940  33.9553460 122.3573591  69.9764339  35.7427983 128.0412870
  70.5282647  35.9059604 128.8061956  70.3170533  36.3332421 127.3692895
  74.8275213  30.5689240 133.8961525  75.3715117  31.1819199 133.4016480
  74.2462058  31.1268819 134.4128538  61.2046648  21.9702694 118.2226144
  61.5000089  21.0613373 118.1693198  60.3034683  21.9490434 117.9007147
  73.1132726  33.6909958 125.0276553  72.9883866  32.8899698 124.5187498
  73.7711818  34.1856152 124.5390523  64.7340895  20.0458691 124.2053693
  64.0127480  20.6594659 124.0661166  65.5234150  20.5816456 124.1270339
  75.1767635  31.4918978 126.6556103  74.2297970  31.3724330 126.5834429
  75.5250408  30.6041476 126.7382364  62.9334489  19.6516792 118.3465469
  62.6047195  18.7714171 118.1640575  63.2873860  19.5964461 119.2341859
  72.1814068  31.2871695 122.8560455  72.0339031  30.3588402 123.0368025
  73.0067562  31.3091785 122.3717530  66.0476312  19.9389762 118.7140947
  66.3872385  20.4675683 117.9919555  66.4948433  20.2770168 119.4899514
  75.7848190  32.1100253 123.9425328  76.7094737  31.9043115 123.8049779
  75.6163493  31.8616655 124.8514669  68.0344460  18.4364383 116.9134240
  68.7552822  18.8145636 116.4097957  67.4109764  19.1553260 117.0169218
  72.1775582  19.1409532 117.8492572  72.3939197  20.0234170 117.5481400
  71.6969650  18.7495746 117.1198214  66.9174804  22.0995246 124.4263317
  66.7719384  22.4135549 125.3187598  66.4400007  22.7180146 123.8734215
  68.7771187  19.0897794 124.4744206  68.7632755  18.1938887 124.1376504
  69.4943615  19.0968457 125.1082492  75.5743506  32.6285921 119.2987419
  75.7480384  32.0632343 118.5461272  76.0672397  33.4286816 119.1166909
  68.1808083  17.9712174 119.7431776  68.3023994  17.0428820 119.9422664
  67.8910125  17.9850860 118.8310092  71.0499273  15.6567084 122.8798496
  71.0720970  15.7206417 121.9250476  71.4667332  14.8171593 123.0739002
  81.4282897  25.3922344 120.9177719  81.8714043  24.6429669 120.5196842
  80.5509408  25.3832480 120.5351451  76.5618679  31.9452685 116.3984317
  77.2569583  32.5659378 116.6171632  76.9041829  31.0948036 116.6736695
  78.4610102  29.3952391 117.9271648  78.9861426  29.7339664 117.2020968
  78.3732454  28.4599406 117.7434783  70.1230150  33.3086464 130.0561525
  70.4317277  33.0635611 130.9284224  70.9205632  33.5133103 129.5680395
  70.1450762  35.4624374 122.2866901  69.7055753  34.9700753 122.9799758
  70.8958879  34.9197342 122.0458977  62.6243101  31.6535915 122.2891529
  63.4501121  31.3539687 121.9090173  62.2737153  30.8843537 122.7381318
  67.5924635  31.0062383 124.3589203  66.9704644  30.3433088 124.0591431
  68.2629502  31.0323515 123.6762851  60.8251707  29.5722241 123.2480463
  59.9883615  29.1444416 123.0664464  60.7975352  29.7654685 124.1851254
  78.1504008  30.0285294 133.2322846  77.3599552  30.0109433 132.6927345
  77.9137362  30.5673588 133.9871883  78.2701883  26.8777761 130.5455575
  78.3199888  26.7127768 131.4871097  78.1615806  26.0105020 130.1553455
  67.1538142  29.5566306 117.8347664  67.3026262  30.2401771 117.1814336
  67.9604585  29.5371397 118.3497119  79.7720080  29.2974702 130.7897596
  79.4804888  29.6604683 131.6261057  79.1592211  28.5841711 130.6110928
  80.9715762  26.8627582 123.3100166  81.8062653  27.3017386 123.4737727
  81.1074891  26.3866235 122.4908412  78.0207268  24.4207317 129.2577654
  78.4961390  24.6134963 128.4496506  77.0972833  24.4766503 129.0121038
  64.9090775  25.5831484 118.8408732  64.6636816  24.6793814 119.0388943
  65.0786689  25.5848635 117.8988210  64.1786422  21.3159842 116.3394894
  63.4855667  21.3904197 115.6834930  63.9338174  20.5520185 116.8616411
  70.6533547  32.0514437 115.3059411  70.0807514  32.6704624 114.8529883
  71.2266341  32.6013799 115.8399333  76.7208937  21.2973077 127.4905960
  77.6726360  21.3971175 127.5118184  76.5512387  20.5051346 128.0004044
  74.7423316  18.3828660 127.6765361  74.1473249  18.6633673 126.9811849
  74.4573013  18.8722561 128.4482102  73.8730807  32.3351587 116.4367993
  74.8061480  32.2697149 116.6400869  73.7854020  33.1707854 115.9782526
  76.5018824  31.6517457 113.3971941  76.4232455  31.3177321 114.2907699
  77.3228490  32.1439225 113.3963413  79.1997015  24.5179197 126.6048259
  79.1673335  23.5795197 126.7907943  79.8097638  24.5963233 125.8714084
  71.0380346  23.3875250 112.6475463  71.9839450  23.2581458 112.7163881
  70.6594591  22.6489912 113.1244892  79.3491503  21.3090240 126.6506543
  78.8330552  20.5248697 126.4636471  80.2331452  20.9808957 126.8153062
  77.0102230  15.0531256 122.6102355  76.8127051  14.7446344 123.4945687
  77.6201936  15.7792895 122.7400285  85.0173565  25.5795204 125.7454296
  85.7476953  25.3180492 126.3062000  84.4080510  24.8423925 125.7856364
  83.0988862  23.7203066 126.3428747  82.3722025  23.5859031 125.7345239
  82.6836149  24.0279895 127.1485465  69.2223263  21.3125226 112.5830349
  68.3154718  21.0158339 112.6593062  69.4999244  21.0155044 111.7164635
  60.1401203  22.6331589 123.0329395  59.8203987  21.7796898 122.7403769
  59.5934631  22.8480168 123.7887362  63.9181111  25.3494030 126.7498902
  64.1367120  26.2811138 126.7686935  64.3306884  24.9902005 127.5353705
  70.8385328  15.8562116 118.7374590  70.0286057  15.5109201 119.1129836
  71.5269745  15.5469660 119.3262202  72.7675877  14.9340163 120.3598887
  73.3206915  15.3535616 121.0188910  73.0045963  14.0075911 120.4021843
  67.9922047  18.1712161 112.7242328  68.8541211  18.4967060 112.9838145
  68.1772392  17.3843657 112.2115394  60.0089463  26.2534501 125.0022517
  59.3152935  25.8388454 124.4892471  60.7562454  26.2955037 124.4055936
  76.1454684  17.0440688 119.8677551  75.5653353  17.7025492 119.4855603
  75.8790617  16.2218032 119.4564968  74.5958250  16.4445745 122.0698871
  75.0958029  16.5562280 121.2613190  75.2393858  16.1406798 122.7099680
  61.9226206  26.1852755 122.8788532  61.8996894  26.2840442 121.9270415
  62.2326842  27.0317906 123.2005698  64.5813584  28.2428910 126.9935146
  65.5356837  28.2112852 126.9265078  64.3826107  27.7819534 127.8085372
  74.9279562  19.2040778 118.9233899  74.0405417  19.4890429 118.7054094
  75.3433551  19.0434541 118.0761176  78.2794098  19.2287299 122.6388238
  79.0554488  19.7183752 122.9112855  77.5542232  19.6545353 123.0960108
  80.7166657  19.9414918 123.6962179  81.3111147  19.7010654 122.9855487
  80.7893240  19.2222049 124.3235715  62.9363812  33.7848529 124.0105344
  62.8018280  33.0248930 123.4443342  62.5195875  34.5089429 123.5434133
  74.0722775  28.9685453 113.0181919  74.7758625  29.1735455 113.6339575
  73.3485424  29.5362215 113.2831003  74.9020586  24.7195314 119.1384189
  74.8455787  25.1763865 118.2991822  75.4548928  23.9585999 118.9607032
  78.7125392  20.5085046 119.9634309  78.4562326  20.1081682 120.7942516
  78.0878260  21.2228840 119.8384448  83.0237729  23.2481119 122.4705600
  82.4637287  23.3174308 123.2437162  82.4181233  23.0722104 121.7505096
  66.0932938  34.6817846 124.2223786  65.9765322  35.6263279 124.1202477
  65.2725384  34.3791408 124.6109586  75.9809473  29.4067982 115.0680379
  76.8155077  28.9749180 114.8857854  75.8193816  29.2349996 115.9957274
  75.6355365  25.9100095 116.4336718  75.5804169  25.7444367 115.4925163
  75.0101420  26.6176128 116.5898908  68.9451490  15.4108204 116.0122037
  68.9330160  16.3550044 116.1690308  69.8374912  15.2278350 115.7181498
  67.1187452  35.3346108 127.4379715  68.0214699  35.3669718 127.7546210
  66.8924822  34.4046559 127.4526051  68.8741054  34.0877095 124.0989794
  67.9236685  34.0878956 123.9854166  69.1773540  33.3409829 123.5825828
  72.7603610  12.0050981 120.2667974  71.9936006  11.4509468 120.4124656
  73.1714315  12.0772850 121.1282125  84.6093748  39.9237633 125.1635556
  85.2472158  39.8044380 124.4598896  84.4914591  40.8718477 125.2223508
  81.4183454  39.8765061 125.0997081  81.0801966  39.7606126 124.2117615
  82.2873222  39.4756226 125.0798087  77.2770270  41.7300538 121.0893972
  76.7135135  41.6390475 120.3210259  77.1622665  40.9100442 121.5696464
  81.9003237  41.0299913 131.0583286  81.8891878  40.6352711 130.1863790
  82.0623877  40.2965986 131.6517058  74.8234702  43.2251729 123.9278192
  75.6155994  42.8842554 123.5124491  75.0631352  43.3346704 124.8480345
  82.8569829  45.3971505 116.4008436  82.2057808  45.9825586 116.0142450
  83.6514191  45.9277700 116.4603474  76.7825456  42.4860642 116.7995571
  77.5556332  41.9389630 116.6608447  77.1350855  43.3504892 117.0110032
  78.6210498  43.8137025 130.0062470  78.3300364  44.7182656 129.8909136
  79.2567483  43.8553552 130.7206540  79.5466705  41.1913873 126.5963830
  80.1430277  40.9669896 125.8820793  79.6041677  40.4498619 127.1989278
  79.1191733  38.6453309 114.4314021  79.3717254  38.1234830 113.6697484
  78.1816293  38.4819454 114.5340704  84.1635016  37.6489087 122.2388764
  84.9498106  37.2308510 121.8879181  84.4273721  38.5535179 122.4070412
  84.3345094  43.0861937 116.9377421  83.6990927  43.1596564 117.6498325
  84.0042500  43.6755536 116.2596500  89.5643443  37.5864320 123.1421742
  90.2968615  37.0163537 123.3759572  88.8082799  37.1985921 123.5828248
  78.8388022  40.5481415 116.6338396  78.7224280  39.8726318 117.3019480
  78.9490282  40.0613788 115.8170549  81.1819563  40.0091562 120.3385085
  80.8177770  39.4822183 121.0498006  82.0386679  39.6190031 120.1651570
  87.0868864  31.2985894 127.6016351  86.7552189  32.1681305 127.3777566
  86.4914477  30.9822178 128.2810381  80.8225050  35.0381461 115.3346433
  80.9899452  35.9061698 115.7016904  80.6322219  35.2008743 114.4107723
  83.5800383  43.4998440 127.0012264  83.2801106  44.4023479 126.8928071
  83.2351443  43.2330623 127.8533417  77.0312865  39.9512237 123.0348968
  76.1063361  39.8188451 123.2426660  77.2797278  40.7306456 123.5318911
  86.9797527  36.0180980 124.6809701  86.0714404  35.9496389 124.3868462
  86.9285123  36.4952925 125.5091527  80.8014271  37.4939119 116.3193100
  80.6813896  37.9396170 117.1578581  80.1066859  37.8424437 115.7606638
  74.3921676  39.5945511 123.8692757  74.5214057  39.8479990 124.7832169
  73.7119127  40.1873219 123.5497412  78.5621163  50.2642761 119.9683231
  78.4845193  51.2150586 120.0471712  77.9582807  49.9188633 120.6258158
  81.0538393  37.4370626 132.6244598  80.2771727  37.9964546 132.6147463
  81.6928956  37.9227409 133.1459468  88.8459173  34.2197419 126.4587575
  88.2033554  34.5129952 125.8127370  88.3414102  34.1050339 127.2640772
  86.4999337  37.9660592 117.1473434  87.4117193  38.1987979 116.9721132
  85.9908984  38.5497636 116.5848513  79.3084765  40.2456079 132.1862565
  80.0499450  40.7841123 131.9097389  78.6021751  40.8722368 132.3434117
  84.7840105  42.3885220 130.7834727  85.1923461  41.9467630 130.0389359
  84.0617366  41.8137847 131.0368920  81.1371175  37.3257827 128.1568284
  81.9832370  37.7497240 128.3002933  81.0769813  36.6691451 128.8506847
  85.1068919  42.9486410 124.5387016  84.4777782  43.1132125 123.8363084
  84.7194582  43.3628020 125.3097980  88.9858151  43.8840848 121.8931380
  88.3009190  44.2639750 121.3428413  89.0702001  44.4936175 122.6263327
  84.2870620  34.9862195 129.8149457  84.0431552  35.7404256 129.2783733
  84.5630551  35.3647543 130.6496705  86.2409083  41.5300807 128.4926723
  86.4525978  42.1732567 127.8161104  86.1938831  40.6963124 128.0248653
  83.8435312  34.1418628 125.3963295  82.9819791  34.4399882 125.6880033
  83.8697747  34.3589027 124.4644328  80.6596881  42.6860819 121.8037101
  81.1235227  42.9648522 121.0141723  80.3953679  41.7844263 121.6210192
  77.5520962  42.2332300 124.7416864  78.1222319  42.6619568 124.1034349
  78.1429074  41.9514885 125.4401050  79.5965767  38.8083971 118.6126666
  80.2989811  39.2605015 119.0800592  79.2646396  38.1667790 119.2406559
  78.0446129  37.3995728 132.9877875  77.4144790  38.0812008 133.2213272
  77.9382217  37.2878809 132.0431014  73.3391101  37.0667524 123.9143800
  72.5490155  37.3225052 123.4383910  73.8302349  37.8815861 124.0195840
  87.3554911  44.4072763 126.6649080  88.1772355  44.0052950 126.3831762
  87.3517314  44.3040997 127.6165196  75.2905847  37.4312103 120.8727276
  74.4937010  37.5430797 121.3910772  75.0631439  37.7698755 120.0068167
  81.1211514  43.9556806 128.8209791  81.1855947  44.4177213 129.6567963
  80.4122438  43.3254171 128.9492101  71.6228804  37.3198014 126.3458790
  71.8736843  38.2045024 126.6116366  72.1588353  37.1402616 125.5733882
  95.4460904  40.7511511 123.0134052  94.6924612  40.1818909 122.8578056
  95.5808445  40.7174176 123.9604687  80.8359532  45.6224914 118.6888771
  80.7005207  46.4676449 119.1173619  81.3769345  45.8244191 117.9254705
  77.3226872  31.7016493 135.3503126  76.9293817  31.1482692 136.0250771
  78.1393012  32.0127072 135.7409644  74.2888929  43.1400352 119.2616696
  74.8013450  43.9343602 119.4122261  74.9411642  42.4426642 119.1950298
  76.0983814  46.2566108 121.3439449  76.2750442  47.1784073 121.1560433
  76.8940648  45.9424527 121.7733829  80.2394833  33.1174373 132.9423383
  80.9804546  33.7181526 132.8627845  80.4712755  32.3752010 132.3841426
  75.3836171  38.3030740 131.2201613  75.2689686  37.4015997 131.5208712
  74.5280688  38.5494437 130.8686429  82.4628008  46.2448480 132.8189113
  82.0191863  45.4584859 132.5010018  83.1245222  46.4327631 132.1533004
  77.2215130  47.7744282 127.3449792  77.7722555  47.6461345 126.5726786
  76.3826605  48.0739171 126.9944685  84.5609246  46.5251280 130.8470515
  84.5427722  47.3460161 130.3550784  85.4829167  46.4005355 131.0720656
  81.0182301  44.0395409 131.6894023  81.5510637  43.2783698 131.4593331
  80.4896382  43.7469061 132.4318177  84.1851996  29.1455475 127.2187665
  83.8416265  30.0357117 127.1426775  84.5530958  28.9557133 126.3557250
  72.2537846  41.4689006 120.0376267  73.0913068  41.8786014 119.8209975
  72.4316114  40.5288448 120.0076461  84.1502278  39.1364087 115.7260100
  83.6348902  39.9068691 115.9648487  83.8779587  38.4629223 116.3493161
  81.7349389  33.9813787 120.7845338  80.8790986  33.5920638 120.6050977
  82.1476341  34.0605748 119.9245124  83.2648536  31.5160131 125.1836898
  82.7613332  31.4790266 124.3704703  83.5579143  32.4252873 125.2433555
  79.5091422  31.5998860 124.1903080  80.3744419  31.4041669 123.8308969
  79.5768931  31.3709212 125.1172436  89.1236552  41.8896441 117.6613273
  88.3465995  41.5507601 117.2168435  89.8028033  41.8949064 116.9868238
  83.9388581  37.0091179 117.5519881  83.6338717  37.3237328 118.4030024
  84.8919024  37.0872599 117.5947214  82.3835013  43.1681402 119.2012835
  81.8556375  42.4334162 118.8886072  81.8822516  43.9456078 118.9552803
  87.3627859  41.3630422 124.3179881  86.7051534  42.0529684 124.4060010
  88.1668259  41.7526854 124.6613868  77.1153741  33.8301068 121.5619446
  77.6897493  33.6076250 120.8292639  77.7024723  33.8989763 122.3148048
  86.1733318  39.7174795 122.3683823  86.6865200  40.3504787 122.8705533
  86.8234542  39.1175991 122.0027183  77.4423328  35.8605529 115.5815332
  76.6060640  36.1980216 115.9024606  77.3028098  35.7254509 114.6442469
  79.4176409  30.7042317 120.2894516  78.7640821  30.3891334 119.6651131
  79.3756883  30.0818058 121.0154339  80.5287613  40.9861612 112.2047808
  79.6214675  40.7550866 112.4038957  81.0258645  40.1899231 112.3921790
  83.4355692  49.6959119 115.1244494  82.7617391  49.9990816 115.7329452
  83.8221514  50.4988200 114.7749951  82.6514149  37.1924251 124.6142164
  81.7336710  37.4139198 124.4563852  83.0674293  37.2670561 123.7553871
  83.4349197  38.5915666 119.7444844  84.1821016  39.1037064 119.4351966
  83.7040786  38.2699719 120.6049237  81.7075847  41.0874207 116.7271798
  80.7987066  40.8033240 116.8244268  81.7370931  41.5073286 115.8675105
  86.9395114  44.6980797 120.4962966  86.4857441  43.8571706 120.5528156
  86.3089081  45.3342195 120.8337746  85.8828034  35.6272783 121.7263633
  85.1450791  35.1150169 122.0573876  86.1354807  35.1873164 120.9146910
  85.3828054  46.5357293 121.4312784  85.6751028  47.0962350 120.7125149
  85.8926674  46.8285854 122.1865943  85.9839661  28.4049035 122.3205402
  86.2898538  27.5446398 122.0331317  86.7092266  28.9966655 122.1204396
  72.2764017  38.8079721 120.7087000  72.0788417  38.2149082 119.9838067
  71.7210681  38.5031931 121.4262939  80.2560741  38.7002828 122.8281593
  80.3109351  37.7476664 122.7524070  79.4451943  38.8562267 123.3122892
  81.4051935  42.6282951 114.0659877  80.9671365  41.9118810 113.6065514
  82.1462376  42.8559066 113.5044968  78.1953101  37.3179887 120.5871972
  77.3820966  37.6174058 120.9937164  78.6912095  36.9235576 121.3046455
  80.3461679  47.3137644 122.5206237  80.3037858  47.5398491 121.5914769
  81.2624378  47.0801019 122.6692038  83.7927313  37.7821712 129.4186866
  84.1476700  38.0093185 130.2781332  84.4399444  38.1140089 128.7964121
  89.5225050  40.9040148 120.1236195  89.3842948  41.0941744 119.1957384
  89.1661268  41.6659531 120.5804246  77.6867176  34.8898243 126.2033207
  78.3266555  34.7487002 125.5056171  76.8544706  34.6032756 125.8271809
  89.5494429  42.9716675 125.1347467  89.9830936  42.8791964 125.9830521
  90.2626010  42.9474175 124.4967483  78.4627480  44.1900673 122.3168200
  79.2568078  43.6950994 122.1150775  77.7519172  43.6618537 121.9535905
  83.2822324  46.5718769 126.6680567  83.3359346  47.1409705 127.4358283
  82.4137105  46.7420654 126.3034604  74.7710243  38.3343755 118.3927952
  73.8407831  38.2728211 118.6097915  74.8667715  37.8119708 117.5964594
  74.6895792  34.8598568 120.9806194  74.9502609  35.7743901 120.8715355
  75.5112964  34.3923011 121.1302807  76.1620717  36.2736325 128.1505019
  76.8343771  36.0653687 127.5017667  75.3350504  36.0758411 127.7110251
  90.4109979  43.0140375 127.6680352  90.6045869  43.9186186 127.9139627
  90.3110597  42.5547795 128.5018937  82.0646289  32.8998266 130.1670679
  81.4174204  33.5988216 130.0735156  82.8347305  33.3334410 130.5346928
  85.4725087  43.1647118 133.2421233  85.3210594  42.9357670 132.3251316
  85.4629767  44.1217720 133.2552578  82.2410424  40.7379031 128.2267499
  83.1702484  40.8890191 128.0536466  81.8201454  40.8263052 127.3716146
  81.0398756  44.7629695 125.9966037  80.9009841  44.3948480 126.8691975
  80.2513352  45.2777335 125.8249995  81.6346908  49.8638792 117.3391573
  81.8098663  49.3926835 118.1537196  80.9479696  50.4904558 117.5672834
  82.5903971  44.1411298 123.3854875  82.2553803  44.1012068 124.2812524
  82.0907916  43.4756014 122.9125285  76.5648215  39.5478928 128.9107456
  76.4268013  38.8159167 129.5118995  77.4753138  39.4587828 128.6291643
  85.5263162  41.4867332 113.6591934  84.9092333  40.7614161 113.5624987
  85.0579651  42.2476693 113.3159008  79.1930515  39.2598887 128.3991135
  79.9030134  38.6192080 128.3577754  79.1499823  39.5111782 129.3217316
  87.1817294  46.1966241 131.3197715  87.1229840  45.5125461 130.6528298
  87.5836812  46.9385231 130.8678341  77.9059449  36.2464105 130.2186775
  77.3696806  35.7954844 130.8708371  77.3176158  36.3810014 129.4757239
  76.2007993  53.0128155 124.1131433  76.4404591  53.6446679 124.7910452
  75.3577189  52.6616195 124.3996793  77.3161708  35.7052757 112.7813239
  76.4391175  35.5841557 112.4175485  77.7919461  34.9138835 112.5292127
  87.1834701  44.1605825 129.5511694  86.2961480  43.8231746 129.6738093
  87.7533252  43.4288856 129.7880460  68.8363848  40.4929916 122.8754746
  69.5234888  40.1791646 122.2875761  68.6811977  41.3971281 122.6021997
  73.6398571  35.3820113 127.3039769  73.5556759  34.7745783 126.5690179
  72.8181277  35.8729131 127.3049266  80.7135855  48.8207277 126.5172937
  80.6406026  49.6262249 127.0292242  80.2713248  49.0199243 125.6920959
  80.5025634  48.0579047 120.0275759  79.7193156  48.6000727 120.1213984
  81.2018379  48.5753027 120.4270000  83.8122284  33.8673677 122.6709964
  84.3090984  33.1143639 122.3511035  83.0409266  33.9037993 122.1053174
  91.6652042  39.5714042 124.3128256  91.6541918  40.4538757 123.9422189
  90.7969421  39.2185593 124.1182793  83.1734538  48.7194111 128.6731096
  83.8862510  49.3541576 128.6006998  82.6824567  48.8157977 127.8571098
  84.8952065  42.6245364 120.2448388  83.9608344  42.7446826 120.0753092
  85.0728734  41.7217831 119.9808398  80.3957253  36.0091060 122.3981649
  80.0255041  35.4562100 123.0862555  80.8916346  35.4049193 121.8456649
  88.2824616  38.4662683 120.7798422  88.7485069  39.2990675 120.7058725
  88.7332117  38.0007665 121.4843680  78.2246452  46.4688555 129.4936667
  78.9255911  47.1025038 129.6466061  77.7541567  46.8103286 128.7332306
  86.3500848  44.8106504 117.7784574  86.6260691  44.6963099 118.6878448
  85.4805346  44.4123989 117.7396747  86.2541279  30.8343270 124.8189323
  85.3404359  31.0647497 124.9871530  86.6834381  30.9181714 125.6703356
  86.0247738  39.0233162 127.3189217  85.3719188  39.2709069 126.6641670
  86.4028118  38.2097300 126.9851695  82.9854912  49.0592855 121.4217388
  83.1677306  48.2414511 121.8845140  83.8087898  49.2760547 120.9842278
  83.3197077  47.9861040 118.6832436  83.8484844  47.4753495 118.0702598
  83.5825297  47.6703571 119.5477969  82.0735311  39.7652973 133.8055254
  81.3975948  39.6647102 134.4757630  82.8962945  39.6092187 134.2691252
  73.8214170  46.0024910 126.4267770  74.4067607  45.2568597 126.5595674
  73.6239008  46.3128866 127.3104434  76.6752825  49.0376157 121.4430212
  76.0063200  49.5222285 120.9594252  76.5365695  49.2845377 122.3573591
  68.4131825  38.5730510 125.1472213  68.4515924  38.0394100 125.9409331
  67.9072117  38.0465715 124.5283190  80.8158094  51.0719900 128.0412870
  81.3676402  51.2351522 128.8061956  81.1564287  51.6624338 127.3692895
  75.7922587  33.4195050 128.6434755  75.8563913  34.2809881 128.2312153
  75.7289707  32.8069052 127.9107114  75.2674859  35.4918183 132.2907789
  75.8946898  35.1095260 132.9045314  74.4102778  35.2732385 132.6563482
  85.6668968  45.8981158 133.8961525  86.2108872  46.5111116 133.4016480
  85.0855813  46.4560736 134.4128538  72.0440402  37.2994612 118.2226144
  72.3393843  36.3905290 118.1693198  71.1428438  37.2782351 117.9007147
  83.9526481  49.0201876 125.0276553  83.8277620  48.2191616 124.5187498
  84.6105572  49.5148069 124.5390523  75.5734649  35.3750609 124.2053693
  74.8521235  35.9886576 124.0661166  76.3627905  35.9108373 124.1270339
  86.0161389  46.8210896 126.6556103  85.0691725  46.7016247 126.5834429
  86.3644162  45.9333394 126.7382364  78.3760963  32.7105035 130.4794345
  78.8995364  32.9567332 131.2420654  78.1573296  33.5425070 130.0597482
  73.7728244  34.9808710 118.3465469  73.4440950  34.1006089 118.1640575
  74.1267614  34.9256378 119.2341859  83.0207823  46.6163612 122.8560455
  82.8732785  45.6880320 123.0368025  83.8461316  46.6383703 122.3717530
  76.8870067  35.2681679 118.7140947  77.2266139  35.7967601 117.9919555
  77.3342187  35.6062086 119.4899514  86.6241944  47.4392171 123.9425328
  87.5488492  47.2335032 123.8049779  86.4557248  47.1908572 124.8514669
  79.5813508  33.6518730 128.1644015  79.2410328  32.8526543 128.5664695
  78.8752514  33.9520441 127.5920848  80.2329979  30.7368043 126.6171338
  81.0556049  30.2628521 126.4950228  80.4768043  31.5158526 127.1170024
  78.8738214  33.7656301 116.9134240  79.5946576  34.1437554 116.4097957
  78.2503518  34.4845178 117.0169218  83.0169337  34.4701450 117.8492572
  83.2332951  35.3526088 117.5481400  82.5363404  34.0787663 117.1198214
  77.7568558  37.4287163 124.4263317  77.6113139  37.7427466 125.3187598
  77.2793762  38.0472064 123.8734215  79.6164941  34.4189711 124.4744206
  79.6026510  33.5230804 124.1376504  80.3337369  34.4260375 125.1082492
  81.4691072  34.8527051 126.5197334  81.2108850  35.7744122 126.5181664
  80.9376112  34.4557486 127.2097798  86.4137261  47.9577839 119.2987419
  86.5874138  47.3924261 118.5461272  86.9066152  48.7578733 119.1166909
  72.2314220  39.9692508 127.3650978  71.6867688  40.7452316 127.4971252
  73.1093570  40.3163312 127.2070099  79.0201837  33.3004091 119.7431776
  79.1417748  32.3720738 119.9422664  78.7303879  33.3142777 118.8310092
  81.8893027  30.9859002 122.8798496  81.9114724  31.0498335 121.9250476
  82.3061086  30.1463511 123.0739002  92.2676652  40.7214261 120.9177719
  92.7107798  39.9721587 120.5196842  91.3903162  40.7124398 120.5351451
  87.4012433  47.2744603 116.3984317  88.0963338  47.8951296 116.6171632
  87.7435583  46.4239954 116.6736695  73.0180242  39.0962404 130.2581135
  72.2761978  39.2445039 130.8445765  72.6972987  39.3570669 129.3947884
  89.3003856  44.7244308 117.9271648  89.8255180  45.0631581 117.2020968
  89.2126209  43.7891324 117.7434783  80.9623905  48.6378382 130.0561525
  81.2711031  48.3927529 130.9284224  81.7599387  48.8425021 129.5680395
  80.9844517  50.7916292 122.2866901  80.5449507  50.2992670 122.9799758
  81.7352634  50.2489259 122.0458977  73.4636856  46.9827833 122.2891529
  74.2894876  46.6831604 121.9090173  73.1130908  46.2135455 122.7381318
  78.4318389  46.3354301 124.3589203  77.8098398  45.6725006 124.0591431
  79.1023256  46.3615433 123.6762851  71.6645461  44.9014159 123.2480463
  70.8277369  44.4736333 123.0664464  71.6369106  45.0946602 124.1851254
  78.5042917  34.8136089 133.9521709  78.5531072  35.6898212 133.5699479
  79.0465431  34.2713482 133.3793352  88.9897762  45.3577212 133.2322846
  88.1993306  45.3401351 132.6927345  88.7531117  45.8965506 133.9871883
  89.1095637  42.2069678 130.5455575  89.1593642  42.0419686 131.4871097
  89.0009561  41.3396937 130.1553455  77.9931896  44.8858224 117.8347664
  78.1420016  45.5693689 117.1814336  78.7998339  44.8663314 118.3497119
  86.3999400  38.1900606 131.8614881  87.3009262  38.0507071 131.5698879
  86.4747374  38.3555061 132.8013059  80.7342205  35.5667461 130.7068068
  79.8645514  35.8601027 130.4350656  80.9701685  36.1507906 131.4275331
  90.6113834  44.6266620 130.7897596  90.3198642  44.9896601 131.6261057
  89.9985965  43.9133628 130.6110928  91.8109516  42.1919500 123.3100166
  92.6456408  42.6309304 123.4737727  91.9468645  41.7158153 122.4908412
  88.8601022  39.7499235 129.2577654  89.3355144  39.9426881 128.4496506
  87.9366588  39.8058420 129.0121038  75.7484529  40.9123402 118.8408732
  75.5030571  40.0085732 119.0388943  75.9180444  40.9140552 117.8988210
  83.4381239  31.7847078 128.2233488  83.9563183  32.5208105 127.8979977
  83.0836372  32.0911071 129.0580247  75.0180177  36.6451759 116.3394894
  74.3249421  36.7196114 115.6834930  74.7731928  35.8812103 116.8616411
  83.6893833  28.2047361 123.7434385  83.9695587  27.5370550 124.3694811
  84.4744440  28.3976456 123.2309048  81.4927302  47.3806355 115.3059411
  80.9201269  47.9996542 114.8529883  82.0660095  47.9305716 115.8399333
  87.5602691  36.6264995 127.4905960  88.5120114  36.7263092 127.5118184
  87.3906142  35.8343263 128.0004044  85.5817071  33.7120578 127.6765361
  84.9867003  33.9925591 126.9811849  85.2966768  34.2014479 128.4482102
  84.7124561  47.6643505 116.4367993  85.6455234  47.5989066 116.6400869
  84.6247774  48.4999772 115.9782526  87.3412578  46.9809375 113.3971941
  87.2626210  46.6469239 114.2907699  88.1622245  47.4731143 113.3963413
  90.0390769  39.8471114 126.6048259  90.0067089  38.9087115 126.7907943
  90.6491393  39.9255151 125.8714084  81.8774100  38.7167167 112.6475463
  82.8233205  38.5873375 112.7163881  81.4988345  37.9781829 113.1244892
  90.1885258  36.6382158 126.6506543  89.6724306  35.8540614 126.4636471
  91.0725206  36.3100874 126.8153062  87.8495985  30.3823173 122.6102355
  87.6520806  30.0738262 123.4945687  88.4595690  31.1084812 122.7400285
  95.8567319  40.9087121 125.7454296  96.5870708  40.6472409 126.3062000
  95.2474265  40.1715843 125.7856364  93.9382616  39.0494984 126.3428747
  93.2115780  38.9150949 125.7345239  93.5229903  39.3571812 127.1485465
  81.7612793  42.7684913 134.1076120  82.6815802  42.9463512 134.3016167
  81.7262376  41.8240959 133.9555820  80.0617017  36.6417144 112.5830349
  79.1548473  36.3450256 112.6593062  80.3392998  36.3446962 111.7164635
  70.9794958  37.9623507 123.0329395  70.6597742  37.1088815 122.7403769
  70.4328386  38.1772085 123.7887362  74.7574865  40.6785948 126.7498902
  74.9760875  41.6103056 126.7686935  75.1700639  40.3193923 127.5353705
  81.6779083  31.1854033 118.7374590  80.8679811  30.8401118 119.1129836
  82.3663500  30.8761577 119.3262202  83.6069631  30.2632080 120.3598887
  84.1600670  30.6827534 121.0188910  83.8439718  29.3367828 120.4021843
  79.6302730  36.2519154 136.1401651  79.5299457  37.2013511 136.0713742
  79.4124273  35.9237393 135.2677721  78.8315802  33.5004079 112.7242328
  79.6934966  33.8258977 112.9838145  79.0166146  32.7135575 112.2115394
  70.8483218  41.5826419 125.0022517  70.1546689  41.1680371 124.4892471
  71.5956209  41.6246955 124.4055936  86.9848438  32.3732605 119.8677551
  86.4047107  33.0317409 119.4855603  86.7184371  31.5509950 119.4564968
  85.4352005  31.7737663 122.0698871  85.9351783  31.8854198 121.2613190
  86.0787613  31.4698716 122.7099680  79.4934001  39.6816293 134.9566712
  79.0101082  40.4816653 135.1630601  79.5794940  39.6924238 134.0034156
  72.7619960  41.5144672 122.8788532  72.7390648  41.6132360 121.9270415
  73.0720597  42.3609823 123.2005698  75.4207338  43.5720827 126.9935146
  76.3750592  43.5404770 126.9265078  75.2219862  43.1111451 127.8085372
  76.0106720  42.1421943 129.5605944  76.8299609  42.6366022 129.5840781
  76.2843528  41.2253912 129.5323511  85.7673316  34.5332696 118.9233899
  84.8799171  34.8182346 118.7054094  86.1827305  34.3726459 118.0761176
  89.1187852  34.5579217 122.6388238  89.8948243  35.0475669 122.9112855
  88.3935987  34.9837271 123.0960108  91.5560411  35.2706836 123.6962179
  92.1504902  35.0302572 122.9855487  91.6286995  34.5513967 124.3235715
  73.7757567  49.1140447 124.0105344  73.6412035  48.3540848 123.4443342
  73.3589629  49.8381347 123.5434133  84.9116530  44.2977370 113.0181919
  85.6152380  44.5027373 113.6339575  84.1879179  44.8654132 113.2831003
  85.7414340  40.0487232 119.1384189  85.6849541  40.5055783 118.2991822
  86.2942683  39.2877916 118.9607032  89.5519146  35.8376964 119.9634309
  89.2956080  35.4373599 120.7942516  88.9272014  36.5520758 119.8384448
  93.8631484  38.5773037 122.4705600  93.3031042  38.6466226 123.2437162
  93.2574987  38.4014021 121.7505096  76.9326693  50.0109764 124.2223786
  76.8159077  50.9555196 124.1202477  76.1119139  49.7083326 124.6109586
  86.8203227  44.7359900 115.0680379  87.6548831  44.3041098 114.8857854
  86.6587570  44.5641913 115.9957274  86.4749119  41.2392013 116.4336718
  86.4197923  41.0736284 115.4925163  85.8495175  41.9468046 116.5898908
  71.2641634  36.4760077 130.2598141  71.9100498  35.9659031 130.7485366
  71.0558785  37.2128759 130.8341566  83.7895027  43.5440925 135.7590281
  84.6586186  43.7181577 135.3976916  83.3101778  44.3635342 135.6366011
  79.7845245  30.7400122 116.0122037  79.7723915  31.6841962 116.1690308
  80.6768667  30.5570267 115.7181498  77.9581207  50.6638026 127.4379715
  78.8608453  50.6961636 127.7546210  77.7318577  49.7338477 127.4526051
  79.7134809  49.4169012 124.0989794  78.7630440  49.4170874 123.9854166
  80.0167295  48.6701747 123.5825828  83.5997364  27.3342899 120.2667974
  82.8329760  26.7801385 120.4124656  84.0108069  27.4064767 121.1282125
  75.6039125  33.6227694 134.3573155  76.4670587  33.2664499 134.5676479
  75.0304536  33.2841589 135.0448559  95.4487502  55.2529551 125.1635556
  96.0865912  55.1336298 124.4598896  95.3308345  56.2010395 125.2223508
  92.2577209  55.2056979 125.0997081  91.9195720  55.0898044 124.2117615
  93.1266977  54.8048144 125.0798087  88.1164024  57.0592455 121.0893972
  87.5528889  56.9682392 120.3210259  88.0016419  56.2392360 121.5696464
  92.7396992  56.3591831 131.0583286  92.7285632  55.9644629 130.1863790
  92.9017631  55.6257903 131.6517058  85.6628456  58.5543647 123.9278192
  86.4549748  58.2134472 123.5124491  85.9025106  58.6638622 124.8480345
  93.6963583  60.7263423 116.4008436  93.0451563  61.3117503 116.0142450
  94.4907946  61.2569618 116.4603474  87.6219210  57.8152560 116.7995571
  88.3950086  57.2681547 116.6608447  87.9744609  58.6796809 117.0110032
  89.4604253  59.1428942 130.0062470  89.1694119  60.0474573 129.8909136
  90.0961237  59.1845470 130.7206540  90.3860460  56.5205791 126.5963830
  90.9824032  56.2961813 125.8820793  90.4435431  55.7790536 127.1989278
  89.9585488  53.9745226 114.4314021  90.2111009  53.4526748 113.6697484
  89.0210047  53.8111372 114.5340704  95.0028771  52.9781005 122.2388764
  95.7891860  52.5600428 121.8879181  95.2667475  53.8827097 122.4070412
  95.1738848  58.4153855 116.9377421  94.5384681  58.4888481 117.6498325
  94.8436255  59.0047454 116.2596500 100.4037198  52.9156238 123.1421742
 101.1362370  52.3455455 123.3759572  99.6476554  52.5277838 123.5828248
  89.6781777  55.8773332 116.6338396  89.5618035  55.2018236 117.3019480
  89.7884037  55.3905706 115.8170549  92.0213318  55.3383479 120.3385085
  91.6571525  54.8114100 121.0498006  92.8780434  54.9481948 120.1651570
  97.9262618  46.6277812 127.6016351  97.5945943  47.4973223 127.3777566
  97.3308232  46.3114096 128.2810381  91.6618805  50.3673379 115.3346433
  91.8293207  51.2353615 115.7016904  91.4715974  50.5300661 114.4107723
  94.4194138  58.8290358 127.0012264  94.1194861  59.7315397 126.8928071
  94.0745197  58.5622541 127.8533417  87.8706619  55.2804155 123.0348968
  86.9457116  55.1480369 123.2426660  88.1191032  56.0598374 123.5318911
  97.8191282  51.3472898 124.6809701  96.9108159  51.2788307 124.3868462
  97.7678877  51.8244843 125.5091527  91.6408025  52.8231037 116.3193100
  91.5207651  53.2688087 117.1578581  90.9460614  53.1716354 115.7606638
  85.2315430  54.9237428 123.8692757  85.3607811  55.1771907 124.7832169
  84.5512882  55.5165136 123.5497412  89.4014918  65.5934678 119.9683231
  89.3238947  66.5442503 120.0471712  88.7976561  65.2480551 120.6258158
  91.8932147  52.7662544 132.6244598  91.1165481  53.3256464 132.6147463
  92.5322710  53.2519327 133.1459468  99.6852928  49.5489337 126.4587575
  99.0427308  49.8421870 125.8127370  99.1807857  49.4342257 127.2640772
  97.3393092  53.2952510 117.1473434  98.2510948  53.5279896 116.9721132
  96.8302739  53.8789554 116.5848513  90.1478520  55.5747997 132.1862565
  90.8893204  56.1133041 131.9097389  89.4415505  56.2014286 132.3434117
  95.6233859  57.7177138 130.7834727  96.0317215  57.2759548 130.0389359
  94.9011121  57.1429765 131.0368920  91.9764929  52.6549744 128.1568284
  92.8226125  53.0789158 128.3002933  91.9163567  51.9983369 128.8506847
  95.9462674  58.2778328 124.5387016  95.3171536  58.4424042 123.8363084
  95.5588336  58.6919938 125.3097980  99.8251906  59.2132766 121.8931380
  99.1402944  59.5931667 121.3428413  99.9095755  59.8228093 122.6263327
  95.1264375  50.3154113 129.8149457  94.8825307  51.0696173 129.2783733
  95.4024305  50.6939460 130.6496705  97.0802837  56.8592725 128.4926723
  97.2919733  57.5024485 127.8161104  97.0332586  56.0255042 128.0248653
  94.6829066  49.4710546 125.3963295  93.8213545  49.7691799 125.6880033
  94.7091501  49.6880945 124.4644328  91.4990636  58.0152736 121.8037101
  91.9628981  58.2940439 121.0141723  91.2347434  57.1136181 121.6210192
  88.3914717  57.5624218 124.7416864  88.9616074  57.9911486 124.1034349
  88.9822829  57.2806802 125.4401050  90.4359522  54.1375889 118.6126666
  91.1383565  54.5896932 119.0800592  90.1040150  53.4959707 119.2406559
  88.8839883  52.7287645 132.9877875  88.2538544  53.4103926 133.2213272
  88.7775971  52.6170727 132.0431014  84.1784856  52.3959441 123.9143800
  83.3883910  52.6516970 123.4383910  84.6696103  53.2107779 124.0195840
  98.1948665  59.7364680 126.6649080  99.0166109  59.3344868 126.3831762
  98.1911068  59.6332915 127.6165196  86.1299601  52.7604021 120.8727276
  85.3330765  52.8722715 121.3910772  85.9025193  53.0990673 120.0068167
  91.9605269  59.2848724 128.8209791  92.0249701  59.7469131 129.6567963
  91.2516193  58.6546089 128.9492101  82.4622559  52.6489932 126.3458790
  82.7130597  53.5336942 126.6116366  82.9982107  52.4694533 125.5733882
 106.2854658  56.0803429 123.0134052 105.5318367  55.5110827 122.8578056
 106.4202200  56.0466093 123.9604687  91.6753286  60.9516831 118.6888771
  91.5398961  61.7968367 119.1173619  92.2163099  61.1536109 117.9254705
  88.1620626  47.0308411 135.3503126  87.7687572  46.4774610 136.0250771
  88.9786766  47.3418990 135.7409644  85.1282684  58.4692269 119.2616696
  85.6407204  59.2635520 119.4122261  85.7805397  57.7718560 119.1950298
  86.9377569  61.5858026 121.3439449  87.1144197  62.5075990 121.1560433
  87.7334402  61.2716445 121.7733829  91.0788587  48.4466290 132.9423383
  91.8198301  49.0473443 132.8627845  91.3106510  47.7043928 132.3841426
  86.2229925  53.6322657 131.2201613  86.1083440  52.7307915 131.5208712
  85.3674443  53.8786354 130.8686429  93.3021763  61.5740398 132.8189113
  92.8585617  60.7876776 132.5010018  93.9638976  61.7619548 132.1533004
  88.0608884  63.1036199 127.3449792  88.6116309  62.9753263 126.5726786
  87.2220360  63.4031088 126.9944685  95.4003001  61.8543198 130.8470515
  95.3821476  62.6752079 130.3550784  96.3222921  61.7297273 131.0720656
  91.8576055  59.3687327 131.6894023  92.3904392  58.6075615 131.4593331
  91.3290136  59.0760979 132.4318177  95.0245750  44.4747393 127.2187665
  94.6810019  45.3649035 127.1426775  95.3924713  44.2849051 126.3557250
  83.0931601  56.7980924 120.0376267  83.9306823  57.2077932 119.8209975
  83.2709868  55.8580366 120.0076461  94.9896033  54.4656004 115.7260100
  94.4742656  55.2360609 115.9648487  94.7173341  53.7921140 116.3493161
  92.5743144  49.3105705 120.7845338  91.7184740  48.9212555 120.6050977
  92.9870096  49.3897666 119.9245124  94.1042290  46.8452048 125.1836898
  93.6007086  46.8082183 124.3704703  94.3972897  47.7544791 125.2433555
  90.3485176  46.9290778 124.1903080  91.2138173  46.7333587 123.8308969
  90.4162685  46.7001130 125.1172436  99.9630307  57.2188359 117.6613273
  99.1859750  56.8799518 117.2168435 100.6421788  57.2240982 116.9868238
  94.7782336  52.3383096 117.5519881  94.4732472  52.6529245 118.4030024
  95.7312778  52.4164516 117.5947214  93.2228768  58.4973320 119.2012835
  92.6950129  57.7626079 118.8886072  92.7216271  59.2747996 118.9552803
  98.2021614  56.6922340 124.3179881  97.5445288  57.3821602 124.4060010
  99.0062013  57.0818772 124.6613868  87.9547495  49.1592986 121.5619446
  88.5291247  48.9368167 120.8292639  88.5418478  49.2281680 122.3148048
  97.0127073  55.0466713 122.3683823  97.5258954  55.6796705 122.8705533
  97.6628297  54.4467908 122.0027183  88.2817083  51.1897447 115.5815332
  87.4454395  51.5272133 115.9024606  88.1421852  51.0546427 114.6442469
  90.2570163  46.0334235 120.2894516  89.6034575  45.7183252 119.6651131
  90.2150637  45.4109975 121.0154339  91.3681368  56.3153530 112.2047808
  90.4608430  56.0842783 112.4038957  91.8652400  55.5191149 112.3921790
  94.2749447  65.0251037 115.1244494  93.6011146  65.3282734 115.7329452
  94.6615269  65.8280117 114.7749951  93.4907903  52.5216168 124.6142164
  92.5730465  52.7431115 124.4563852  93.9068047  52.5962479 123.7553871
  94.2742951  53.9207584 119.7444844  95.0214770  54.4328981 119.4351966
  94.5434541  53.5991637 120.6049237  92.5469601  56.4166125 116.7271798
  91.6380821  56.1325158 116.8244268  92.5764685  56.8365203 115.8675105
  97.7788869  60.0272714 120.4962966  97.3251196  59.1863624 120.5528156
  97.1482836  60.6634113 120.8337746  96.7221788  50.9564700 121.7263633
  95.9844545  50.4442087 122.0573876  96.9748562  50.5165082 120.9146910
  96.2221808  61.8649211 121.4312784  96.5144782  62.4254268 120.7125149
  96.7320429  62.1577772 122.1865943  96.8233416  43.7340952 122.3205402
  97.1292293  42.8738316 122.0331317  97.5486021  44.3258572 122.1204396
  83.1157772  54.1371639 120.7087000  82.9182172  53.5441000 119.9838067
  82.5604436  53.8323849 121.4262939  91.0954495  54.0294745 122.8281593
  91.1503105  53.0768582 122.7524070  90.2845697  54.1854184 123.3122892
  92.2445689  57.9574868 114.0659877  91.8065119  57.2410727 113.6065514
  92.9856130  58.1850983 113.5044968  89.0346855  52.6471805 120.5871972
  88.2214721  52.9465976 120.9937164  89.5305850  52.2527494 121.3046455
  91.1855433  62.6429562 122.5206237  91.1431612  62.8690408 121.5914769
  92.1018132  62.4092937 122.6692038  94.6321067  53.1113630 129.4186866
  94.9870455  53.3385103 130.2781332  95.2793198  53.4432006 128.7964121
 100.3618804  56.2332065 120.1236195 100.2236703  56.4233661 119.1957384
 100.0055023  56.9951448 120.5804246  88.5260930  50.2190161 126.2033207
  89.1660309  50.0778920 125.5056171  87.6938461  49.9324674 125.8271809
 100.3888184  58.3008592 125.1347467 100.8224690  58.2083882 125.9830521
 101.1019764  58.2766093 124.4967483  89.3021234  59.5192591 122.3168200
  90.0961833  59.0242911 122.1150775  88.5912926  58.9910454 121.9535905
  94.1216079  61.9010687 126.6680567  94.1753101  62.4701623 127.4358283
  93.2530860  62.0712572 126.3034604  85.6103998  53.6635673 118.3927952
  84.6801586  53.6020128 118.6097915  85.7061470  53.1411626 117.5964594
  85.5289547  50.1890486 120.9806194  85.7896364  51.1035819 120.8715355
  86.3506719  49.7214928 121.1302807  87.0014472  51.6028243 128.1505019
  87.6737525  51.3945605 127.5017667  86.1744258  51.4050329 127.7110251
 101.2503733  58.3432293 127.6680352 101.4439623  59.2478104 127.9139627
 101.1504351  57.8839712 128.5018937  92.9040044  48.2290184 130.1670679
  92.2567959  48.9280133 130.0735156  93.6741059  48.6626328 130.5346928
  96.3118842  58.4939036 133.2421233  96.1604348  58.2649588 132.3251316
  96.3023521  59.4509637 133.2552578  93.0804178  56.0670949 128.2267499
  94.0096238  56.2182108 128.0536466  92.6595208  56.1554969 127.3716146
  91.8792510  60.0921613 125.9966037  91.7403596  59.7240397 126.8691975
  91.0907106  60.6069252 125.8249995  92.4740662  65.1930710 117.3391573
  92.6492418  64.7218753 118.1537196  91.7873450  65.8196476 117.5672834
  93.4297725  59.4703216 123.3854875  93.0947558  59.4303986 124.2812524
  92.9301671  58.8047932 122.9125285  87.4041969  54.8770846 128.9107456
  87.2661767  54.1451085 129.5118995  88.3146893  54.7879746 128.6291643
  96.3656917  56.8159250 113.6591934  95.7486087  56.0906078 113.5624987
  95.8973405  57.5768610 113.3159008  90.0324270  54.5890805 128.3991135
  90.7423888  53.9483997 128.3577754  89.9893578  54.8403700 129.3217316
  98.0211049  61.5258158 131.3197715  97.9623595  60.8417379 130.6528298
  98.4230567  62.2677148 130.8678341  88.7453204  51.5756023 130.2186775
  88.2090561  51.1246761 130.8708371  88.1569912  51.7101932 129.4757239
  87.0401747  68.3420072 124.1131433  87.2798346  68.9738596 124.7910452
  86.1970944  67.9908112 124.3996793  88.1555463  51.0344674 112.7813239
  87.2784929  50.9133475 112.4175485  88.6313216  50.2430753 112.5292127
  98.0228456  59.4897742 129.5511694  97.1355235  59.1523664 129.6738093
  98.5927007  58.7580774 129.7880460  79.6757603  55.8221834 122.8754746
  80.3628643  55.5083564 122.2875761  79.5205732  56.7263199 122.6021997
  84.4792325  50.7112031 127.3039769  84.3950514  50.1037700 126.5690179
  83.6575031  51.2021049 127.3049266  91.5529609  64.1499195 126.5172937
  91.4799781  64.9554166 127.0292242  91.1107002  64.3491161 125.6920959
  91.3419389  63.3870965 120.0275759  90.5586911  63.9292645 120.1213984
  92.0412134  63.9044944 120.4270000  94.6516039  49.1965594 122.6709964
  95.1484738  48.4435557 122.3511035  93.8803020  49.2329911 122.1053174
 102.5045796  54.9005960 124.3128256 102.4935673  55.7830675 123.9422189
 101.6363176  54.5477511 124.1182793  94.0128293  64.0486029 128.6731096
  94.7256265  64.6833494 128.6006998  93.5218321  64.1449895 127.8571098
  95.7345820  57.9537281 120.2448388  94.8002098  58.0738744 120.0753092
  95.9122488  57.0509748 119.9808398  91.2351008  51.3382977 122.3981649
  90.8648795  50.7854018 123.0862555  91.7310100  50.7341111 121.8456649
  99.1218371  53.7954601 120.7798422  99.5878823  54.6282592 120.7058725
  99.5725871  53.3299582 121.4843680  89.0640206  61.7980472 129.4936667
  89.7649666  62.4316955 129.6466061  88.5935321  62.1395204 128.7332306
  97.1894602  60.1398422 117.7784574  97.4654446  60.0255017 118.6878448
  96.3199101  59.7415907 117.7396747  97.0935034  46.1635188 124.8189323
  96.1798113  46.3939415 124.9871530  97.5228135  46.2473632 125.6703356
  96.8641492  54.3525080 127.3189217  96.2112942  54.6000987 126.6641670
  97.2421872  53.5389218 126.9851695  93.8248666  64.3884773 121.4217388
  94.0071061  63.5706429 121.8845140  94.6481652  64.6052465 120.9842278
  94.1590832  63.3152958 118.6832436  94.6878598  62.8045413 118.0702598
  94.4219051  62.9995488 119.5477969  92.9129065  55.0944891 133.8055254
  92.2369702  54.9939020 134.4757630  93.7356699  54.9384104 134.2691252
  84.6607924  61.3316827 126.4267770  85.2461361  60.5860515 126.5595674
  84.4632763  61.6420784 127.3104434  87.5146580  64.3668075 121.4430212
  86.8456955  64.8514202 120.9594252  87.3759449  64.6137295 122.3573591
  79.2525579  53.9022427 125.1472213  79.2909679  53.3686018 125.9409331
  78.7465872  53.3757633 124.5283190  91.6551848  66.4011818 128.0412870
  92.2070156  66.5643440 128.8061956  91.9958042  66.9916256 127.3692895
  86.6316341  48.7486968 128.6434755  86.6957668  49.6101799 128.2312153
  86.5683462  48.1360970 127.9107114  86.1068614  50.8210101 132.2907789
  86.7340653  50.4387178 132.9045314  85.2496533  50.6024302 132.6563482
  96.5062722  61.2273076 133.8961525  97.0502626  61.8403034 133.4016480
  95.9249567  61.7852654 134.4128538  82.8834157  52.6286530 118.2226144
  83.1787598  51.7197208 118.1693198  81.9822192  52.6074269 117.9007147
  94.7920235  64.3493794 125.0276553  94.6671375  63.5483534 124.5187498
  95.4499326  64.8439987 124.5390523  86.4128404  50.7042526 124.2053693
  85.6914989  51.3178494 124.0661166  87.2021659  51.2400291 124.1270339
  96.8555144  62.1502814 126.6556103  95.9085479  62.0308165 126.5834429
  97.2037917  61.2625312 126.7382364  89.2154717  48.0396953 130.4794345
  89.7389119  48.2859249 131.2420654  88.9967050  48.8716988 130.0597482
  84.6121998  50.3100627 118.3465469  84.2834704  49.4298006 118.1640575
  84.9661369  50.2548296 119.2341859  93.8601577  61.9455530 122.8560455
  93.7126539  61.0172237 123.0368025  94.6855071  61.9675621 122.3717530
  87.7263821  50.5973597 118.7140947  88.0659894  51.1259518 117.9919555
  88.1735942  50.9354003 119.4899514  97.4635699  62.7684089 123.9425328
  98.3882246  62.5626950 123.8049779  97.2951002  62.5200490 124.8514669
  90.4207262  48.9810648 128.1644015  90.0804083  48.1818461 128.5664695
  89.7146268  49.2812359 127.5920848  91.0723734  46.0659960 126.6171338
  91.8949803  45.5920438 126.4950228  91.3161798  46.8450444 127.1170024
  89.7131968  49.0948219 116.9134240  90.4340331  49.4729471 116.4097957
  89.0897273  49.8137095 117.0169218  93.8563091  49.7993368 117.8492572
  94.0726706  50.6818006 117.5481400  93.3757159  49.4079581 117.1198214
  88.5962313  52.7579081 124.4263317  88.4506893  53.0719384 125.3187598
  88.1187516  53.3763981 123.8734215  90.4558696  49.7481629 124.4744206
  90.4420264  48.8522722 124.1376504  91.1731124  49.7552293 125.1082492
  92.3084826  50.1818969 126.5197334  92.0502604  51.1036040 126.5181664
  91.7769867  49.7849404 127.2097798  97.2531015  63.2869756 119.2987419
  97.4267893  62.7216179 118.5461272  97.7459906  64.0870651 119.1166909
  83.0707975  55.2984425 127.3650978  82.5261443  56.0744233 127.4971252
  83.9487325  55.6455230 127.2070099  89.8595592  48.6296009 119.7431776
  89.9811503  47.7012655 119.9422664  89.5697634  48.6434695 118.8310092
  92.7286782  46.3150920 122.8798496  92.7508479  46.3790253 121.9250476
  93.1454841  45.4755428 123.0739002 103.1070406  56.0506179 120.9177719
 103.5501552  55.3013504 120.5196842 102.2296917  56.0416315 120.5351451
  98.2406188  62.6036521 116.3984317  98.9357092  63.2243213 116.6171632
  98.5829338  61.7531872 116.6736695  83.8573997  54.4254322 130.2581135
  83.1155733  54.5736957 130.8445765  83.5366741  54.6862587 129.3947884
 100.1397611  60.0536226 117.9271648 100.6648935  60.3923499 117.2020968
 100.0519963  59.1183241 117.7434783  91.8017659  63.9670300 130.0561525
  92.1104786  63.7219447 130.9284224  92.5993141  64.1716938 129.5680395
  91.8238271  66.1208209 122.2866901  91.3843262  65.6284588 122.9799758
  92.5746388  65.5781177 122.0458977  84.3030610  62.3119750 122.2891529
  85.1288630  62.0123522 121.9090173  83.9524662  61.5427373 122.7381318
  89.2712144  61.6646218 124.3589203  88.6492153  61.0016924 124.0591431
  89.9417011  61.6907350 123.6762851  82.5039215  60.2306077 123.2480463
  81.6671124  59.8028251 123.0664464  82.4762861  60.4238520 124.1851254
  89.3436671  50.1428007 133.9521709  89.3924827  51.0190129 133.5699479
  89.8859185  49.6005400 133.3793352  99.8291517  60.6869130 133.2322846
  99.0387060  60.6693269 132.6927345  99.5924871  61.2257423 133.9871883
  99.9489392  57.5361596 130.5455575  99.9987397  57.3711604 131.4871097
  99.8403315  56.6688855 130.1553455  88.8325651  60.2150142 117.8347664
  88.9813771  60.8985606 117.1814336  89.6392094  60.1955232 118.3497119
  97.2393154  53.5192524 131.8614881  98.1403017  53.3798989 131.5698879
  97.3141129  53.6846979 132.8013059  91.5735960  50.8959379 130.7068068
  90.7039269  51.1892945 130.4350656  91.8095440  51.4799824 131.4275331
 101.4507589  59.9558538 130.7897596 101.1592397  60.3188518 131.6261057
 100.8379720  59.2425546 130.6110928 102.6503271  57.5211417 123.3100166
 103.4850162  57.9601221 123.4737727 102.7862400  57.0450071 122.4908412
  99.6994777  55.0791152 129.2577654 100.1748898  55.2718799 128.4496506
  98.7760342  55.1350338 129.0121038  86.5878284  56.2415319 118.8408732
  86.3424325  55.3377649 119.0388943  86.7574198  56.2432470 117.8988210
  94.2774993  47.1138996 128.2233488  94.7956937  47.8500023 127.8979977
  93.9230126  47.4202989 129.0580247  85.8573931  51.9743677 116.3394894
  85.1643176  52.0488032 115.6834930  85.6125683  51.2104021 116.8616411
  94.5287588  43.5339278 123.7434385  94.8089341  42.8662467 124.3694811
  95.3138194  43.7268374 123.2309048  92.3321056  62.7098272 115.3059411
  91.7595023  63.3288459 114.8529883  92.9053850  63.2597634 115.8399333
  98.3996446  51.9556912 127.4905960  99.3513869  52.0555010 127.5118184
  98.2299896  51.1635181 128.0004044  96.4210825  49.0412496 127.6765361
  95.8260757  49.3217508 126.9811849  96.1360522  49.5306397 128.4482102
  95.5518316  62.9935422 116.4367993  96.4848989  62.9280984 116.6400869
  95.4641529  63.8291689 115.9782526  98.1806333  62.3101293 113.3971941
  98.1019964  61.9761156 114.2907699  99.0015999  62.8023061 113.3963413
 100.8784524  55.1763032 126.6048259 100.8460844  54.2379033 126.7907943
 101.4885147  55.2547069 125.8714084  92.7167855  54.0459085 112.6475463
  93.6626959  53.9165293 112.7163881  92.3382100  53.3073747 113.1244892
 101.0279012  51.9674075 126.6506543 100.5118061  51.1832532 126.4636471
 101.9118961  51.6392792 126.8153062  98.6889739  45.7115091 122.6102355
  98.4914560  45.4030179 123.4945687  99.2989445  46.4376730 122.7400285
 106.6961074  56.2379039 125.7454296 107.4264462  55.9764327 126.3062000
 106.0868019  55.5007761 125.7856364 104.7776371  54.3786901 126.3428747
 104.0509534  54.2442866 125.7345239 104.3623658  54.6863730 127.1485465
  92.6006547  58.0976831 134.1076120  93.5209557  58.2755430 134.3016167
  92.5656130  57.1532877 133.9555820  90.9010772  51.9709061 112.5830349
  89.9942227  51.6742174 112.6593062  91.1786753  51.6738879 111.7164635
  81.8188712  53.2915425 123.0329395  81.4991496  52.4380733 122.7403769
  81.2722140  53.5064003 123.7887362  85.5968620  56.0077866 126.7498902
  85.8154629  56.9394974 126.7686935  86.0094393  55.6485840 127.5353705
  92.5172837  46.5145951 118.7374590  91.7073566  46.1693036 119.1129836
  93.2057254  46.2053495 119.3262202  94.4463386  45.5923998 120.3598887
  94.9994424  46.0119451 121.0188910  94.6833472  44.6659746 120.4021843
  90.4696485  51.5811072 136.1401651  90.3693212  52.5305429 136.0713742
  90.2518027  51.2529310 135.2677721  89.6709556  48.8295997 112.7242328
  90.5328720  49.1550895 112.9838145  89.8559900  48.0427493 112.2115394
  81.6876972  56.9118336 125.0022517  80.9940444  56.4972289 124.4892471
  82.4349963  56.9538873 124.4055936  97.8242193  47.7024523 119.8677551
  97.2440862  48.3609327 119.4855603  97.5578125  46.8801868 119.4564968
  96.2745759  47.1029581 122.0698871  96.7745538  47.2146115 121.2613190
  96.9181367  46.7990634 122.7099680  90.3327755  55.0108210 134.9566712
  89.8494837  55.8108571 135.1630601  90.4188694  55.0216155 134.0034156
  83.6013715  56.8436590 122.8788532  83.5784403  56.9424277 121.9270415
  83.9114351  57.6901741 123.2005698  86.2601092  58.9012745 126.9935146
  87.2144346  58.8696687 126.9265078  86.0613616  58.4403369 127.8085372
  86.8500475  57.4713861 129.5605944  87.6693364  57.9657940 129.5840781
  87.1237282  56.5545829 129.5323511  96.6067071  49.8624613 118.9233899
  95.7192926  50.1474264 118.7054094  97.0221060  49.7018377 118.0761176
  99.9581607  49.8871134 122.6388238 100.7341997  50.3767587 122.9112855
  99.2329741  50.3129189 123.0960108 102.3954166  50.5998754 123.6962179
 102.9898656  50.3594490 122.9855487 102.4680749  49.8805884 124.3235715
  84.6151321  64.4432365 124.0105344  84.4805789  63.6832765 123.4443342
  84.1983384  65.1673264 123.5434133  95.7510284  59.6269288 113.0181919
  96.4546134  59.8319291 113.6339575  95.0272933  60.1946050 113.2831003
  96.5808095  55.3779149 119.1384189  96.5243296  55.8347701 118.2991822
  97.1336437  54.6169834 118.9607032 100.3912900  51.1668881 119.9634309
 100.1349835  50.7665517 120.7942516  99.7665769  51.8812675 119.8384448
 104.7025238  53.9064955 122.4705600 104.1424796  53.9758144 123.2437162
 104.0968742  53.7305939 121.7505096  87.7720447  65.3401682 124.2223786
  87.6552831  66.2847114 124.1202477  86.9512893  65.0375243 124.6109586
  97.6596982  60.0651817 115.0680379  98.4942586  59.6333016 114.8857854
  97.4981325  59.8933831 115.9957274  97.3142874  56.5683931 116.4336718
  97.2591678  56.4028202 115.4925163  96.6888929  57.2759964 116.5898908
  82.1035389  51.8051995 130.2598141  82.7494252  51.2950949 130.7485366
  81.8952540  52.5420677 130.8341566  94.6288781  58.8732843 135.7590281
  95.4979941  59.0473495 135.3976916  94.1495533  59.6927259 135.6366011
  90.6238999  46.0692040 116.0122037  90.6117669  47.0133880 116.1690308
  91.5162421  45.8862185 115.7181498  88.7974961  65.9929944 127.4379715
  89.7002208  66.0253554 127.7546210  88.5712331  65.0630394 127.4526051
  90.5528563  64.7460930 124.0989794  89.6024194  64.7462792 123.9854166
  90.8561049  63.9993665 123.5825828  94.4391119  42.6634816 120.2667974
  93.6723515  42.1093303 120.4124656  94.8501824  42.7356685 121.1282125
  86.4432880  48.9519612 134.3573155  87.3064341  48.5956417 134.5676479
  85.8698291  48.6133507 135.0448559 106.2881257  70.5821468 125.1635556
 106.9259667  70.4628216 124.4598896 106.1702100  71.5302312 125.2223508
 103.0970963  70.5348897 125.0997081 102.7589475  70.4189961 124.2117615
 103.9660731  70.1340062 125.0798087  98.9557779  72.3884373 121.0893972
  98.3922644  72.2974310 120.3210259  98.8410174  71.5684277 121.5696464
 103.5790746  71.6883748 131.0583286 103.5679387  71.2936547 130.1863790
 103.7411386  70.9549821 131.6517058  96.5022211  73.8835565 123.9278192
  97.2943503  73.5426389 123.5124491  96.7418861  73.9930540 124.8480345
 104.5357337  76.0555341 116.4008436 103.8845317  76.6409421 116.0142450
 105.3301700  76.5861536 116.4603474  98.4612965  73.1444478 116.7995571
  99.2343841  72.5973465 116.6608447  98.8138364  74.0088727 117.0110032
 100.2998007  74.4720860 130.0062470 100.0087873  75.3766491 129.8909136
 100.9354992  74.5137388 130.7206540 101.2254214  71.8497709 126.5963830
 101.8217786  71.6253731 125.8820793 101.2829186  71.1082454 127.1989278
 100.7979242  69.3037144 114.4314021 101.0504763  68.7818665 113.6697484
  99.8603802  69.1403289 114.5340704 105.8422525  68.3072922 122.2388764
 106.6285615  67.8892345 121.8879181 106.1061230  69.2119014 122.4070412
 106.0132603  73.7445773 116.9377421 105.3778436  73.8180399 117.6498325
 105.6830009  74.3339371 116.2596500 111.2430952  68.2448156 123.1421742
 111.9756124  67.6747372 123.3759572 110.4870308  67.8569756 123.5828248
 100.5175531  71.2065250 116.6338396 100.4011789  70.5310153 117.3019480
 100.6277791  70.7197624 115.8170549 102.8607072  70.6675397 120.3385085
 102.4965279  70.1406018 121.0498006 103.7174188  70.2773866 120.1651570
 108.7656373  61.9569730 127.6016351 108.4339698  62.8265141 127.3777566
 108.1701986  61.6406014 128.2810381 102.5012559  65.6965297 115.3346433
 102.6686961  66.5645533 115.7016904 102.3109728  65.8592578 114.4107723
 105.2587892  74.1582276 127.0012264 104.9588615  75.0607314 126.8928071
 104.9138952  73.8914459 127.8533417  98.7100374  70.6096072 123.0348968
  97.7850870  70.4772287 123.2426660  98.9584787  71.3890292 123.5318911
 108.6585036  66.6764816 124.6809701 107.7501913  66.6080224 124.3868462
 108.6072632  67.1536761 125.5091527 102.4801780  68.1522954 116.3193100
 102.3601405  68.5980005 117.1578581 101.7854368  68.5008272 115.7606638
  96.0709185  70.2529346 123.8692757  96.2001566  70.5063825 124.7832169
  95.3906636  70.8457054 123.5497412 100.2408672  80.9226596 119.9683231
 100.1632702  81.8734421 120.0471712  99.6370316  80.5772468 120.6258158
 102.7325902  68.0954461 132.6244598 101.9559236  68.6548382 132.6147463
 103.3716465  68.5811244 133.1459468 110.5246682  64.8781254 126.4587575
 109.8821063  65.1713787 125.8127370 110.0201611  64.7634175 127.2640772
 108.1786846  68.6244427 117.1473434 109.0904702  68.8571814 116.9721132
 107.6696493  69.2081472 116.5848513 100.9872274  70.9039915 132.1862565
 101.7286959  71.4424959 131.9097389 100.2809260  71.5306203 132.3434117
 106.4627614  73.0469055 130.7834727 106.8710970  72.6051466 130.0389359
 105.7404875  72.4721683 131.0368920 102.8158684  67.9841662 128.1568284
 103.6619879  68.4081076 128.3002933 102.7557322  67.3275286 128.8506847
 106.7856428  73.6070246 124.5387016 106.1565291  73.7715960 123.8363084
 106.3982091  74.0211855 125.3097980 110.6645660  74.5424684 121.8931380
 109.9796698  74.9223585 121.3428413 110.7489510  75.1520010 122.6263327
 105.9658129  65.6446030 129.8149457 105.7219061  66.3988091 129.2783733
 106.2418060  66.0231378 130.6496705 107.9196592  72.1884643 128.4926723
 108.1313487  72.8316403 127.8161104 107.8726340  71.3546959 128.0248653
 105.5222821  64.8002463 125.3963295 104.6607300  65.0983717 125.6880033
 105.5485256  65.0172862 124.4644328 102.3384390  73.3444654 121.8037101
 102.8022736  73.6232357 121.0141723 102.0741188  72.4428098 121.6210192
  99.2308471  72.8916135 124.7416864  99.8009828  73.3203404 124.1034349
  99.8216583  72.6098720 125.4401050 101.2753276  69.4667806 118.6126666
 101.9777320  69.9188850 119.0800592 100.9433905  68.8251625 119.2406559
  99.7233638  68.0579563 132.9877875  99.0932298  68.7395844 133.2213272
  99.6169726  67.9462645 132.0431014  95.0178610  67.7251359 123.9143800
  94.2277664  67.9808887 123.4383910  95.5089858  68.5399697 124.0195840
 109.0342420  75.0656598 126.6649080 109.8559864  74.6636785 126.3831762
 109.0304823  74.9624832 127.6165196  96.9693356  68.0895938 120.8727276
  96.1724519  68.2014632 121.3910772  96.7418948  68.4282590 120.0068167
 102.7999023  74.6140641 128.8209791 102.8643456  75.0761049 129.6567963
 102.0909947  73.9838006 128.9492101  93.3016313  67.9781849 126.3458790
  93.5524352  68.8628859 126.6116366  93.8375862  67.7986451 125.5733882
 117.1248413  71.4095347 123.0134052 116.3712121  70.8402745 122.8578056
 117.2595954  71.3758011 123.9604687 102.5147041  76.2808749 118.6888771
 102.3792716  77.1260285 119.1173619 103.0556853  76.4828027 117.9254705
  99.0014381  62.3600329 135.3503126  98.6081326  61.8066527 136.0250771
  99.8180521  62.6710907 135.7409644  95.9676438  73.7984187 119.2616696
  96.4800959  74.5927437 119.4122261  96.6199151  73.1010477 119.1950298
  97.7771323  76.9149943 121.3439449  97.9537951  77.8367908 121.1560433
  98.5728157  76.6008362 121.7733829 101.9182342  63.7758208 132.9423383
 102.6592055  64.3765361 132.8627845 102.1500264  63.0335846 132.3841426
  97.0623680  68.9614575 131.2201613  96.9477195  68.0599832 131.5208712
  96.2068197  69.2078272 130.8686429 104.1415517  76.9032315 132.8189113
 103.6979372  76.1168694 132.5010018 104.8032731  77.0911466 132.1533004
  98.9002639  78.4328117 127.3449792  99.4510064  78.3045180 126.5726786
  98.0614114  78.7323006 126.9944685 106.2396755  77.1835115 130.8470515
 106.2215231  78.0043996 130.3550784 107.1616675  77.0589191 131.0720656
 102.6969810  74.6979245 131.6894023 103.2298146  73.9367533 131.4593331
 102.1683891  74.4052897 132.4318177 105.8639505  59.8039311 127.2187665
 105.5203774  60.6940952 127.1426775 106.2318467  59.6140968 126.3557250
  93.9325355  72.1272841 120.0376267  94.7700577  72.5369850 119.8209975
  94.1103623  71.1872283 120.0076461 105.8289787  69.7947922 115.7260100
 105.3136411  70.5652527 115.9648487 105.5567096  69.1213058 116.3493161
 103.4136898  64.6397623 120.7845338 102.5578495  64.2504473 120.6050977
 103.8263850  64.7189583 119.9245124 104.9436045  62.1743966 125.1836898
 104.4400841  62.1374101 124.3704703 105.2366652  63.0836709 125.2433555
 101.1878931  62.2582696 124.1903080 102.0531928  62.0625504 123.8308969
 101.2556440  62.0293047 125.1172436 110.8024061  72.5480277 117.6613273
 110.0253504  72.2091436 117.2168435 111.4815542  72.5532900 116.9868238
 105.6176090  67.6675014 117.5519881 105.3126226  67.9821163 118.4030024
 106.5706533  67.7456434 117.5947214 104.0622522  73.8265237 119.2012835
 103.5343884  73.0917997 118.8886072 103.5610025  74.6039914 118.9552803
 109.0415368  72.0214258 124.3179881 108.3839043  72.7113519 124.4060010
 109.8455768  72.4110690 124.6613868  98.7941250  64.4884904 121.5619446
  99.3685002  64.2660085 120.8292639  99.3812232  64.5573598 122.3148048
 107.8520827  70.3758630 122.3683823 108.3652709  71.0088622 122.8705533
 108.5022051  69.7759826 122.0027183  99.1210837  66.5189365 115.5815332
  98.2848149  66.8564051 115.9024606  98.9815607  66.3838344 114.6442469
 101.0963918  61.3626152 120.2894516 100.4428330  61.0475170 119.6651131
 101.0544392  60.7401893 121.0154339 102.2075122  71.6445448 112.2047808
 101.3002184  71.4134701 112.4038957 102.7046154  70.8483067 112.3921790
 105.1143201  80.3542955 115.1244494 104.4404900  80.6574652 115.7329452
 105.5009023  81.1572035 114.7749951 104.3301658  67.8508086 124.6142164
 103.4124219  68.0723033 124.4563852 104.7461802  67.9254397 123.7553871
 105.1136706  69.2499502 119.7444844 105.8608525  69.7620899 119.4351966
 105.3828295  68.9283554 120.6049237 103.3863356  71.7458042 116.7271798
 102.4774575  71.4617075 116.8244268 103.4158440  72.1657121 115.8675105
 108.6182623  75.3564632 120.4962966 108.1644950  74.5155542 120.5528156
 107.9876590  75.9926030 120.8337746 107.5615543  66.2856618 121.7263633
 106.8238300  65.7734004 122.0573876 107.8142316  65.8457000 120.9146910
 107.0615563  77.1941129 121.4312784 107.3538537  77.7546186 120.7125149
 107.5714183  77.4869690 122.1865943 107.6627170  59.0632870 122.3205402
 107.9686047  58.2030233 122.0331317 108.3879775  59.6550490 122.1204396
  93.9551526  69.4663557 120.7087000  93.7575926  68.8732917 119.9838067
  93.3998190  69.1615767 121.4262939 101.9348250  69.3586663 122.8281593
 101.9896860  68.4060499 122.7524070 101.1239452  69.5146102 123.3122892
 103.0839444  73.2866786 114.0659877 102.6458874  72.5702645 113.6065514
 103.8249885  73.5142901 113.5044968  99.8740610  67.9763723 120.5871972
  99.0608475  68.2757893 120.9937164 100.3699604  67.5819412 121.3046455
 102.0249188  77.9721480 122.5206237 101.9825367  78.1982326 121.5914769
 102.9411887  77.7384854 122.6692038 105.4714822  68.4405547 129.4186866
 105.8264209  68.6677020 130.2781332 106.1186953  68.7723924 128.7964121
 111.2012559  71.5623983 120.1236195 111.0630457  71.7525579 119.1957384
 110.8448777  72.3243366 120.5804246  99.3654685  65.5482078 126.2033207
 100.0054064  65.4070837 125.5056171  98.5332215  65.2616592 125.8271809
 111.2281938  73.6300510 125.1347467 111.6618445  73.5375799 125.9830521
 111.9413519  73.6058011 124.4967483 100.1414989  74.8484509 122.3168200
 100.9355587  74.3534829 122.1150775  99.4306681  74.3202372 121.9535905
 104.9609833  77.2302604 126.6680567 105.0146855  77.7993541 127.4358283
 104.0924614  77.4004489 126.3034604  96.4497752  68.9927590 118.3927952
  95.5195340  68.9312046 118.6097915  96.5455224  68.4703543 117.5964594
  96.3683301  65.5182403 120.9806194  96.6290118  66.4327737 120.8715355
  97.1900473  65.0506846 121.1302807  97.8408226  66.9320160 128.1505019
  98.5131280  66.7237523 127.5017667  97.0138013  66.7342246 127.7110251
 112.0897488  73.6724211 127.6680352 112.2833378  74.5770021 127.9139627
 111.9898106  73.2131630 128.5018937 103.7433798  63.5582101 130.1670679
 103.0961713  64.2572051 130.0735156 104.5134814  63.9918245 130.5346928
 107.1512596  73.8230954 133.2421233 106.9998103  73.5941505 132.3251316
 107.1417276  74.7801555 133.2552578 103.9197933  71.3962866 128.2267499
 104.8489993  71.5474026 128.0536466 103.4988963  71.4846887 127.3716146
 102.7186265  75.4213531 125.9966037 102.5797350  75.0532315 126.8691975
 101.9300861  75.9361170 125.8249995 103.3134417  80.5222627 117.3391573
 103.4886172  80.0510670 118.1537196 102.6267205  81.1488393 117.5672834
 104.2691480  74.7995133 123.3854875 103.9341312  74.7595903 124.2812524
 103.7695425  74.1339849 122.9125285  98.2435724  70.2062763 128.9107456
  98.1055522  69.4743002 129.5118995  99.1540647  70.1171664 128.6291643
 107.2050671  72.1451168 113.6591934 106.5879842  71.4197996 113.5624987
 106.7367160  72.9060528 113.3159008 100.8718024  69.9182723 128.3991135
 101.5817643  69.2775915 128.3577754 100.8287332  70.1695618 129.3217316
 108.8604803  76.8550076 131.3197715 108.8017349  76.1709296 130.6528298
 109.2624321  77.5969066 130.8678341  99.5846958  66.9047941 130.2186775
  99.0484315  66.4538679 130.8708371  98.9963667  67.0393849 129.4757239
  97.8795502  83.6711990 124.1131433  98.1192100  84.3030514 124.7910452
  97.0364698  83.3200030 124.3996793  98.9949217  66.3636592 112.7813239
  98.1178684  66.2425393 112.4175485  99.4706970  65.5722670 112.5292127
 108.8622210  74.8189660 129.5511694 107.9748989  74.4815582 129.6738093
 109.4320761  74.0872691 129.7880460  90.5151357  71.1513752 122.8754746
  91.2022397  70.8375482 122.2875761  90.3599486  72.0555116 122.6021997
  95.3186080  66.0403948 127.3039769  95.2344268  65.4329618 126.5690179
  94.4968786  66.5312967 127.3049266 102.3923364  79.4791112 126.5172937
 102.3193535  80.2846084 127.0292242 101.9500757  79.6783078 125.6920959
 102.1813143  78.7162882 120.0275759 101.3980665  79.2584563 120.1213984
 102.8805888  79.2336862 120.4270000 105.4909793  64.5257512 122.6709964
 105.9878493  63.7727474 122.3511035 104.7196775  64.5621829 122.1053174
 113.3439551  70.2297877 124.3128256 113.3329427  71.1122593 123.9422189
 112.4756930  69.8769428 124.1182793 104.8522047  79.3777946 128.6731096
 105.5650019  80.0125411 128.6006998 104.3612076  79.4741812 127.8571098
 106.5739574  73.2829199 120.2448388 105.6395853  73.4030662 120.0753092
 106.7516243  72.3801666 119.9808398 102.0744762  66.6674895 122.3981649
 101.7042550  66.1145935 123.0862555 102.5703855  66.0633028 121.8456649
 109.9612125  69.1246518 120.7798422 110.4272578  69.9574510 120.7058725
 110.4119626  68.6591500 121.4843680  99.9033961  77.1272390 129.4936667
 100.6043420  77.7608873 129.6466061  99.4329076  77.4687121 128.7332306
 108.0288357  75.4690340 117.7784574 108.3048200  75.3546934 118.6878448
 107.1592855  75.0707825 117.7396747 107.9328788  61.4927105 124.8189323
 107.0191868  61.7231332 124.9871530 108.3621890  61.5765549 125.6703356
 107.7035247  69.6816997 127.3189217 107.0506697  69.9292905 126.6641670
 108.0815627  68.8681136 126.9851695 104.6642421  79.7176691 121.4217388
 104.8464815  78.8998346 121.8845140 105.4875407  79.9344383 120.9842278
 104.9984586  78.6444876 118.6832436 105.5272352  78.1337330 118.0702598
 105.2612806  78.3287406 119.5477969 103.7522820  70.4236808 133.8055254
 103.0763457  70.3230938 134.4757630 104.5750454  70.2676022 134.2691252
  95.5001679  76.6608745 126.4267770  96.0855116  75.9152433 126.5595674
  95.3026517  76.9712702 127.3104434  98.3540334  79.6959992 121.4430212
  97.6850709  80.1806120 120.9594252  98.2153204  79.9429213 122.3573591
  90.0919334  69.2314345 125.1472213  90.1303433  68.6977936 125.9409331
  89.5859626  68.7049551 124.5283190 102.4945603  81.7303736 128.0412870
 103.0463911  81.8935357 128.8061956 102.8351796  82.3208174 127.3692895
  97.4710096  64.0778886 128.6434755  97.5351422  64.9393717 128.2312153
  97.4077216  63.4652887 127.9107114  96.9462368  66.1502018 132.2907789
  97.5734407  65.7679096 132.9045314  96.0890287  65.9316220 132.6563482
 107.3456477  76.5564993 133.8961525 107.8896381  77.1694952 133.4016480
 106.7643322  77.1144572 134.4128538  93.7227911  67.9578447 118.2226144
  94.0181352  67.0489126 118.1693198  92.8215947  67.9366187 117.9007147
 105.6313990  79.6785711 125.0276553 105.5065129  78.8775451 124.5187498
 106.2893081  80.1731905 124.5390523  97.2522158  66.0334444 124.2053693
  96.5308744  66.6470412 124.0661166  98.0415414  66.5692209 124.1270339
 107.6948898  77.4794731 126.6556103 106.7479234  77.3600083 126.5834429
 108.0431671  76.5917230 126.7382364 100.0548472  63.3688870 130.4794345
 100.5782873  63.6151167 131.2420654  99.8360805  64.2008905 130.0597482
  95.4515753  65.6392545 118.3465469  95.1228459  64.7589924 118.1640575
  95.8055123  65.5840214 119.2341859 104.6995332  77.2747448 122.8560455
 104.5520294  76.3464155 123.0368025 105.5248825  77.2967538 122.3717530
  98.5657576  65.9265515 118.7140947  98.9053648  66.4551436 117.9919555
  99.0129696  66.2645921 119.4899514 108.3029453  78.0976006 123.9425328
 109.2276001  77.8918868 123.8049779 108.1344757  77.8492408 124.8514669
 101.2601017  64.3102565 128.1644015 100.9197837  63.5110379 128.5664695
 100.5540023  64.6104276 127.5920848 101.9117488  61.3951878 126.6171338
 102.7343558  60.9212356 126.4950228 102.1555552  62.1742362 127.1170024
 100.5525723  64.4240136 116.9134240 101.2734085  64.8021389 116.4097957
  99.9291027  65.1429013 117.0169218 104.6956846  65.1285285 117.8492572
 104.9120460  66.0109923 117.5481400 104.2150913  64.7371499 117.1198214
  99.4356067  68.0870999 124.4263317  99.2900648  68.4011302 125.3187598
  98.9581271  68.7055899 123.8734215 101.2952450  65.0773547 124.4744206
 101.2814019  64.1814640 124.1376504 102.0124878  65.0844210 125.1082492
 103.1478581  65.5110887 126.5197334 102.8896359  66.4327957 126.5181664
 102.6163621  65.1141321 127.2097798 108.0924770  78.6161674 119.2987419
 108.2661647  78.0508096 118.5461272 108.5853661  79.4162569 119.1166909
  93.9101729  70.6276343 127.3650978  93.3655197  71.4036151 127.4971252
  94.7881079  70.9747147 127.2070099 100.6989346  63.9587927 119.7431776
 100.8205257  63.0304573 119.9422664 100.4091388  63.9726613 118.8310092
 103.5680536  61.6442837 122.8798496 103.5902233  61.7082170 121.9250476
 103.9848595  60.8047346 123.0739002 113.9464161  71.3798097 120.9177719
 114.3895307  70.6305422 120.5196842 113.0690671  71.3708233 120.5351451
 109.0799942  77.9328438 116.3984317 109.7750847  78.5535131 116.6171632
 109.4223092  77.0823789 116.6736695  94.6967751  69.7546239 130.2581135
  93.9549487  69.9028875 130.8445765  94.3760496  70.0154505 129.3947884
 110.9791365  75.3828144 117.9271648 111.5042689  75.7215417 117.2020968
 110.8913718  74.4475159 117.7434783 102.6411414  79.2962217 130.0561525
 102.9498540  79.0511364 130.9284224 103.4386896  79.5008856 129.5680395
 102.6632026  81.4500127 122.2866901 102.2237016  80.9576506 122.9799758
 103.4140143  80.9073095 122.0458977  95.1424365  77.6411668 122.2891529
  95.9682385  77.3415440 121.9090173  94.7918417  76.8719290 122.7381318
 100.1105898  76.9938136 124.3589203  99.4885907  76.3308841 124.0591431
 100.7810765  77.0199268 123.6762851  93.3432970  75.5597994 123.2480463
  92.5064878  75.1320169 123.0664464  93.3156615  75.7530438 124.1851254
 100.1830426  65.4719924 133.9521709 100.2318581  66.3482047 133.5699479
 100.7252940  64.9297317 133.3793352 110.6685271  76.0161047 133.2322846
 109.8780815  75.9985186 132.6927345 110.4318626  76.5549341 133.9871883
 110.7883146  72.8653514 130.5455575 110.8381151  72.7003521 131.4871097
 110.6797070  71.9980773 130.1553455  99.6719405  75.5442060 117.8347664
  99.8207525  76.2277524 117.1814336 100.4785848  75.5247150 118.3497119
 108.0786909  68.8484442 131.8614881 108.9796771  68.7090907 131.5698879
 108.1534883  69.0138897 132.8013059 102.4129714  66.2251297 130.7068068
 101.5433023  66.5184863 130.4350656 102.6489194  66.8091742 131.4275331
 112.2901343  75.2850455 130.7897596 111.9986151  75.6480436 131.6261057
 111.6773474  74.5717464 130.6110928 113.4897025  72.8503335 123.3100166
 114.3243917  73.2893139 123.4737727 113.6256154  72.3741988 122.4908412
 110.5388531  70.4083070 129.2577654 111.0142653  70.6010716 128.4496506
 109.6154097  70.4642256 129.0121038  97.4272038  71.5707237 118.8408732
  97.1818080  70.6669567 119.0388943  97.5967953  71.5724388 117.8988210
 105.1168748  62.4430914 128.2233488 105.6350692  63.1791940 127.8979977
 104.7623881  62.7494907 129.0580247  96.6967686  67.3035595 116.3394894
  96.0036930  67.3779950 115.6834930  96.4519437  66.5395938 116.8616411
 105.3681342  58.8631196 123.7434385 105.6483096  58.1954385 124.3694811
 106.1531949  59.0560292 123.2309048 103.1714811  78.0390190 115.3059411
 102.5988778  78.6580377 114.8529883 103.7447604  78.5889552 115.8399333
 109.2390200  67.2848830 127.4905960 110.1907623  67.3846928 127.5118184
 109.0693651  66.4927099 128.0004044 107.2604580  64.3704413 127.6765361
 106.6654512  64.6509426 126.9811849 106.9754277  64.8598314 128.4482102
 106.3912070  78.3227340 116.4367993 107.3242743  78.2572902 116.6400869
 106.3035283  79.1583607 115.9782526 109.0200087  77.6393210 113.3971941
 108.9413719  77.3053074 114.2907699 109.8409754  78.1314978 113.3963413
 111.7178278  70.5054950 126.6048259 111.6854598  69.5670950 126.7907943
 112.3278902  70.5838986 125.8714084 103.5561609  69.3751003 112.6475463
 104.5020714  69.2457211 112.7163881 103.1775854  68.6365665 113.1244892
 111.8672767  67.2965993 126.6506543 111.3511815  66.5124450 126.4636471
 112.7512715  66.9684710 126.8153062 109.5283494  61.0407009 122.6102355
 109.3308315  60.7322097 123.4945687 110.1383199  61.7668648 122.7400285
 117.5354828  71.5670957 125.7454296 118.2658217  71.3056245 126.3062000
 116.9261774  70.8299679 125.7856364 115.6170125  69.7078819 126.3428747
 114.8903289  69.5734784 125.7345239 115.2017412  70.0155648 127.1485465
 103.4400302  73.4268749 134.1076120 104.3603311  73.6047348 134.3016167
 103.4049885  72.4824794 133.9555820 101.7404526  67.3000979 112.5830349
 100.8335982  67.0034092 112.6593062 102.0180507  67.0030797 111.7164635
  92.6582467  68.6207343 123.0329395  92.3385251  67.7672651 122.7403769
  92.1115895  68.8355921 123.7887362  96.4362374  71.3369784 126.7498902
  96.6548384  72.2686891 126.7686935  96.8488148  70.9777758 127.5353705
 103.3566592  61.8437869 118.7374590 102.5467320  61.4984954 119.1129836
 104.0451009  61.5345413 119.3262202 105.2857140  60.9215916 120.3598887
 105.8388179  61.3411369 121.0188910 105.5227227  59.9951664 120.4021843
 101.3090239  66.9102989 136.1401651 101.2086966  67.8597346 136.0713742
 101.0911781  66.5821228 135.2677721 100.5103311  64.1587914 112.7242328
 101.3722475  64.4842813 112.9838145 100.6953655  63.3719410 112.2115394
  92.5270727  72.2410254 125.0022517  91.8334198  71.8264207 124.4892471
  93.2743718  72.2830791 124.4055936 108.6635947  63.0316441 119.8677551
 108.0834616  63.6901245 119.4855603 108.3971880  62.2093785 119.4564968
 107.1139514  62.4321498 122.0698871 107.6139292  62.5438033 121.2613190
 107.7575122  62.1282551 122.7099680 101.1721509  70.3400128 134.9566712
 100.6888591  71.1400488 135.1630601 101.2582449  70.3508073 134.0034156
  94.4407469  72.1728508 122.8788532  94.4178157  72.2716195 121.9270415
  94.7508106  73.0193659 123.2005698  97.0994847  74.2304663 126.9935146
  98.0538101  74.1988605 126.9265078  96.9007371  73.7695287 127.8085372
  97.6894229  72.8005779 129.5605944  98.5087118  73.2949858 129.5840781
  97.9631037  71.8837747 129.5323511 107.4460825  65.1916531 118.9233899
 106.5586680  65.4766182 118.7054094 107.8614814  65.0310295 118.0761176
 110.7975361  65.2163052 122.6388238 111.5735752  65.7059505 122.9112855
 110.0723496  65.6421106 123.0960108 113.2347920  65.9290671 123.6962179
 113.8292411  65.6886407 122.9855487 113.3074504  65.2097802 124.3235715
  95.4545076  79.7724282 124.0105344  95.3199544  79.0124683 123.4443342
  95.0377138  80.4965182 123.5434133 106.5904039  74.9561206 113.0181919
 107.2939889  75.1611208 113.6339575 105.8666688  75.5237968 113.2831003
 107.4201849  70.7071067 119.1384189 107.3637050  71.1639619 118.2991822
 107.9730192  69.9461752 118.9607032 111.2306655  66.4960799 119.9634309
 110.9743589  66.0957435 120.7942516 110.6059523  67.2104593 119.8384448
 115.5418993  69.2356872 122.4705600 114.9818551  69.3050062 123.2437162
 114.9362496  69.0597857 121.7505096  98.6114202  80.6693599 124.2223786
  98.4946586  81.6139032 124.1202477  97.7906648  80.3667161 124.6109586
 108.4990736  75.3943735 115.0680379 109.3336340  74.9624934 114.8857854
 108.3375079  75.2225749 115.9957274 108.1536628  71.8975848 116.4336718
 108.0985432  71.7320120 115.4925163 107.5282684  72.6051881 116.5898908
  92.9429143  67.1343913 130.2598141  93.5888007  66.6242867 130.7485366
  92.7346294  67.8712594 130.8341566 105.4682536  74.2024760 135.7590281
 106.3373695  74.3765412 135.3976916 104.9889287  75.0219177 135.6366011
 101.4632754  61.3983957 116.0122037 101.4511424  62.3425797 116.1690308
 102.3556176  61.2154103 115.7181498  99.6368716  81.3221861 127.4379715
 100.5395962  81.3545471 127.7546210  99.4106086  80.3922312 127.4526051
 101.3922318  80.0752848 124.0989794 100.4417949  80.0754709 123.9854166
 101.6954804  79.3285582 123.5825828 105.2784873  57.9926734 120.2667974
 104.5117269  57.4385221 120.4124656 105.6895578  58.0648603 121.1282125
  97.2826634  64.2811530 134.3573155  98.1458096  63.9248335 134.5676479
  96.7092045  63.9425425 135.0448559 117.1275011  85.9113386 125.1635556
 117.7653421  85.7920133 124.4598896 117.0095854  86.8594230 125.2223508
 113.9364718  85.8640814 125.0997081 113.5983229  85.7481879 124.2117615
 114.8054486  85.4631979 125.0798087 109.7951533  87.7176291 121.0893972
 109.2316398  87.6266228 120.3210259 109.6803928  86.8976195 121.5696464
 107.3415965  89.2127482 123.9278192 108.1337257  88.8718307 123.5124491
 107.5812615  89.3222457 124.8480345 115.3751092  91.3847258 116.4008436
 114.7239072  91.9701339 116.0142450 116.1695455  91.9153453 116.4603474
 109.3006719  88.4736396 116.7995571 110.0737595  87.9265383 116.6608447
 109.6532118  89.3380645 117.0110032 112.0647969  87.1789626 126.5963830
 112.6611541  86.9545649 125.8820793 112.1222940  86.4374372 127.1989278
 111.6372997  84.6329062 114.4314021 111.8898518  84.1110583 113.6697484
 110.6997556  84.4695207 114.5340704 116.6816280  83.6364840 122.2388764
 117.4679369  83.2184263 121.8879181 116.9454984  84.5410932 122.4070412
 116.8526357  89.0737690 116.9377421 116.2172190  89.1472317 117.6498325
 116.5223764  89.6631289 116.2596500 122.0824707  83.5740073 123.1421742
 122.8149879  83.0039290 123.3759572 121.3264063  83.1861674 123.5828248
 111.3569286  86.5357168 116.6338396 111.2405544  85.8602071 117.3019480
 111.4671546  86.0489542 115.8170549 113.7000827  85.9967315 120.3385085
 113.3359034  85.4697936 121.0498006 114.5567943  85.6065784 120.1651570
 119.6050127  77.2861647 127.6016351 119.2733452  78.1557058 127.3777566
 119.0095741  76.9697931 128.2810381 113.3406314  81.0257214 115.3346433
 113.5080716  81.8937451 115.7016904 113.1503483  81.1884496 114.4107723
 116.0981647  89.4874193 127.0012264 115.7982370  90.3899232 126.8928071
 115.7532706  89.2206376 127.8533417 109.5494128  85.9387990 123.0348968
 108.6244625  85.8064204 123.2426660 109.7978541  86.7182209 123.5318911
 119.4978791  82.0056733 124.6809701 118.5895668  81.9372142 124.3868462
 119.4466386  82.4828678 125.5091527 113.3195534  83.4814872 116.3193100
 113.1995160  83.9271923 117.1578581 112.6248123  83.8300190 115.7606638
 106.9102939  85.5821264 123.8692757 107.0395320  85.8355743 124.7832169
 106.2300391  86.1748972 123.5497412 111.0802427  96.2518514 119.9683231
 111.0026456  97.2026339 120.0471712 110.4764070  95.9064386 120.6258158
 121.3640437  80.2073172 126.4587575 120.7214817  80.5005705 125.8127370
 120.8595365  80.0926092 127.2640772 119.0180601  83.9536345 117.1473434
 119.9298457  84.1863732 116.9721132 118.5090248  84.5373389 116.5848513
 113.6552438  83.3133580 128.1568284 114.5013634  83.7372993 128.3002933
 113.5951076  82.6567204 128.8506847 117.6250183  88.9362164 124.5387016
 116.9959045  89.1007878 123.8363084 117.2375845  89.3503773 125.3097980
 121.5039415  89.8716601 121.8931380 120.8190453  90.2515503 121.3428413
 121.5883264  90.4811928 122.6263327 116.8051884  80.9737948 129.8149457
 116.5612816  81.7280009 129.2783733 117.0811814  81.3523296 130.6496705
 116.3616575  80.1294381 125.3963295 115.5001054  80.4275635 125.6880033
 116.3879010  80.3464780 124.4644328 113.1778145  88.6736572 121.8037101
 113.6416490  88.9524275 121.0141723 112.9134943  87.7720016 121.6210192
 110.0702226  88.2208053 124.7416864 110.6403583  88.6495322 124.1034349
 110.6610338  87.9390638 125.4401050 112.1147031  84.7959724 118.6126666
 112.8171074  85.2480768 119.0800592 111.7827659  84.1543543 119.2406559
 110.5627392  83.3871481 132.9877875 109.9326053  84.0687761 133.2213272
 110.4563480  83.2754562 132.0431014 105.8572365  83.0543277 123.9143800
 105.0671419  83.3100805 123.4383910 106.3483612  83.8691614 124.0195840
 107.8087110  83.4187856 120.8727276 107.0118273  83.5306550 121.3910772
 107.5812702  83.7574508 120.0068167 104.1410068  83.3073767 126.3458790
 104.3918106  84.1920777 126.6116366 104.6769616  83.1278369 125.5733882
 127.9642167  86.7387264 123.0134052 127.2105876  86.1694662 122.8578056
 128.0989709  86.7049929 123.9604687 113.3540795  91.6100667 118.6888771
 113.2186470  92.4552202 119.1173619 113.8950608  91.8119944 117.9254705
 109.8408135  77.6892246 135.3503126 109.4475081  77.1358445 136.0250771
 110.6574275  78.0002825 135.7409644 106.8070193  89.1276105 119.2616696
 107.3194713  89.9219355 119.4122261 107.4592906  88.4302395 119.1950298
 108.6165078  92.2441861 121.3439449 108.7931706  93.1659826 121.1560433
 109.4121911  91.9300280 121.7733829 112.7576096  79.1050126 132.9423383
 113.4985809  79.7057279 132.8627845 112.9894019  78.3627763 132.3841426
 107.9017434  84.2906493 131.2201613 107.7870949  83.3891750 131.5208712
 107.0461952  84.5370190 130.8686429 109.7396393  93.7620035 127.3449792
 110.2903818  93.6337098 126.5726786 108.9007869  94.0614924 126.9944685
 116.7033259  75.1331228 127.2187665 116.3597528  76.0232870 127.1426775
 117.0712222  74.9432886 126.3557250 104.7719110  87.4564759 120.0376267
 105.6094332  87.8661767 119.8209975 104.9497377  86.5164201 120.0076461
 116.6683542  85.1239840 115.7260100 116.1530165  85.8944444 115.9648487
 116.3960850  84.4504976 116.3493161 114.2530653  79.9689540 120.7845338
 113.3972249  79.5796391 120.6050977 114.6657605  80.0481501 119.9245124
 115.7829799  77.5035884 125.1836898 115.2794595  77.4666019 124.3704703
 116.0760406  78.4128626 125.2433555 112.0272685  77.5874613 124.1903080
 112.8925682  77.3917422 123.8308969 112.0950194  77.3584965 125.1172436
 121.6417816  87.8772194 117.6613273 120.8647259  87.5383354 117.2168435
 122.3209297  87.8824817 116.9868238 116.4569845  82.9966932 117.5519881
 116.1519981  83.3113081 118.4030024 117.4100287  83.0748352 117.5947214
 114.9016277  89.1557155 119.2012835 114.3737638  88.4209915 118.8886072
 114.4003780  89.9331831 118.9552803 119.8809123  87.3506175 124.3179881
 119.2232797  88.0405437 124.4060010 120.6849522  87.7402607 124.6613868
 109.6335004  79.8176821 121.5619446 110.2078756  79.5952003 120.8292639
 110.2205987  79.8865516 122.3148048 118.6914582  85.7050548 122.3683823
 119.2046463  86.3380540 122.8705533 119.3415805  85.1051744 122.0027183
 109.9604592  81.8481282 115.5815332 109.1241904  82.1855969 115.9024606
 109.8209361  81.7130262 114.6442469 111.9357672  76.6918070 120.2894516
 111.2822084  76.3767087 119.6651131 111.8938146  76.0693811 121.0154339
 113.0468877  86.9737365 112.2047808 112.1395939  86.7426619 112.4038957
 113.5439909  86.1774985 112.3921790 115.9536956  95.6834872 115.1244494
 115.2798655  95.9866569 115.7329452 116.3402778  96.4863953 114.7749951
 115.1695412  83.1800004 124.6142164 114.2517974  83.4014951 124.4563852
 115.5855556  83.2546314 123.7553871 115.9530460  84.5791419 119.7444844
 116.7002279  85.0912817 119.4351966 116.2222050  84.2575472 120.6049237
 114.2257110  87.0749960 116.7271798 113.3168330  86.7908993 116.8244268
 114.2552194  87.4949039 115.8675105 119.4576378  90.6856550 120.4962966
 119.0038705  89.8447460 120.5528156 118.8270345  91.3217948 120.8337746
 118.4009297  81.6148536 121.7263633 117.6632054  81.1025922 122.0573876
 118.6536071  81.1748917 120.9146910 117.9009317  92.5233046 121.4312784
 118.1932291  93.0838103 120.7125149 118.4107938  92.8161607 122.1865943
 118.5020925  74.3924788 122.3205402 118.8079802  73.5322151 122.0331317
 119.2273530  74.9842408 122.1204396 104.7945281  84.7955474 120.7087000
 104.5969681  84.2024835 119.9838067 104.2391945  84.4907684 121.4262939
 112.7742004  84.6878581 122.8281593 112.8290614  83.7352417 122.7524070
 111.9633206  84.8438020 123.3122892 113.9233198  88.6158704 114.0659877
 113.4852628  87.8994563 113.6065514 114.6643639  88.8434819 113.5044968
 110.7134364  83.3055640 120.5871972 109.9002230  83.6049811 120.9937164
 111.2093359  82.9111329 121.3046455 112.8642942  93.3013397 122.5206237
 112.8219121  93.5274244 121.5914769 113.7805641  93.0676772 122.6692038
 116.3108576  83.7697465 129.4186866 116.6657964  83.9968938 130.2781332
 116.9580707  84.1015842 128.7964121 122.0406313  86.8915901 120.1236195
 121.9024212  87.0817497 119.1957384 121.6842532  87.6535284 120.5804246
 110.2048439  80.8773996 126.2033207 110.8447818  80.7362755 125.5056171
 109.3725970  80.5908509 125.8271809 110.9808743  90.1776426 122.3168200
 111.7749342  89.6826747 122.1150775 110.2700435  89.6494290 121.9535905
 107.2891507  84.3219508 118.3927952 106.3589095  84.2603964 118.6097915
 107.3848978  83.7995461 117.5964594 107.2077056  80.8474321 120.9806194
 107.4683873  81.7619654 120.8715355 108.0294228  80.3798764 121.1302807
 108.6801981  82.2612078 128.1505019 109.3525034  82.0529440 127.5017667
 107.8531767  82.0634164 127.7110251 114.5827553  78.8874019 130.1670679
 113.9355468  79.5863969 130.0735156 115.3528568  79.3210163 130.5346928
 114.7591687  86.7254784 128.2267499 115.6883747  86.8765944 128.0536466
 114.3382717  86.8138805 127.3716146 113.5580019  90.7505448 125.9966037
 113.4191105  90.3824233 126.8691975 112.7694615  91.2653088 125.8249995
 114.1528171  95.8514545 117.3391573 114.3279927  95.3802588 118.1537196
 113.4660959  96.4780311 117.5672834 115.1085234  90.1287051 123.3854875
 114.7735067  90.0887821 124.2812524 114.6089180  89.4631767 122.9125285
 109.0829478  85.5354681 128.9107456 108.9449276  84.8034920 129.5118995
 109.9934402  85.4463581 128.6291643 118.0444426  87.4743085 113.6591934
 117.4273596  86.7489914 113.5624987 117.5760914  88.2352446 113.3159008
 111.7111779  85.2474640 128.3991135 112.4211397  84.6067833 128.3577754
 111.6681087  85.4987535 129.3217316 110.4240713  82.2339858 130.2186775
 109.8878070  81.7830597 130.8708371 109.8357421  82.3685767 129.4757239
 109.8342972  81.6928510 112.7813239 108.9572438  81.5717311 112.4175485
 110.3100725  80.9014588 112.5292127 101.3545112  86.4805669 122.8754746
 102.0416152  86.1667399 122.2875761 101.1993241  87.3847034 122.6021997
 106.1579834  81.3695866 127.3039769 106.0738023  80.7621536 126.5690179
 105.3362540  81.8604884 127.3049266 113.0206898  94.0454800 120.0275759
 112.2374420  94.5876480 120.1213984 113.7199643  94.5628780 120.4270000
 116.3303548  79.8549430 122.6709964 116.8272247  79.1019392 122.3511035
 115.5590529  79.8913746 122.1053174 124.1833305  85.5589795 124.3128256
 124.1723182  86.4414511 123.9422189 123.3150685  85.2061346 124.1182793
 117.4133329  88.6121117 120.2448388 116.4789607  88.7322579 120.0753092
 117.5909997  87.7093584 119.9808398 112.9138517  81.9966813 122.3981649
 112.5436304  81.4437853 123.0862555 113.4097609  81.3924946 121.8456649
 120.8005880  84.4538436 120.7798422 121.2666332  85.2866428 120.7058725
 121.2513380  83.9883418 121.4843680 118.8682111  90.7982257 117.7784574
 119.1441955  90.6838852 118.6878448 117.9986610  90.3999742 117.7396747
 118.7722543  76.8219023 124.8189323 117.8585622  77.0523250 124.9871530
 119.2015644  76.9057467 125.6703356 118.5429001  85.0108915 127.3189217
 117.8900451  85.2584822 126.6641670 118.9209381  84.1973053 126.9851695
 115.5036175  95.0468608 121.4217388 115.6858570  94.2290264 121.8845140
 116.3269161  95.2636300 120.9842278 115.8378341  93.9736793 118.6832436
 116.3666107  93.4629248 118.0702598 116.1006560  93.6579324 119.5477969
 106.3395433  91.9900663 126.4267770 106.9248870  91.2444351 126.5595674
 106.1420272  92.3004619 127.3104434 109.1934088  95.0251910 121.4430212
 108.5244464  95.5098038 120.9594252 109.0546958  95.2721130 122.3573591
 100.9313088  84.5606263 125.1472213 100.9697188  84.0269854 125.9409331
 100.4253381  84.0341468 124.5283190 108.3103850  79.4070803 128.6434755
 108.3745177  80.2685634 128.2312153 108.2470971  78.7944805 127.9107114
 107.7856123  81.4793936 132.2907789 108.4128162  81.0971013 132.9045314
 106.9284042  81.2608138 132.6563482 104.5621666  83.2870365 118.2226144
 104.8575107  82.3781043 118.1693198 103.6609701  83.2658104 117.9007147
 108.0915913  81.3626362 124.2053693 107.3702498  81.9762329 124.0661166
 108.8809168  81.8984126 124.1270339 110.8942226  78.6980788 130.4794345
 111.4176628  78.9443085 131.2420654 110.6754559  79.5300823 130.0597482
 106.2909507  80.9684463 118.3465469 105.9622213  80.0881842 118.1640575
 106.6448878  80.9132131 119.2341859 115.5389086  92.6039365 122.8560455
 115.3914048  91.6756073 123.0368025 116.3642580  92.6259456 122.3717530
 109.4051330  81.2557432 118.7140947 109.7447403  81.7843354 117.9919555
 109.8523451  81.5937839 119.4899514 112.0994771  79.6394483 128.1644015
 111.7591592  78.8402296 128.5664695 111.3933777  79.9396194 127.5920848
 112.7511243  76.7243796 126.6171338 113.5737312  76.2504274 126.4950228
 112.9949307  77.5034279 127.1170024 111.3919477  79.7532054 116.9134240
 112.1127840  80.1313307 116.4097957 110.7684782  80.4720931 117.0169218
 115.5350600  80.4577203 117.8492572 115.7514215  81.3401841 117.5481400
 115.0544667  80.0663416 117.1198214 110.2749822  83.4162916 124.4263317
 110.1294402  83.7303219 125.3187598 109.7975025  84.0347817 123.8734215
 112.1346205  80.4065464 124.4744206 112.1207773  79.5106558 124.1376504
 112.8518633  80.4136128 125.1082492 113.9872335  80.8402804 126.5197334
 113.7290113  81.7619875 126.5181664 113.4557376  80.4433239 127.2097798
 118.9318524  93.9453592 119.2987419 119.1055402  93.3800014 118.5461272
 119.4247415  94.7454486 119.1166909 104.7495484  85.9568261 127.3650978
 104.2048952  86.7328069 127.4971252 105.6274834  86.3039065 127.2070099
 111.5383101  79.2879844 119.7431776 111.6599012  78.3596491 119.9422664
 111.2485143  79.3018530 118.8310092 114.4074291  76.9734755 122.8798496
 114.4295988  77.0374088 121.9250476 114.8242350  76.1339264 123.0739002
 124.7857915  86.7090014 120.9177719 125.2289061  85.9597340 120.5196842
 123.9084426  86.7000151 120.5351451 119.9193697  93.2620356 116.3984317
 120.6144601  93.8827049 116.6171632 120.2616847  92.4115707 116.6736695
 105.5361506  85.0838157 130.2581135 104.7943242  85.2320792 130.8445765
 105.2154250  85.3446423 129.3947884 121.8185120  90.7120061 117.9271648
 122.3436444  91.0507334 117.2020968 121.7307472  89.7767077 117.7434783
 113.5025780  96.7792045 122.2866901 113.0630771  96.2868423 122.9799758
 114.2533897  96.2365012 122.0458977 105.9818119  92.9703586 122.2891529
 106.8076139  92.6707357 121.9090173 105.6312171  92.2011208 122.7381318
 110.9499653  92.3230054 124.3589203 110.3279662  91.6600759 124.0591431
 111.6204519  92.3491186 123.6762851 104.1826724  90.8889912 123.2480463
 103.3458633  90.4612086 123.0664464 104.1550370  91.0822355 124.1851254
 111.0224180  80.8011842 133.9521709 111.0712336  81.6773965 133.5699479
 111.5646694  80.2589235 133.3793352 110.5113159  90.8733977 117.8347664
 110.6601280  91.5569442 117.1814336 111.3179603  90.8539067 118.3497119
 113.2523469  81.5543214 130.7068068 112.3826778  81.8476780 130.4350656
 113.4882949  82.1383659 131.4275331 124.3290780  88.1795253 123.3100166
 125.1637671  88.6185057 123.4737727 124.4649909  87.7033906 122.4908412
 108.2665792  86.8999155 118.8408732 108.0211834  85.9961485 119.0388943
 108.4361707  86.9016305 117.8988210 115.9562502  77.7722831 128.2233488
 116.4744446  78.5083858 127.8979977 115.6017635  78.0786824 129.0580247
 107.5361440  82.6327512 116.3394894 106.8430685  82.7071867 115.6834930
 107.2913192  81.8687856 116.8616411 116.2075097  74.1923114 123.7434385
 116.4876850  73.5246303 124.3694811 116.9925703  74.3852209 123.2309048
 114.0108565  93.3682108 115.3059411 113.4382532  93.9872295 114.8529883
 114.5841359  93.9181469 115.8399333 120.0783955  82.6140748 127.4905960
 121.0301378  82.7138845 127.5118184 119.9087405  81.8219016 128.0004044
 118.0998334  79.6996331 127.6765361 117.5048266  79.9801344 126.9811849
 117.8148031  80.1890232 128.4482102 117.2305825  93.6519258 116.4367993
 118.1636498  93.5864819 116.6400869 117.1429038  94.4875525 115.9782526
 119.8593841  92.9685128 113.3971941 119.7807473  92.6344992 114.2907699
 120.6803508  93.4606896 113.3963413 122.5572033  85.8346867 126.6048259
 122.5248353  84.8962868 126.7907943 123.1672656  85.9130904 125.8714084
 114.3955364  84.7042920 112.6475463 115.3414468  84.5749128 112.7163881
 114.0169608  83.9657582 113.1244892 122.7066521  82.6257911 126.6506543
 122.1905570  81.8416367 126.4636471 123.5906470  82.2976627 126.8153062
 120.3677248  76.3698926 122.6102355 120.1702069  76.0614015 123.4945687
 120.9776954  77.0960565 122.7400285 112.5798281  82.6292897 112.5830349
 111.6729736  82.3326009 112.6593062 112.8574262  82.3322715 111.7164635
 103.4976221  83.9499260 123.0329395 103.1779005  83.0964568 122.7403769
 102.9509649  84.1647838 123.7887362 107.2756129  86.6661701 126.7498902
 107.4942138  87.5978809 126.7686935 107.6881902  86.3069676 127.5353705
 114.1960346  77.1729786 118.7374590 113.3861075  76.8276871 119.1129836
 114.8844763  76.8637330 119.3262202 116.1250895  76.2507833 120.3598887
 116.6781933  76.6703287 121.0188910 116.3620981  75.3243581 120.4021843
 111.3497065  79.4879832 112.7242328 112.2116229  79.8134730 112.9838145
 111.5347409  78.7011328 112.2115394 103.3664481  87.5702172 125.0022517
 102.6727952  87.1556124 124.4892471 104.1137472  87.6122708 124.4055936
 119.5029702  78.3608358 119.8677551 118.9228371  79.0193162 119.4855603
 119.2365634  77.5385703 119.4564968 117.9533268  77.7613416 122.0698871
 118.4533047  77.8729951 121.2613190 118.5968876  77.4574469 122.7099680
 105.2801224  87.5020425 122.8788532 105.2571912  87.6008113 121.9270415
 105.5901860  88.3485576 123.2005698 107.9388601  89.5596580 126.9935146
 108.8931855  89.5280523 126.9265078 107.7401125  89.0987204 127.8085372
 108.5287984  88.1297697 129.5605944 109.3480873  88.6241775 129.5840781
 108.8024791  87.2129665 129.5323511 118.2854580  80.5208449 118.9233899
 117.3980435  80.8058099 118.7054094 118.7008569  80.3602212 118.0761176
 121.6369116  80.5454970 122.6388238 122.4129506  81.0351422 122.9112855
 120.9117250  80.9713024 123.0960108 124.0741675  81.2582589 123.6962179
 124.6686165  81.0178325 122.9855487 124.1468258  80.5389720 124.3235715
 106.2938830  95.1016200 124.0105344 106.1593298  94.3416601 123.4443342
 105.8770893  95.8257100 123.5434133 117.4297793  90.2853123 113.0181919
 118.1333643  90.4903126 113.6339575 116.7060442  90.8529885 113.2831003
 118.2595604  86.0362985 119.1384189 118.2030805  86.4931536 118.2991822
 118.8123946  85.2753669 118.9607032 122.0700409  81.8252717 119.9634309
 121.8137344  81.4249352 120.7942516 121.4453277  82.5396511 119.8384448
 126.3812747  84.5648790 122.4705600 125.8212305  84.6341979 123.2437162
 125.7756251  84.3889774 121.7505096 109.4507956  95.9985517 124.2223786
 109.3340340  96.9430949 124.1202477 108.6300402  95.6959079 124.6109586
 119.3384491  90.7235653 115.0680379 120.1730095  90.2916851 114.8857854
 119.1768834  90.5517666 115.9957274 118.9930383  87.2267766 116.4336718
 118.9379187  87.0612037 115.4925163 118.3676438  87.9343799 116.5898908
 103.7822898  82.4635830 130.2598141 104.4281761  81.9534784 130.7485366
 103.5740049  83.2004512 130.8341566 112.3026508  76.7275875 116.0122037
 112.2905178  77.6717715 116.1690308 113.1949930  76.5446020 115.7181498
 112.2316072  95.4044765 124.0989794 111.2811703  95.4046627 123.9854166
 112.5348558  94.6577500 123.5825828 116.1178628  73.3218652 120.2667974
 115.3511024  72.7677138 120.4124656 116.5289333  73.3940520 121.1282125
 108.1220389  79.6103447 134.3573155 108.9851850  79.2540252 134.5676479
 107.5485799  79.2717342 135.0448559 120.1400474 103.8028313 116.7995571
 120.9131350 103.2557300 116.6608447 120.4925872 104.6672563 117.0110032
 122.4766751  99.9620979 114.4314021 122.7292272  99.4402501 113.6697484
 121.5391311  99.7987125 114.5340704 122.1963040 101.8649085 116.6338396
 122.0799298 101.1893989 117.3019480 122.3065300 101.3781459 115.8170549
 124.1800068  96.3549132 115.3346433 124.3474470  97.2229368 115.7016904
 123.9897237  96.5176414 114.4107723 124.1589289  98.8106790 116.3193100
 124.0388914  99.2563840 117.1578581 123.4641877  99.1592107 115.7606638
 118.6480865  98.7479774 120.8727276 117.8512028  98.8598468 121.3910772
 118.4206457  99.0866426 120.0068167 127.5077296 100.4531757 115.7260100
 126.9923920 101.2236362 115.9648487 127.2354605  99.7796893 116.3493161
 120.7998346  97.1773200 115.5815332 119.9635658  97.5147887 115.9024606
 120.6603116  97.0422180 114.6442469 122.7751427  92.0209988 120.2894516
 122.1215839  91.7059005 119.6651131 122.7331901  91.3985728 121.0154339
 123.8862631 102.3029283 112.2047808 122.9789693 102.0718536 112.4038957
 124.3833663 101.5066902 112.3921790 115.6339035 100.1247392 120.7087000
 115.4363435  99.5316753 119.9838067 115.0785699  99.8199602 121.4262939
 124.7626953 103.9450621 114.0659877 124.3246383 103.2286480 113.6065514
 125.5037394 104.1726736 113.5044968 118.1285261  99.6511426 118.3927952
 117.1982849  99.5895881 118.6097915 118.2242733  99.1287379 117.5964594
 118.0470810  96.1766239 120.9806194 118.3077627  97.0911572 120.8715355
 118.8687982  95.7090681 121.1302807 128.8838180 102.8035003 113.6591934
 128.2667351 102.0781831 113.5624987 128.4154669 103.5644363 113.3159008
 120.6736726  97.0220427 112.7813239 119.7966193  96.9009228 112.4175485
 121.1494479  96.2306506 112.5292127 115.4015420  98.6162283 118.2226144
 115.6968861  97.7072961 118.1693198 114.5003456  98.5950022 117.9007147
 117.1303262  96.2976380 118.3465469 116.8015968  95.4173759 118.1640575
 117.4842632  96.2424049 119.2341859 120.2445085  96.5849350 118.7140947
 120.5841157  97.1135271 117.9919555 120.6917205  96.9229756 119.4899514
 122.2313232  95.0823972 116.9134240 122.9521594  95.4605224 116.4097957
 121.6078536  95.8012849 117.0169218 126.3744355  95.7869121 117.8492572
 126.5907969  96.6693759 117.5481400 125.8938422  95.3955334 117.1198214
 122.3776855  94.6171762 119.7431776 122.4992766  93.6888408 119.9422664
 122.0878897  94.6310448 118.8310092 119.1059547 102.2291072 118.8408732
 118.8605589 101.3253402 119.0388943 119.2755462 102.2308223 117.8988210
 118.3755195  97.9619430 116.3394894 117.6824439  98.0363785 115.6834930
 118.1306946  97.1979774 116.8616411 125.2349118 100.0334838 112.6475463
 126.1808223  99.9041046 112.7163881 124.8563363  99.2949500 113.1244892
 123.4192035  97.9584814 112.5830349 122.5123491  97.6617927 112.6593062
 123.6968016  97.6614633 111.7164635 125.0354101  92.5021704 118.7374590
 124.2254829  92.1568789 119.1129836 125.7238518  92.1929248 119.3262202
 126.9644649  91.5799751 120.3598887 127.5175688  91.9995204 121.0188910
 127.2014736  90.6535499 120.4021843 122.1890820  94.8171750 112.7242328
 123.0509984  95.1426648 112.9838145 122.3741164  94.0303246 112.2115394
 123.1420263  92.0567793 116.0122037 123.1298933  93.0009633 116.1690308
 124.0343685  91.8737938 115.7181498 126.9572382  88.6510569 120.2667974
 126.1904778  88.0969056 120.4124656 127.3683087  88.7232438 121.1282125
  56.8833655  -3.3878952 106.6928538  56.8057685  -2.4371127 106.7717019
  56.2795299  -3.7333080 107.3503464  59.1572024  -8.0296799 105.4134078
  59.0217699  -7.1845263 105.8418926  59.6981837  -7.8277522 104.6500012
  61.7568185  -3.9562593 101.8489801  61.0829883  -3.6530897 102.4574759
  62.1434007  -3.1533513 101.4995258  59.9559400  -3.7882921 104.0636880
  60.1311156  -4.2594878 104.8782503  59.2692188  -3.1617155 104.2918141
  58.8238127  -5.5942666 106.7521066  58.0405648  -5.0520985 106.8459290
  59.5230872  -5.0768686 107.1515307  61.3067404  -4.5928858 108.1462694
  61.4889798  -5.4107202 108.6090447  62.1300390  -4.3761165 107.7087584
  61.6409569  -5.6660672 105.4077743  62.1697336  -6.1768218 104.7947905
  61.9037789  -5.9818142 106.2723276  56.3144388  -8.7663489 104.5592970
  56.4632509  -8.0828024 103.9059643  57.1210832  -8.7858399 105.0742426
  59.8139794  -6.2715358 102.0304718  59.2413761  -5.6525171 101.5775189
  60.3872588  -5.7215996 102.5644640  63.0337054  -5.9878208 103.1613300
  63.9667727  -6.0532646 103.3646175  62.9460266  -5.1521941 102.7027833
  73.7699995   1.6007838 111.8880863  74.4078405   1.4814585 111.1844203
  73.6520837   2.5488682 111.9468815  70.5789701   1.5535266 111.8242387
  70.2408212   1.4376331 110.9362922  71.4479469   1.1526431 111.8043393
  66.4376517   3.4070743 107.8139278  65.8741382   3.3160679 107.0455566
  66.3228912   2.5870647 108.2941771  63.9840948   4.9021934 110.6523499
  64.7762240   4.5612759 110.2369798  64.2237599   5.0116909 111.5725652
  72.0176075   7.0741710 103.1253743  71.3664055   7.6595791 102.7387757
  72.8120438   7.6047905 103.1848781  65.9431702   4.1630847 103.5240877
  66.7162578   3.6159834 103.3853753  66.2957101   5.0275097 103.7355339
  67.7816745   5.4907230 116.7307777  67.4906611   6.3952861 116.6154443
  68.4173729   5.5323757 117.4451846  68.7072952   2.8684078 113.3209136
  69.3036524   2.6440101 112.6066099  68.7647923   2.1268824 113.9234584
  68.2797980   0.3223514 101.1559327  68.5323501  -0.1994965 100.3942790
  67.3422539   0.1589659 101.2586011  73.3241263  -0.6740708 108.9634071
  74.1104352  -1.0921285 108.6124488  73.5879967   0.2305384 109.1315719
  73.4951340   4.7632142 103.6622727  72.8597173   4.8366769 104.3743632
  73.1648747   5.3525741 102.9841807  67.9994269   2.2251619 103.3583702
  67.8830527   1.5496523 104.0264787  68.1096529   1.7383993 102.5415855
  70.3425810   1.6861767 107.0630392  69.9784017   1.1592388 107.7743313
  71.1992926   1.2960236 106.8896877  69.9831297  -3.2848334 102.0591740
  70.1505699  -2.4168097 102.4262211  69.7928466  -3.1221052 101.1353029
  72.7406630   5.1768645 113.7257570  72.4407353   6.0793684 113.6173378
  72.3957690   4.9100828 114.5778723  66.1919112   1.6282442 109.7594275
  65.2669608   1.4958656 109.9671967  66.4403525   2.4076661 110.2564217
  69.9620518  -0.8290676 103.0438407  69.8420143  -0.3833625 103.8823887
  69.2673106  -0.4805359 102.4851945  63.5527923   1.2715716 110.5938064
  63.6820304   1.5250194 111.5077476  62.8725374   1.8643424 110.2742719
  67.7227410  11.9412966 106.6928538  67.6451440  12.8920791 106.7717019
  67.1189053  11.5958838 107.3503464  75.6605584  -0.3569203 103.8718741
  76.5723440  -0.1241816 103.6966438  75.1515231   0.2267841 103.3093820
  73.9446352   4.0655425 117.5080034  74.3529708   3.6237835 116.7634666
  73.2223613   3.4908052 117.7614226  74.2675166   4.6256615 111.2632322
  73.6384029   4.7902330 110.5608390  73.8800828   5.0398225 112.0343286
  78.1464398   5.5611053 108.6176686  77.4615436   5.9409955 108.0673719
  78.2308247   6.1706380 109.3508634  75.4015330   3.2071012 115.2172030
  75.6132225   3.8502772 114.5406411  75.3545078   2.3733329 114.7493960
  69.8203128   4.3631023 108.5282407  70.2841474   4.6418726 107.7387030
  69.5559926   3.4614468 108.3455498  66.7127209   3.9102505 111.4662171
  67.2828566   4.3389773 110.8279655  67.3035321   3.6285090 112.1646356
  68.7572014   0.4854176 105.3371973  69.4596058   0.9375220 105.8045899
  68.4252643  -0.1562005 105.9651866  62.4997348  -1.2562271 110.6389106
  61.7096402  -1.0004743 110.1629217  62.9908595  -0.4413934 110.7441147
  76.5161158   6.0842968 113.3894387  77.3378601   5.6823155 113.1077069
  76.5123561   5.9811202 114.3410503  64.4512094  -0.8917692 107.5972583
  63.6543257  -0.7798998 108.1156079  64.2237686  -0.5531040 106.7313473
  70.2817761   5.6327011 115.5455098  70.3462194   6.0947418 116.3813269
  69.5728685   5.0024376 115.6737407  84.6067151   2.4281716 109.7379358
  83.8530859   1.8589114 109.5823363  84.7414692   2.3944381 110.6849993
  69.9965779   7.2995118 105.4134078  69.8611454   8.1446654 105.8418926
  70.5375591   7.5014396 104.6500012  63.4495176   4.8170557 105.9862003
  63.9619697   5.6113807 106.1367568  64.1017889   4.1196847 105.9195604
  65.2590061   7.9336313 108.0684756  65.4356689   8.8554277 107.8805740
  66.0546894   7.6194732 108.4979136  71.6234255   7.9218685 119.5434420
  71.1798109   7.1355064 119.2255324  72.2851469   8.1097835 118.8778311
  66.3821376   9.4514487 114.0695098  66.9328801   9.3231550 113.2972092
  65.5432852   9.7509376 113.7189991  73.7215493   8.2021485 117.5715821
  73.7033969   9.0230366 117.0796090  74.6435413   8.0775560 117.7965962
  61.4144093   3.1459211 106.7621573  62.2519315   3.5556219 106.5455281
  61.5922361   2.2058653 106.7321767  73.3108525   0.8134291 102.4505406
  72.7955149   1.5838896 102.6893794  73.0385834   0.1399428 103.0738468
  78.2842799   3.5666646 104.3858580  77.5072242   3.2277806 103.9413742
  78.9634280   3.5719269 103.7113545  73.0994828  -1.3138616 104.2765188
  72.7944964  -0.9992467 105.1275331  74.0525270  -1.2357197 104.3192521
  71.5441260   4.8451607 105.9258142  71.0162622   4.1104366 105.6131379
  71.0428763   5.6226283 105.6798110  76.5234106   3.0400627 111.0425188
  75.8657781   3.7299889 111.1305317  77.3274505   3.4297059 111.3859174
  66.2759988  -4.4928727 108.2864753  66.8503740  -4.7153545 107.5537946
  66.8630970  -4.4240032 109.0393354  75.3339565   1.3945000 109.0929130
  75.8471447   2.0274992 109.5950839  75.9840789   0.7946196 108.7272490
  66.6029575  -2.4624266 102.3060638  65.7666887  -2.1249579 102.6269913
  66.4634344  -2.5975286 101.3687775  69.6893860   2.6631817  98.9293115
  68.7820922   2.4321071  99.1284264  70.1864892   1.8669436  99.1167096
  72.5961939  11.3729324 101.8489801  71.9223638  11.6761021 102.4574759
  72.9827761  12.1758405 101.4995258  71.8120396  -1.1305544 111.3387470
  70.8942957  -0.9090597 111.1809158  72.2280539  -1.0559234 110.4799178
  72.5955444   0.2685871 106.4690150  73.3427262   0.7807269 106.1597272
  72.8647033  -0.0530076 107.3294544  70.8682094   2.7644412 103.4517105
  69.9593313   2.4803445 103.5489574  70.8977178   3.1843491 102.5920412
  76.1001361   6.3751002 107.2208272  75.6463688   5.5341911 107.2773463
  75.4695328   7.0112400 107.5583052  74.5434300   8.2127498 108.1558090
  74.8357275   8.7732555 107.4370456  75.0532921   8.5056059 108.9111250
  61.4370264   0.4849926 107.4332307  61.2394664  -0.1080713 106.7083373
  60.8816928   0.1802136 108.1508246  69.4166988   0.3773033 109.5526900
  69.4715598  -0.5753131 109.4769377  68.6058190   0.5332472 110.0368198
  70.5658182   4.3053156 100.7905183  70.1277611   3.5889015 100.3310821
  71.3068622   4.5329271 100.2290275  67.3559348  -1.0049908 107.3117279
  66.5427213  -0.7055737 107.7182471  67.8518342  -1.3994219 108.0291761
  69.5067926   8.9907849 109.2451544  69.4644104   9.2168696 108.3160076
  70.4230624   8.7571224 109.3937345  78.6831296   2.5810353 106.8481502
  78.5449195   2.7711949 105.9202691  78.3267515   3.3429736 107.3049553
  78.7100676   4.6486880 111.8592773  79.1437183   4.5562169 112.7075827
  79.4232257   4.6244380 111.2212789  67.6233726   5.8670878 109.0413506
  68.4174325   5.3721198 108.8396081  66.9125419   5.3388741 108.6781212
  72.4428571   8.2488974 113.3925874  72.4965593   8.8179910 114.1603590
  71.5743352   8.4190859 113.0279911  63.9316490   0.0113960 105.1173259
  63.0014078  -0.0501584 105.3343221  64.0273962  -0.5110087 104.3209900
  63.8502039  -3.4631227 107.7051501  64.1108856  -2.5485894 107.5960661
  64.6719211  -3.9306785 107.8548114  79.5716225   4.6910580 114.3925659
  79.7652116   5.5956391 114.6384934  79.4716844   4.2317999 115.2264244
  74.6331334   4.8417323 119.9666539  74.4816841   4.6127875 119.0496623
  74.6236014   5.7987925 119.9797884  71.4016671   2.4149236 114.9512806
  72.3308731   2.5660395 114.7781773  70.9807701   2.5033257 114.0961452
  70.2005002   6.4399900 112.7211343  70.0616088   6.0718685 113.5937282
  69.4119599   6.9547540 112.5495301  70.7953154  11.5408997 104.0636880
  70.9704910  11.0697040 104.8782503  70.1085942  12.1674763 104.2918141
  71.7510217   5.8181503 110.1100181  71.4160050   5.7782273 111.0057831
  71.2514163   5.1526219 109.6370591  74.6869409   3.1637537 100.3837241
  74.0698580   2.4384365 100.2870294  74.2185898   3.9246898 100.0404315
  76.3423541   7.8736446 118.0443021  76.2836087   7.1895666 117.3773604
  76.7443059   8.6155436 117.5923647  65.3614240  14.6898360 110.8376740
  65.6010838  15.3216884 111.5155759  64.5183436  14.3386400 111.1242099
  66.4767955  -2.6177038  99.5058545  65.5997421  -2.7388238  99.1420792
  66.9525708  -3.4090960  99.2537434  76.3440948   5.8376030 116.2757001
  75.4567727   5.5001951 116.3983400  76.9139499   5.1059061 116.5125766
  57.9970095   2.1700121 109.6000052  58.6841135   1.8561851 109.0121068
  57.8418224   3.0741486 109.3267304  69.8742101  10.4977482 113.2418244
  69.8012273  11.3032453 113.7537549  69.4319495  10.6969448 112.4166266
  69.6631881   9.7349252 106.7521066  68.8799403  10.2770932 106.8459290
  70.3624626  10.2523232 107.1515307  80.8258289   1.2484247 111.0373563
  80.8148165   2.1308962 110.6667496  79.9575668   0.8955798 110.8428100
  72.3340785  10.3964316 115.3976403  73.0468757  11.0311781 115.3252304
  71.8430814  10.4928182 114.5816405  74.0558312   4.3015569 106.9693694
  73.1214591   4.4217031 106.7998399  74.2334980   3.3988035 106.7053704
  69.5563500  -2.3138736 109.1226956  69.1861287  -2.8667695 109.8107861
  70.0522592  -2.9180602 108.5701956  77.4430863   0.1432888 107.5043729
  77.9091315   0.9760880 107.4304031  77.8938364  -0.3222130 108.2088987
  67.3852699   8.1458759 116.2181974  68.0862158   8.7795242 116.3711368
  66.9147813   8.4873491 115.4577613  75.5107094   6.4876709 104.5029881
  75.7866938   6.3733304 105.4123755  74.6411593   6.0894194 104.4642054
  75.1853984   0.7003367 114.0434524  74.5325435   0.9479274 113.3886977
  75.5634364  -0.1132495 113.7097001  72.1461158  10.7363060 108.1462694
  72.3283553   9.9184716 108.6090447  72.9694144  10.9530752 107.7087584
  72.4803324   9.6631245 105.4077743  73.0091090   9.1523700 104.7947905
  72.7431543   9.3473775 106.2723276  62.9820417   7.6795115 113.1513076
  63.5673853   6.9338802 113.2840980  62.7845255   7.9899071 114.0349740
  65.8359072  10.7146362 108.1675519  65.1669447  11.1992490 107.6839559
  65.6971941  10.9615582 109.0818897  69.9764340  12.7490105 114.7658177
  70.5282648  12.9121727 115.5307262  70.3170534  13.3394543 114.0938202
  74.8275215   7.5751363 120.6206831  75.3715119   8.1881321 120.1261786
  74.2462060   8.1330941 121.1373844  61.2046649  -1.0235183 104.9471451
  61.5000090  -1.9324505 104.8938505  60.3034685  -1.0447444 104.6252453
  73.1132728  10.6972081 111.7521859  72.9883867   9.8961821 111.2432805
  73.7711819  11.1918274 111.2635829  64.7340896  -2.9479187 110.9298999
  64.0127482  -2.3343219 110.7906473  65.5234152  -2.4121422 110.8515645
  75.1767636   8.4981101 113.3801409  74.2297972   8.3786452 113.3079736
  75.5250409   7.6103599 113.4627671  62.9334490  -3.3421085 105.0710776
  62.6047197  -4.2223707 104.8885882  63.2873861  -3.3973417 105.9587165
  72.1814069   8.2933817 109.5805761  72.0339032   7.3650525 109.7613332
  73.0067563   8.3153908 109.0962837  66.0476314  -3.0548116 105.4386254
  66.3872386  -2.5262194 104.7164862  66.4948434  -2.7167710 106.2144820
  75.7848191   9.1162376 110.6670634  76.7094739   8.9105237 110.5295085
  75.6163495   8.8678777 111.5759976  68.0344461  -4.5573494 103.6379546
  68.7552823  -4.1792241 103.1343263  67.4109765  -3.8384617 103.7414524
  66.9174805  -0.8942632 111.1508623  66.7719386  -0.5802329 112.0432905
  66.4400009  -0.2757732 110.5979522  75.5743507   9.6348043 106.0232726
  75.7480385   9.0694466 105.2706578  76.0672399  10.4348938 105.8412216
  81.4282899   2.3984466 107.6423025  81.8714045   1.6491792 107.2442149
  80.5509409   2.3894603 107.2596757  76.5618680   8.9514808 103.1229624
  77.2569585   9.5721501 103.3416939  76.9041830   8.1010159 103.3982002
  78.4610103   6.4014513 104.6516955  78.9861427   6.7401786 103.9266275
  78.3732456   5.4661529 104.4680089  70.1230152  10.3148587 116.7806831
  70.4317278  10.0697734 117.6529531  70.9205634  10.5195225 116.2925702
  70.1450764  12.4686497 109.0112208  69.7055754  11.9762875 109.7045065
  70.8958881  11.9259464 108.7704283  62.6243103   8.6598037 109.0136836
  63.4501123   8.3601809 108.6335480  62.2737155   7.8905660 109.4626625
  67.5924636   8.0124506 111.0834510  66.9704645   7.3495211 110.7836737
  68.2629503   8.0385638 110.4008157  60.8251708   6.5784364 109.9725770
  59.9883616   6.1506538 109.7909771  60.7975353   6.7716807 110.9096561
  78.1504009   7.0347417 119.9568153  77.3599553   7.0171556 119.4172652
  77.9137364   7.5735711 120.7117189  78.2701884   3.8839883 117.2700881
  78.3199889   3.7189891 118.2116404  78.1615807   3.0167142 116.8798762
  67.1538143   6.5628429 104.5592970  67.3026263   7.2463893 103.9059643
  67.9604586   6.5433519 105.0742426  79.7720081   6.3036825 117.5142903
  79.4804889   6.6666805 118.3506364  79.1592212   5.5903833 117.3356235
  80.9715763   3.8689705 110.0345473  81.8062655   4.3079509 110.1983033
  81.1074892   3.3928358 109.2153719  78.0207269   1.4269440 115.9822961
  78.4961391   1.6197086 115.1741812  77.0972835   1.4828625 115.7366344
  64.9090776   2.5893607 105.5654039  64.6636818   1.6855937 105.7634249
  65.0786690   2.5910757 104.6233517  64.1786423  -1.6778036 103.0640201
  63.4855668  -1.6033681 102.4080236  63.9338175  -2.4417692 103.5861717
  70.6533548   9.0576560 102.0304718  70.0807515   9.6766747 101.5775189
  71.2266342   9.6075921 102.5644640  73.8730808   9.3413710 103.1613300
  74.8061481   9.2759271 103.3646175  73.7854021  10.1769976 102.7027833
  76.5018825   8.6579580 100.1217247  76.4232456   8.3239444 101.0153005
  77.3228492   9.1501348 100.1208720  79.1997016   1.5241319 113.3293566
  79.1673336   0.5857320 113.5153250  79.8097640   1.6025356 112.5959391
  71.0380347   0.3937372  99.3720770  71.9839452   0.2643580  99.4409188
  70.6594592  -0.3447966  99.8490198  85.0173566   2.5857326 112.4699603
  85.7476954   2.3242614 113.0307306  84.4080511   1.8486048 112.5101671
  83.0988863   0.7265189 113.0674054  82.3722027   0.5921154 112.4590546
  82.6836150   1.0342017 113.8730772  69.2223264  -1.6812651  99.3075655
  68.3154719  -1.9779539  99.3838369  69.4999245  -1.9782833  98.4409942
  60.1401204  -0.3606288 109.7574702  59.8203989  -1.2140980 109.4649076
  59.5934633  -0.1457710 110.5132669  63.9181112   2.3556153 113.4744208
  64.1367122   3.2873261 113.4932242  64.3306886   1.9964127 114.2599012
  60.0089464   3.2596624 111.7267823  59.3152936   2.8450576 111.2137778
  60.7562455   3.3017160 111.1301242  61.9226207   3.1914877 109.6033838
  61.8996895   3.2902565 108.6515721  62.2326843   4.0380028 109.9251004
  64.5813585   5.2491032 113.7180453  65.5356838   5.2174975 113.6510384
  64.3826108   4.7881656 114.5330678  62.9363814  10.7910652 110.7350650
  62.8018281  10.0311053 110.1688648  62.5195876  11.5151552 110.2679439
  74.0722777   5.9747575  99.7427226  74.7758627   6.1797578 100.3584881
  73.3485425   6.5424337 100.0076309  74.9020587   1.7257437 105.8629496
  74.8455788   2.1825988 105.0237128  75.4548929   0.9648121 105.6852339
  66.0932939  11.6879969 110.9469093  65.9765324  12.6325401 110.8447783
  65.2725386  11.3853530 111.3354892  75.9809474   6.4130105 101.7925686
  76.8155078   5.9811303 101.6103161  75.8193817   6.2412118 102.7202580
  75.6355366   2.9162218 103.1582025  75.5804170   2.7506489 102.2170469
  75.0101421   3.6238251 103.3144215  67.1187454  12.3408231 114.1625022
  68.0214700  12.3731841 114.4791516  66.8924824  11.4108682 114.1771357
  68.8741056  11.0939217 110.8235100  67.9236687  11.0941079 110.7099472
  69.1773542  10.3471952 110.3071135  84.6093749  16.9299756 111.8880863
  85.2472159  16.8106503 111.1844203  84.4914592  17.8780600 111.9468815
  81.4183455  16.8827184 111.8242387  81.0801967  16.7668249 110.9362922
  82.2873224  16.4818349 111.8043393  77.2770271  18.7362660 107.8139278
  76.7135136  18.6452597 107.0455566  77.1622666  17.9162565 108.2941771
  81.9003238  18.0362036 117.7828593  81.8891879  17.6414834 116.9109096
  82.0623878  17.3028108 118.3762364  74.8234703  20.2313852 110.6523499
  75.6155995  19.8904676 110.2369798  75.0631353  20.3408827 111.5725652
  82.8569830  22.4033628 103.1253743  82.2057810  22.9887708 102.7387757
  83.6514193  22.9339823 103.1848781  76.7825457  19.4922765 103.5240877
  77.5556333  18.9451752 103.3853753  77.1350856  20.3567014 103.7355339
  78.6210499  20.8199147 116.7307777  78.3300365  21.7244778 116.6154443
  79.2567484  20.8615675 117.4451846  79.5466706  18.1975996 113.3209136
  80.1430279  17.9732018 112.6066099  79.6041678  17.4560741 113.9234584
  79.1191735  15.6515431 101.1559327  79.3717255  15.1296952 100.3942790
  78.1816294  15.4881577 101.2586011  84.1635018  14.6551210 108.9634071
  84.9498107  14.2370633 108.6124488  84.4273722  15.5597302 109.1315719
  84.3345095  20.0924060 103.6622727  83.6990928  20.1658686 104.3743632
  84.0042501  20.6817659 102.9841807  89.5643445  14.5926443 109.8667049
  90.2968617  14.0225660 110.1004879  88.8082800  14.2048043 110.3073555
  78.8388023  17.5543537 103.3583702  78.7224282  16.8788441 104.0264787
  78.9490283  17.0675911 102.5415855  81.1819564  17.0153684 107.0630392
  80.8177772  16.4884305 107.7743313  82.0386680  16.6252153 106.8896877
  87.0868865   8.3048017 114.3261658  86.7552190   9.1743428 114.1022873
  86.4914478   7.9884301 115.0055688  80.8225051  12.0443584 102.0591740
  80.9899454  12.9123820 102.4262211  80.6322220  12.2070866 101.1353029
  83.5800385  20.5060563 113.7257570  83.2801108  21.4085602 113.6173378
  83.2351444  20.2392746 114.5778723  77.0312866  16.9574360 109.7594275
  76.1063363  16.8250574 109.9671967  77.2797279  17.7368579 110.2564217
  86.9797528  13.0243103 111.4055008  86.0714406  12.9558511 111.1113769
  86.9285124  13.5015048 112.2336833  80.8014272  14.5001241 103.0438407
  80.6813897  14.9458292 103.8823887  80.1066861  14.8486559 102.4851945
  74.3921677  16.6007633 110.5938064  74.5214058  16.8542112 111.5077476
  73.7119128  17.1935341 110.2742719  78.5621164  27.2704883 106.6928538
  78.4845194  28.2212708 106.7717019  77.9582808  26.9250756 107.3503464
  81.0538394  14.4432749 119.3489905  80.2771728  15.0026669 119.3392770
  81.6928957  14.9289532 119.8704775  88.8459175  11.2259541 113.1832882
  88.2033555  11.5192075 112.5372676  88.3414103  11.1112462 113.9886078
  86.4999338  14.9722715 103.8718741  87.4117195  15.2050101 103.6966438
  85.9908985  15.5559759 103.3093820  79.3084766  17.2518202 118.9107872
  80.0499451  17.7903246 118.6342696  78.6021752  17.8784491 119.0679424
  84.7840106  19.3947342 117.5080034  85.1923462  18.9529753 116.7634666
  84.0617368  18.8199970 117.7614226  81.1371176  14.3319949 114.8813590
  81.9832371  14.7559363 115.0248239  81.0769814  13.6753574 115.5752154
  85.1068921  19.9548533 111.2632322  84.4777783  20.1194247 110.5608390
  84.7194583  20.3690143 112.0343286  88.9858153  20.8902971 108.6176686
  88.3009191  21.2701872 108.0673719  89.0702002  21.4998298 109.3508634
  84.2870621  11.9924318 116.5394764  84.0431553  12.7466378 116.0029040
  84.5630552  12.3709665 117.3742011  86.2409084  18.5362930 115.2172030
  86.4525979  19.1794690 114.5406411  86.1938832  17.7025247 114.7493960
  83.8435313  11.1480751 112.1208602  82.9819792  11.4462004 112.4125339
  83.8697748  11.3651149 111.1889634  80.6596883  19.6922941 108.5282407
  81.1235228  19.9710644 107.7387030  80.3953681  18.7906386 108.3455498
  77.5520964  19.2394423 111.4662171  78.1222321  19.6681691 110.8279655
  78.1429076  18.9577007 112.1646356  79.5965769  15.8146094 105.3371973
  80.2989812  16.2667137 105.8045899  79.2646397  15.1729912 105.9651866
  78.0446130  14.4057850 119.7123182  77.4144791  15.0874131 119.9458579
  77.9382218  14.2940932 118.7676320  73.3391103  14.0729646 110.6389106
  72.5490157  14.3287175 110.1629217  73.8302350  14.8877984 110.7441147
  87.3554912  21.4134885 113.3894387  88.1772356  21.0115073 113.1077069
  87.3517315  21.3103120 114.3410503  75.2905848  14.4374225 107.5972583
  74.4937011  14.5492920 108.1156079  75.0631440  14.7760878 106.7313473
  81.1211516  20.9618929 115.5455098  81.1855948  21.4239336 116.3813269
  80.4122439  20.3316294 115.6737407  71.6228806  14.3260137 113.0704097
  71.8736844  15.2107147 113.3361673  72.1588354  14.1464738 112.2979189
  95.4460905  17.7573634 109.7379358  94.6924614  17.1881032 109.5823363
  95.5808446  17.7236298 110.6849993  80.8359533  22.6287036 105.4134078
  80.7005208  23.4738572 105.8418926  81.3769346  22.8306314 104.6500012
  77.3226873   8.7078616 122.0748433  76.9293818   8.1544815 122.7496077
  78.1393013   9.0189194 122.4654951  74.2888931  20.1462474 105.9862003
  74.8013451  20.9405724 106.1367568  74.9411643  19.4488765 105.9195604
  76.0983815  23.2628230 108.0684756  76.2750444  24.1846195 107.8805740
  76.8940649  22.9486650 108.4979136  80.2394834  10.1236495 119.6668690
  80.9804547  10.7243648 119.5873152  80.4712757   9.3814133 119.1086732
  75.3836172  15.3092862 117.9446919  75.2689687  14.4078120 118.2454018
  74.5280690  15.5556559 117.5931736  82.4628010  23.2510603 119.5434420
  82.0191864  22.4646981 119.2255324  83.1245223  23.4389753 118.8778311
  77.2215131  24.7806404 114.0695098  77.7722556  24.6523468 113.2972092
  76.3826607  25.0801293 113.7189991  84.5609248  23.5313403 117.5715821
  84.5427723  24.3522284 117.0796090  85.4829168  23.4067478 117.7965962
  81.0182302  21.0457532 118.4139330  81.5510639  20.2845820 118.1838638
  80.4896383  20.7531184 119.1563484  84.1851997   6.1517598 113.9432971
  83.8416266   7.0419240 113.8672082  84.5530959   5.9619256 113.0802556
  72.2537847  18.4751128 106.7621573  73.0913069  18.8848137 106.5455281
  72.4316115  17.5350571 106.7321767  84.1502280  16.1426209 102.4505406
  83.6348903  16.9130814 102.6893794  83.8779588  15.4691345 103.0738468
  81.7349391  10.9875910 107.5090645  80.8790987  10.5982760 107.3296284
  82.1476342  11.0667871 106.6490430  83.2648537   8.5222253 111.9082205
  82.7613333   8.4852388 111.0950010  83.5579144   9.4314996 111.9678861
  79.5091423   8.6060983 110.9148386  80.3744420   8.4103792 110.5554276
  79.5768932   8.3771335 111.8417743  89.1236554  18.8958564 104.3858580
  88.3465996  18.5569723 103.9413742  89.8028035  18.9011187 103.7113545
  83.9388583  14.0153301 104.2765188  83.6338718  14.3299450 105.1275331
  84.8919025  14.0934721 104.3192521  82.3835015  20.1743525 105.9258142
  81.8556376  19.4396284 105.6131379  81.8822517  20.9518201 105.6798110
  87.3627861  18.3692545 111.0425188  86.7051535  19.0591806 111.1305317
  88.1668260  18.7588977 111.3859174  77.1153742  10.8363191 108.2864753
  77.6897494  10.6138372 107.5537946  77.7024725  10.9051885 109.0393354
  86.1733319  16.7236918 109.0929130  86.6865201  17.3566910 109.5950839
  86.8234543  16.1238113 108.7272490  77.4423329  12.8667652 102.3060638
  76.6060642  13.2042338 102.6269913  77.3028099  12.7316632 101.3687775
  79.4176410   7.7104440 107.0139823  78.7640822   7.3953457 106.3896437
  79.3756884   7.0880180 107.7399645  80.5287615  17.9923735  98.9293115
  79.6214677  17.7612988  99.1284264  81.0258647  17.1961354  99.1167096
  83.4355694  26.7021242 101.8489801  82.7617392  27.0052939 102.4574759
  83.8221516  27.5050322 101.4995258  82.6514150  14.1986373 111.3387470
  81.7336712  14.4201320 111.1809158  83.0674294  14.2732684 110.4799178
  83.4349198  15.5977789 106.4690150  84.1821017  16.1099186 106.1597272
  83.7040788  15.2761842 107.3294544  81.7075848  18.0936330 103.4517105
  80.7987067  17.8095363 103.5489574  81.7370932  18.5135408 102.5920412
  86.9395116  21.7042919 107.2208272  86.4857443  20.8633829 107.2773463
  86.3089082  22.3404318 107.5583052  85.8828035  12.6334905 108.4508940
  85.1450792  12.1212291 108.7819182  86.1354809  12.1935287 107.6392217
  85.3828055  23.5419416 108.1558090  85.6751029  24.1024473 107.4370456
  85.8926675  23.8347977 108.9111250  85.9839662   5.4111157 109.0450709
  86.2898539   4.5508521 108.7576624  86.7092267   6.0028777 108.8449703
  72.2764019  15.8141844 107.4332307  72.0788418  15.2211205 106.7083373
  71.7210683  15.5094054 108.1508246  80.2560742  15.7064950 109.5526900
  80.3109352  14.7538787 109.4769377  79.4451944  15.8624389 110.0368198
  81.4051936  19.6345073 100.7905183  80.9671366  18.9180932 100.3310821
  82.1462377  19.8621188 100.2290275  78.1953102  14.3242010 107.3117279
  77.3820968  14.6236181 107.7182471  78.6912096  13.9297699 108.0291761
  80.3461680  24.3199767 109.2451544  80.3037859  24.5460613 108.3160076
  81.2624379  24.0863142 109.3937345  83.7927314  14.7883835 116.1432173
  84.1476702  15.0155308 117.0026639  84.4399445  15.1202211 115.5209428
  89.5225051  17.9102270 106.8481502  89.3842949  18.1003866 105.9202691
  89.1661270  18.6721653 107.3049553  77.6867177  11.8960366 112.9278514
  78.3266556  11.7549125 112.2301477  76.8544707  11.6094879 112.5517116
  89.5494430  19.9778797 111.8592773  89.9830937  19.8854086 112.7075827
  90.2626011  19.9536298 111.2212789  78.4627481  21.1962796 109.0413506
  79.2568079  20.7013116 108.8396081  77.7519173  20.6680659 108.6781212
  83.2822325  23.5780892 113.3925874  83.3359348  24.1471828 114.1603590
  82.4137107  23.7482777 113.0279911  74.7710244  15.3405878 105.1173259
  73.8407832  15.2790333 105.3343221  74.8667716  14.8181830 104.3209900
  74.6895793  11.8660691 107.7051501  74.9502611  12.7806024 107.5960661
  75.5112966  11.3985133 107.8548114  76.1620719  13.2798448 114.8750325
  76.8343772  13.0715810 114.2262974  75.3350505  13.0820534 114.4355558
  90.4109980  20.0202498 114.3925659  90.6045870  20.9248309 114.6384934
  90.3110598  19.5609917 115.2264244  82.0646291   9.9060389 116.8915986
  81.4174206  10.6050338 116.7980462  82.8347306  10.3396533 117.2592234
  85.4725089  20.1709241 119.9666539  85.3210595  19.9419792 119.0496623
  85.4629768  21.1279842 119.9797884  82.2410425  17.7441154 114.9512806
  83.1702485  17.8952313 114.7781773  81.8201455  17.8325174 114.0961452
  81.0398757  21.7691818 112.7211343  80.9009843  21.4010602 113.5937282
  80.2513353  22.2839457 112.5495301  81.6346909  26.8700914 104.0636880
  81.8098664  26.3988958 104.8782503  80.9479697  27.4966681 104.2918141
  82.5903972  21.1473421 110.1100181  82.2553805  21.1074191 111.0057831
  82.0907918  20.4818137 109.6370591  76.5648216  16.5541051 115.6352762
  76.4268014  15.8221290 116.2364301  77.4753139  16.4649951 115.3536950
  85.5263164  18.4929455 100.3837241  84.9092334  17.7676283 100.2870294
  85.0579652  19.2538815 100.0404315  79.1930517  16.2661010 115.1236442
  79.9030135  15.6254202 115.0823060  79.1499825  16.5173905 116.0462623
  87.1817295  23.2028363 118.0443021  87.1229841  22.5187583 117.3773604
  87.5836814  23.9447353 117.5923647  77.9059451  13.2526228 116.9432081
  77.3696808  12.8016966 117.5953678  77.3176159  13.3872137 116.2002546
  76.2007994  30.0190277 110.8376740  76.4404592  30.6508801 111.5155759
  75.3577191  29.6678317 111.1242099  77.3161710  12.7114879  99.5058545
  76.4391176  12.5903680  99.1420792  77.7919463  11.9200958  99.2537434
  87.1834703  21.1667947 116.2757001  86.2961481  20.8293869 116.3983400
  87.7533254  20.4350979 116.5125766  68.8363850  17.4992039 109.6000052
  69.5234890  17.1853769 109.0121068  68.6811978  18.4033404 109.3267304
  73.6398572  12.3882236 114.0285076  73.5556761  11.7807905 113.2935486
  72.8181278  12.8791254 114.0294572  80.7135856  25.8269400 113.2418244
  80.6406027  26.6324371 113.7537549  80.2713249  26.0261365 112.4166266
  80.5025636  25.0641170 106.7521066  79.7193157  25.6062850 106.8459290
  81.2018381  25.5815149 107.1515307  83.8122286  10.8735799 109.3955271
  84.3090985  10.1205761 109.0756341  83.0409267  10.9100116 108.8298480
  91.6652043  16.5776165 111.0373563  91.6541919  17.4600880 110.6667496
  90.7969423  16.2247715 110.8428100  83.1734539  25.7256234 115.3976403
  83.8862512  26.3603698 115.3252304  82.6824568  25.8220100 114.5816405
  84.8952066  19.6307486 106.9693694  83.9608345  19.7508949 106.7998399
  85.0728735  18.7279953 106.7053704  80.3957254  13.0153182 109.1226956
  80.0255042  12.4624223 109.8107861  80.8916347  12.4111316 108.5701956
  88.2824618  15.4724806 107.5043729  88.7485070  16.3052797 107.4304031
  88.7332118  15.0069787 108.2088987  78.2246453  23.4750677 116.2181974
  78.9255912  24.1087160 116.3711368  77.7541568  23.8165409 115.4577613
  86.3500849  21.8168627 104.5029881  86.6260693  21.7025222 105.4123755
  85.4805348  21.4186112 104.4642054  86.2541280   7.8405393 111.5434630
  85.3404360   8.0709619 111.7116837  86.6834382   7.9243837 112.3948662
  86.0247739  16.0295285 114.0434524  85.3719189  16.2771192 113.3886977
  86.4028119  15.2159423 113.7097001  82.9854913  26.0654978 108.1462694
  83.1677307  25.2476634 108.6090447  83.8087899  26.2822670 107.7087584
  83.3197078  24.9923163 105.4077743  83.8484845  24.4815617 104.7947905
  83.5825298  24.6765693 106.2723276  82.0735312  16.7715096 120.5300561
  81.3975949  16.6709225 121.2002936  82.8962946  16.6154309 120.9936558
  73.8214171  23.0087032 113.1513076  74.4067608  22.2630720 113.2840980
  73.6239010  23.3190989 114.0349740  76.6752826  26.0438280 108.1675519
  76.0063202  26.5284407 107.6839559  76.5365696  26.2907500 109.0818897
  68.4131826  15.5792632 111.8717519  68.4515925  15.0456223 112.6654638
  67.9072119  15.0527838 111.2528497  80.8158095  28.0782023 114.7658177
  81.3676403  28.2413645 115.5307262  81.1564288  28.6686461 114.0938202
  75.7922588  10.4257173 115.3680062  75.8563915  11.2872004 114.9557459
  75.7289708   9.8131175 114.6352420  75.2674861  12.4980305 119.0153096
  75.8946899  12.1157383 119.6290620  74.4102779  12.2794507 119.3808788
  85.6668969  22.9043281 120.6206831  86.2108873  23.5173239 120.1261786
  85.0855814  23.4622859 121.1373844  72.0440403  14.3056735 104.9471451
  72.3393844  13.3967413 104.8938505  71.1428439  14.2844474 104.6252453
  83.9526482  26.0263999 111.7521859  83.8277622  25.2253738 111.2432805
  84.6105573  26.5210192 111.2635829  75.5734650  12.3812731 110.9298999
  74.8521236  12.9948699 110.7906473  76.3627906  12.9170496 110.8515645
  86.0161391  23.8273019 113.3801409  85.0691726  23.7078370 113.3079736
  86.3644164  22.9395517 113.4627671  78.3760964   9.7167158 117.2039651
  78.8995366   9.9629454 117.9665960  78.1573297  10.5487192 116.7842789
  73.7728245  11.9870832 105.0710776  73.4440951  11.1068211 104.8885882
  74.1267616  11.9318501 105.9587165  83.0207824  23.6225735 109.5805761
  82.8732786  22.6942442 109.7613332  83.8461317  23.6445826 109.0962837
  76.8870068  12.2743802 105.4386254  77.2266141  12.8029723 104.7164862
  77.3342189  12.6124208 106.2144820  86.6241946  24.4454294 110.6670634
  87.5488493  24.2397155 110.5295085  86.4557249  24.1970695 111.5759976
  79.5813509  10.6580853 114.8889322  79.2410329   9.8588666 115.2910002
  78.8752515  10.9582564 114.3166155  80.2329981   7.7430165 113.3416645
  81.0556050   7.2690643 113.2195535  80.4768044   8.5220649 113.8415331
  78.8738215  10.7718424 103.6379546  79.5946578  11.1499676 103.1343263
  78.2503519  11.4907300 103.7414524  83.0169338  11.4763573 104.5737879
  83.2332953  12.3588210 104.2726707  82.5363405  11.0849786 103.8443521
  77.7568560  14.4349286 111.1508623  77.6113140  14.7489589 112.0432905
  77.2793763  15.0534186 110.5979522  79.6164942  11.4251834 111.1989513
  79.6026511  10.5292927 110.8621811  80.3337371  11.4322498 111.8327799
  81.4691073  11.8589174 113.2442640  81.2108851  12.7806245 113.2426971
  80.9376113  11.4619609 113.9343104  86.4137262  24.9639961 106.0232726
  86.5874139  24.3986384 105.2706578  86.9066153  25.7640856 105.8412216
  72.2314222  16.9754630 114.0896285  71.6867690  17.7514438 114.2216559
  73.1093572  17.3225435 113.9315406  79.0201838  10.3066214 106.4677083
  79.1417750   9.3782860 106.6667971  78.7303881  10.3204900 105.5555398
  81.8893029   7.9921124 109.6043803  81.9114726   8.0560458 108.6495782
  82.3061088   7.1525633 109.7984309  92.2676653  17.7276384 107.6423025
  92.7107799  16.9783709 107.2442149  91.3903163  17.7186520 107.2596757
  87.4012434  24.2806726 103.1229624  88.0963339  24.9013418 103.3416939
  87.7435585  23.4302077 103.3982002  73.0180244  16.1024526 116.9826441
  72.2761980  16.2507162 117.5691072  72.6972988  16.3632792 116.1193191
  89.3003857  21.7306431 104.6516955  89.8255182  22.0693704 103.9266275
  89.2126210  20.7953446 104.4680089  80.9623906  25.6440505 116.7806831
  81.2711033  25.3989651 117.6529531  81.7599388  25.8487143 116.2925702
  80.9844518  27.7978414 109.0112208  80.5449509  27.3054793 109.7045065
  81.7352635  27.2551382 108.7704283  73.4636857  23.9889955 109.0136836
  74.2894877  23.6893727 108.6335480  73.1130909  23.2197578 109.4626625
  78.4318390  23.3416423 111.0834510  77.8098400  22.6787128 110.7836737
  79.1023257  23.3677555 110.4008157  71.6645462  21.9076282 109.9725770
  70.8277371  21.4798456 109.7909771  71.6369108  22.1008725 110.9096561
  78.5042918  11.8198211 120.6767016  78.5531073  12.6960334 120.2944785
  79.0465432  11.2775604 120.1038659  88.9897764  22.3639335 119.9568153
  88.1993307  22.3463474 119.4172652  88.7531118  22.9027628 120.7117189
  89.1095639  19.2131801 117.2700881  89.1593644  19.0481808 118.2116404
  89.0009562  18.3459060 116.8798762  77.9931897  21.8920347 104.5592970
  78.1420018  22.5755811 103.9059643  78.7998341  21.8725437 105.0742426
  86.3999401  15.1962729 118.5860188  87.3009264  15.0569194 118.2944186
  86.4747376  15.3617184 119.5258365  80.7342206  12.5729584 117.4313374
  79.8645516  12.8663150 117.1595963  80.9701687  13.1570029 118.1520638
  90.6113835  21.6328743 117.5142903  90.3198644  21.9958723 118.3506364
  89.9985967  20.9195751 117.3356235  91.8109518  19.1981622 110.0345473
  92.6456409  19.6371426 110.1983033  91.9468647  18.7220276 109.2153719
  88.8601024  16.7561357 115.9822961  89.3355145  16.9489004 115.1741812
  87.9366589  16.8120543 115.7366344  75.7484530  17.9185524 105.5654039
  75.5030572  17.0147854 105.7634249  75.9180445  17.9202675 104.6233517
  83.4381240   8.7909201 114.9478795  83.9563184   9.5270228 114.6225283
  83.0836373   9.0973194 115.7825554  75.0180178  13.6513882 103.0640201
  74.3249423  13.7258237 102.4080236  74.7731930  12.8874226 103.5861717
  83.6893834   5.2109483 110.4679691  83.9695588   4.5432672 111.0940118
  84.4744441   5.4038579 109.9554355  81.4927303  24.3868477 102.0304718
  80.9201270  25.0058664 101.5775189  82.0660096  24.9367839 102.5644640
  87.5602693  13.6327117 114.2151266  88.5120116  13.7325215 114.2363490
  87.3906143  12.8405386 114.7249351  85.5817072  10.7182700 114.4010667
  84.9867004  10.9987713 113.7057156  85.2966769  11.2076601 115.1727408
  84.7124563  24.6705627 103.1613300  85.6455236  24.6051189 103.3646175
  84.6247775  25.5061894 102.7027833  87.3412579  23.9871498 100.1217247
  87.2626211  23.6531361 101.0153005  88.1622246  24.4793266 100.1208720
  90.0390770  16.8533237 113.3293566  90.0067091  15.9149238 113.5153250
  90.6491394  16.9317274 112.5959391  81.8774101  15.7229290  99.3720770
  82.8233206  15.5935498  99.4409188  81.4988346  14.9843952  99.8490198
  90.1885259  13.6444280 113.3751849  89.6724308  12.8602737 113.1881778
  91.0725207  13.3162997 113.5398369  87.8495986   7.3885296 109.3347662
  87.6520807   7.0800384 110.2190994  88.4595691   8.1146935 109.4645592
  95.8567320  17.9149244 112.4699603  96.5870709  17.6534532 113.0307306
  95.2474266  17.1777966 112.5101671  93.9382617  16.0557106 113.0674054
  93.2115781  15.9213071 112.4590546  93.5229904  16.3633935 113.8730772
  81.7612794  19.7747036 120.8321427  82.6815803  19.9525635 121.0261474
  81.7262377  18.8303081 120.6801126  80.0617018  13.6479266  99.3075655
  79.1548474  13.3512379  99.3838369  80.3392999  13.3509084  98.4409942
  70.9794959  14.9685630 109.7574702  70.6597743  14.1150938 109.4649076
  70.4328387  15.1834208 110.5132669  74.7574866  17.6848071 113.4744208
  74.9760876  18.6165179 113.4932242  75.1700640  17.3256045 114.2599012
  81.6779084   8.1916156 105.4619897  80.8679813   7.8463241 105.8375143
  82.3663501   7.8823700 106.0507508  83.6069632   7.2694203 107.0844193
  84.1600671   7.6889656 107.7434216  83.8439719   6.3429951 107.1267149
  79.6302732  13.2581276 122.8646957  79.5299459  14.2075633 122.7959048
  79.4124274  12.9299515 121.9923027  78.8315803  10.5066202  99.4487634
  79.6934967  10.8321100  99.7083452  79.0166147   9.7197697  98.9360700
  70.8483219  18.5888541 111.7267823  70.1546690  18.1742494 111.2137778
  71.5956210  18.6309078 111.1301242  86.9848440   9.3794728 106.5922857
  86.4047109  10.0379532 106.2100910  86.7184372   8.5572073 106.1810275
  85.4352006   8.7799786 108.7944178  85.9351784   8.8916320 107.9858497
  86.0787614   8.4760839 109.4344986  79.4934002  16.6878415 121.6812019
  79.0101083  17.4878775 121.8875908  79.5794941  16.6986360 120.7279463
  72.7619961  18.5206795 109.6033838  72.7390649  18.6194482 108.6515721
  73.0720598  19.3671946 109.9251004  75.4207339  20.5782950 113.7180453
  76.3750593  20.5466892 113.6510384  75.2219863  20.1173574 114.5330678
  76.0106721  19.1484066 116.2851250  76.8299610  19.6428145 116.3086088
  76.2843529  18.2316034 116.2568818  85.7673318  11.5394818 105.6479206
  84.8799173  11.8244469 105.4299401  86.1827307  11.3788582 104.8006483
  89.1187854  11.5641339 109.3633545  89.8948244  12.0537792 109.6358162
  88.3935988  11.9899394 109.8205414  91.5560412  12.2768959 110.4207486
  92.1504903  12.0364695 109.7100794  91.6286996  11.5576089 111.0481022
  73.7757568  26.1202570 110.7350650  73.6412036  25.3602970 110.1688648
  73.3589630  26.8443469 110.2679439  84.9116531  21.3039493  99.7427226
  85.6152381  21.5089496 100.3584881  84.1879180  21.8716255 100.0076309
  85.7414341  17.0549354 105.8629496  85.6849543  17.5117906 105.0237128
  86.2942684  16.2940039 105.6852339  89.5519147  12.8439086 106.6879615
  89.2956081  12.4435722 107.5187823  88.9272015  13.5582880 106.5629755
  93.8631485  15.5835159 109.1950907  93.3031043  15.6528349 109.9682469
  93.2574988  15.4076144 108.4750403  76.9326694  27.0171887 110.9469093
  76.8159078  27.9617319 110.8447783  76.1119140  26.7145448 111.3354892
  86.8203228  21.7422022 101.7925686  87.6548832  21.3103221 101.6103161
  86.6587571  21.5704036 102.7202580  86.4749121  18.2454136 103.1582025
  86.4197924  18.0798407 102.2170469  85.8495176  18.9530168 103.3144215
  71.2641636  13.4822200 116.9843447  71.9100499  12.9721154 117.4730672
  71.0558787  14.2190882 117.5586873  83.7895028  20.5503047 122.4835588
  84.6586187  20.7243700 122.1222223  83.3101779  21.3697464 122.3611317
  79.7845246   7.7462245 102.7367343  79.7723916   8.6904084 102.8935614
  80.6768668   7.5632390 102.4426805  77.9581208  27.6700148 114.1625022
  78.8608455  27.7023759 114.4791516  77.7318578  26.7400599 114.1771357
  79.7134810  26.4231135 110.8235100  78.7630441  26.4232997 110.7099472
  80.0167296  25.6763870 110.3071135  83.5997366   4.3405021 106.9913280
  82.8329761   3.7863508 107.1369963  84.0108071   4.4126890 107.8527432
  75.6039127  10.6289817 121.0818462  76.4670588  10.2726622 121.2921786
  75.0304537  10.2903712 121.7693866  95.4487504  32.2591673 111.8880863
  96.0865914  32.1398421 111.1844203  95.3308346  33.2072517 111.9468815
  92.2577210  32.2119101 111.8242387  91.9195721  32.0960166 110.9362922
  93.1266978  31.8110267 111.8043393  88.1164026  34.0654578 107.8139278
  87.5528891  33.9744515 107.0455566  88.0016421  33.2454482 108.2941771
  92.7396993  33.3653953 117.7828593  92.7285634  32.9706751 116.9109096
  92.9017632  32.6320026 118.3762364  85.6628457  35.5605769 110.6523499
  86.4549749  35.2196594 110.2369798  85.9025108  35.6700745 111.5725652
  93.6963584  37.7325546 103.1253743  93.0451564  38.3179626 102.7387757
  94.4907947  38.2631741 103.1848781  87.6219211  34.8214683 103.5240877
  88.3950087  34.2743670 103.3853753  87.9744610  35.6858932 103.7355339
  89.4604254  36.1491065 116.7307777  89.1694120  37.0536696 116.6154443
  90.0961238  36.1907593 117.4451846  90.3860461  33.5267914 113.3209136
  90.9824033  33.3023936 112.6066099  90.4435432  32.7852659 113.9234584
  89.9585489  30.9807349 101.1559327  90.2111010  30.4588870 100.3942790
  89.0210048  30.8173494 101.2586011  95.0028772  29.9843127 108.9634071
  95.7891861  29.5662550 108.6124488  95.2667476  30.8889219 109.1315719
  95.1738849  35.4215978 103.6622727  94.5384682  35.4950604 104.3743632
  94.8436256  36.0109576 102.9841807 100.4037199  29.9218360 109.8667049
 101.1362371  29.3517577 110.1004879  99.6476555  29.5339961 110.3073555
  89.6781778  32.8835455 103.3583702  89.5618036  32.2080358 104.0264787
  89.7884038  32.3967829 102.5415855  92.0213319  32.3445602 107.0630392
  91.6571526  31.8176223 107.7743313  92.8780435  31.9544071 106.8896877
  97.9262620  23.6339935 114.3261658  97.5945944  24.5035345 114.1022873
  97.3308233  23.3176219 115.0055688  91.6618806  27.3735502 102.0591740
  91.8293208  28.2415738 102.4262211  91.4715975  27.5362783 101.1353029
  94.4194139  35.8352481 113.7257570  94.1194862  36.7377519 113.6173378
  94.0745199  35.5684664 114.5778723  87.8706621  32.2866277 109.7594275
  86.9457117  32.1542491 109.9671967  88.1191034  33.0660497 110.2564217
  97.8191283  28.3535021 111.4055008  96.9108160  28.2850429 111.1113769
  97.7678879  28.8306966 112.2336833  91.6408027  29.8293159 103.0438407
  91.5207652  30.2750210 103.8823887  90.9460615  30.1778477 102.4851945
  85.2315432  31.9299551 110.5938064  85.3607813  32.1834030 111.5077476
  84.5512883  32.5227259 110.2742719  89.4014919  42.5996801 106.6928538
  89.3238949  43.5504626 106.7717019  88.7976562  42.2542673 107.3503464
  91.8932149  29.7724666 119.3489905  91.1165483  30.3318586 119.3392770
  92.5322712  30.2581449 119.8704775  99.6852929  26.5551459 113.1832882
  99.0427309  26.8483992 112.5372676  99.1807858  26.4404379 113.9886078
  97.3393093  30.3014632 103.8718741  98.2510949  30.5342019 103.6966438
  96.8302740  30.8851677 103.3093820  90.1478521  32.5810120 118.9107872
  90.8893205  33.1195164 118.6342696  89.4415506  33.2076408 119.0679424
  95.6233861  34.7239260 117.5080034  96.0317217  34.2821671 116.7634666
  94.9011122  34.1491888 117.7614226  91.9764931  29.6611867 114.8813590
  92.8226126  30.0851280 115.0248239  91.9163568  29.0045491 115.5752154
  95.9462675  35.2840451 111.2632322  95.3171538  35.4486165 110.5608390
  95.5588337  35.6982060 112.0343286  99.8251907  36.2194889 108.6176686
  99.1402945  36.5993790 108.0673719  99.9095756  36.8290215 109.3508634
  95.1264376  27.3216235 116.5394764  94.8825308  28.0758296 116.0029040
  95.4024306  27.7001583 117.3742011  97.0802839  33.8654848 115.2172030
  97.2919734  34.5086608 114.5406411  97.0332587  33.0317164 114.7493960
  94.6829068  26.4772668 112.1208602  93.8213547  26.7753922 112.4125339
  94.7091502  26.6943067 111.1889634  91.4990637  35.0214859 108.5282407
  91.9628983  35.3002562 107.7387030  91.2347435  34.1198303 108.3455498
  88.3914718  34.5686340 111.4662171  88.9616075  34.9973609 110.8279655
  88.9822830  34.2868925 112.1646356  90.4359523  31.1438011 105.3371973
  91.1383566  31.5959055 105.8045899  90.1040152  30.5021830 105.9651866
  88.8839885  29.7349768 119.7123182  88.2538545  30.4166049 119.9458579
  88.7775973  29.6232849 118.7676320  84.1784857  29.4021564 110.6389106
  83.3883911  29.6579092 110.1629217  84.6696104  30.2169902 110.7441147
  98.1948667  36.7426803 113.3894387  99.0166110  36.3406990 113.1077069
  98.1911070  36.6395037 114.3410503  86.1299602  29.7666143 107.5972583
  85.3330766  29.8784837 108.1156079  85.9025195  30.1052795 106.7313473
  91.9605270  36.2910846 115.5455098  92.0249703  36.7531254 116.3813269
  91.2516194  35.6608211 115.6737407  82.4622560  29.6552054 113.0704097
  82.7130599  30.5399064 113.3361673  82.9982108  29.4756656 112.2979189
 106.2854660  33.0865552 109.7379358 105.5318368  32.5172950 109.5823363
 106.4202201  33.0528216 110.6849993  91.6753288  37.9578954 105.4134078
  91.5398963  38.8030490 105.8418926  92.2163100  38.1598231 104.6500012
  88.1620627  24.0370534 122.0748433  87.7687573  23.4836732 122.7496077
  88.9786768  24.3481112 122.4654951  85.1282685  35.4754392 105.9862003
  85.6407206  36.2697642 106.1367568  85.7805398  34.7780682 105.9195604
  86.9377570  38.5920148 108.0684756  87.1144198  39.5138113 107.8805740
  87.7334403  38.2778567 108.4979136  91.0788588  25.4528413 119.6668690
  91.8198302  26.0535566 119.5873152  91.3106511  24.7106051 119.1086732
  86.2229926  30.6384780 117.9446919  86.1083442  29.7370037 118.2454018
  85.3674444  30.8848477 117.5931736  93.3021764  38.5802520 119.5434420
  92.8585618  37.7938899 119.2255324  93.9638978  38.7681671 118.8778311
  88.0608885  40.1098322 114.0695098  88.6116310  39.9815385 113.2972092
  87.2220361  40.4093211 113.7189991  95.4003002  38.8605320 117.5715821
  95.3821478  39.6814201 117.0796090  96.3222922  38.7359395 117.7965962
  91.8576056  36.3749450 118.4139330  92.3904393  35.6137738 118.1838638
  91.3290137  36.0823102 119.1563484  95.0245751  21.4809516 113.9432971
  94.6810021  22.3711157 113.8672082  95.3924714  21.2911173 113.0802556
  83.0931602  33.8043046 106.7621573  83.9306824  34.2140055 106.5455281
  83.2709870  32.8642488 106.7321767  94.9896034  31.4718127 102.4505406
  94.4742657  32.2422731 102.6893794  94.7173342  30.7983263 103.0738468
  92.5743145  26.3167828 107.5090645  91.7184741  25.9274678 107.3296284
  92.9870097  26.3959788 106.6490430  94.1042292  23.8514171 111.9082205
  93.6007087  23.8144306 111.0950010  94.3972899  24.7606914 111.9678861
  90.3485178  23.9352901 110.9148386  91.2138174  23.7395709 110.5554276
  90.4162687  23.7063252 111.8417743  99.9630308  34.2250481 104.3858580
  99.1859751  33.8861641 103.9413742 100.6421789  34.2303105 103.7113545
  94.7782337  29.3445219 104.2765188  94.4732473  29.6591368 105.1275331
  95.7312779  29.4226639 104.3192521  93.2228769  35.5035442 105.9258142
  92.6950131  34.7688202 105.6131379  92.7216272  36.2810119 105.6798110
  98.2021615  33.6984463 111.0425188  97.5445290  34.3883724 111.1305317
  99.0062014  34.0880895 111.3859174  87.9547497  26.1655109 108.2864753
  88.5291249  25.9430290 107.5537946  88.5418479  26.2343803 109.0393354
  97.0127074  32.0528835 109.0929130  97.5258956  32.6858827 109.5950839
  97.6628298  31.4530031 108.7272490  88.2817084  28.1959570 102.3060638
  87.4454396  28.5334256 102.6269913  88.1421853  28.0608549 101.3687775
  90.2570164  23.0396357 107.0139823  89.6034577  22.7245375 106.3896437
  90.2150639  22.4172098 107.7399645  91.3681369  33.3215652  98.9293115
  90.4608431  33.0904906  99.1284264  91.8652401  32.5253272  99.1167096
  94.2749448  42.0313160 101.8489801  93.6011147  42.3344856 102.4574759
  94.6615270  42.8342240 101.4995258  93.4907905  29.5278291 111.3387470
  92.5730466  29.7493238 111.1809158  93.9068048  29.6024601 110.4799178
  94.2742953  30.9269707 106.4690150  95.0214771  31.4391104 106.1597272
  94.5434542  30.6053759 107.3294544  92.5469603  33.4228247 103.4517105
  91.6380822  33.1387280 103.5489574  92.5764686  33.8427326 102.5920412
  97.7788870  37.0334837 107.2208272  97.3251197  36.1925747 107.2773463
  97.1482837  37.6696235 107.5583052  96.7221790  27.9626823 108.4508940
  95.9844546  27.4504209 108.7819182  96.9748563  27.5227205 107.6392217
  96.2221809  38.8711334 108.1558090  96.5144784  39.4316391 107.4370456
  96.7320430  39.1639895 108.9111250  96.8233417  20.7403075 109.0450709
  97.1292294  19.8800438 108.7576624  97.5486022  21.3320695 108.8449703
  83.1157773  31.1433761 107.4332307  82.9182173  30.5503122 106.7083373
  82.5604437  30.8385972 108.1508246  91.0954497  31.0356868 109.5526900
  91.1503107  30.0830704 109.4769377  90.2845699  31.1916307 110.0368198
  92.2445690  34.9636991 100.7905183  91.8065120  34.2472850 100.3310821
  92.9856131  35.1913106 100.2290275  89.0346857  29.6533928 107.3117279
  88.2214722  29.9528098 107.7182471  89.5305851  29.2589616 108.0291761
  91.1855435  39.6491685 109.2451544  91.1431613  39.8752531 108.3160076
  92.1018133  39.4155059 109.3937345  94.6321068  30.1175752 116.1432173
  94.9870456  30.3447225 117.0026639  95.2793200  30.4494129 115.5209428
 100.3618805  33.2394188 106.8481502 100.2236704  33.4295784 105.9202691
 100.0055024  34.0013571 107.3049553  88.5260931  27.2252283 112.9278514
  89.1660311  27.0841042 112.2301477  87.6938462  26.9386797 112.5517116
 100.3888185  35.3070715 111.8592773 100.8224692  35.2146004 112.7075827
 101.1019766  35.2828216 111.2212789  89.3021235  36.5254714 109.0413506
  90.0961834  36.0305034 108.8396081  88.5912928  35.9972577 108.6781212
  94.1216080  38.9072809 113.3925874  94.1753102  39.4763746 114.1603590
  93.2530861  39.0774694 113.0279911  85.6103999  30.6697795 105.1173259
  84.6801587  30.6082251 105.3343221  85.7061471  30.1473748 104.3209900
  85.5289548  27.1952608 107.7051501  85.7896365  28.1097941 107.5960661
  86.3506720  26.7277051 107.8548114  87.0014473  28.6090365 114.8750325
  87.6737527  28.4007728 114.2262974  86.1744260  28.4112451 114.4355558
 101.2503734  35.3494416 114.3925659 101.4439625  36.2540226 114.6384934
 101.1504353  34.8901835 115.2264244  92.9040045  25.2352306 116.8915986
  92.2567960  25.9342256 116.7980462  93.6741061  25.6688450 117.2592234
  96.3118843  35.5001158 119.9666539  96.1604350  35.2711710 119.0496623
  96.3023523  36.4571760 119.9797884  93.0804180  33.0733071 114.9512806
  94.0096240  33.2244231 114.7781773  92.6595210  33.1617092 114.0961452
  91.8792511  37.0983736 112.7211343  91.7403597  36.7302520 113.5937282
  91.0907108  37.6131375 112.5495301  92.4740663  42.1992832 104.0636880
  92.6492419  41.7280875 104.8782503  91.7873451  42.8258598 104.2918141
  93.4297726  36.4765338 110.1100181  93.0947559  36.4366108 111.0057831
  92.9301672  35.8110054 109.6370591  87.4041970  31.8832968 115.6352762
  87.2661768  31.1513207 116.2364301  88.3146894  31.7941868 115.3536950
  96.3656918  33.8221373 100.3837241  95.7486089  33.0968201 100.2870294
  95.8973407  34.5830733 100.0404315  90.0324271  31.5952928 115.1236442
  90.7423890  30.9546120 115.0823060  89.9893579  31.8465823 116.0462623
  98.0211050  38.5320281 118.0443021  97.9623596  37.8479501 117.3773604
  98.4230568  39.2739271 117.5923647  88.7453205  28.5818146 116.9432081
  88.2090562  28.1308884 117.5953678  88.1569914  28.7164054 116.2002546
  87.0401749  45.3482195 110.8376740  87.2798347  45.9800719 111.5155759
  86.1970945  44.9970235 111.1242099  88.1555464  28.0406797  99.5058545
  87.2784930  27.9195598  99.1420792  88.6313217  27.2492875  99.2537434
  98.0228457  36.4959865 116.2757001  97.1355236  36.1585787 116.3983400
  98.5927008  35.7642896 116.5125766  79.6757604  32.8283957 109.6000052
  80.3628644  32.5145687 109.0121068  79.5205733  33.7325321 109.3267304
  84.4792326  27.7174153 114.0285076  84.3950515  27.1099823 113.2935486
  83.6575033  28.2083172 114.0294572  91.5529610  41.1561317 113.2418244
  91.4799782  41.9616289 113.7537549  91.1107004  41.3553283 112.4166266
  91.3419390  40.3933087 106.7521066  90.5586912  40.9354768 106.8459290
  92.0412135  40.9107067 107.1515307  94.6516040  26.2027717 109.3955271
  95.1484740  25.4497679 109.0756341  93.8803022  26.2392033 108.8298480
 102.5045798  31.9068082 111.0373563 102.4935674  32.7892798 110.6667496
 101.6363177  31.5539633 110.8428100  94.0128294  41.0548151 115.3976403
  94.7256266  41.6895616 115.3252304  93.5218323  41.1512017 114.5816405
  95.7345821  34.9599404 106.9693694  94.8002100  35.0800866 106.7998399
  95.9122489  34.0571871 106.7053704  91.2351009  28.3445100 109.1226956
  90.8648796  27.7916140 109.8107861  91.7310101  27.7403233 108.5701956
  99.1218372  30.8016723 107.5043729  99.5878824  31.6344715 107.4304031
  99.5725873  30.3361705 108.2088987  89.0640207  38.8042595 116.2181974
  89.7649667  39.4379078 116.3711368  88.5935322  39.1457326 115.4577613
  97.1894603  37.1460545 104.5029881  97.4654447  37.0317139 105.4123755
  96.3199102  36.7478029 104.4642054  97.0935035  23.1697310 111.5434630
  96.1798115  23.4001537 111.7116837  97.5228136  23.2535754 112.3948662
  96.8641493  31.3587202 114.0434524  96.2112944  31.6063110 113.3886977
  97.2421873  30.5451340 113.7097001  93.8248667  41.3946895 108.1462694
  94.0071062  40.5768551 108.6090447  94.6481653  41.6114588 107.7087584
  94.1590833  40.3215081 105.4077743  94.6878599  39.8107535 104.7947905
  94.4219052  40.0057611 106.2723276  92.9129066  32.1007013 120.5300561
  92.2369703  32.0001143 121.2002936  93.7356700  31.9446227 120.9936558
  84.6607926  38.3378950 113.1513076  85.2461362  37.5922638 113.2840980
  84.4632764  38.6482907 114.0349740  87.5146581  41.3730197 108.1675519
  86.8456956  41.8576325 107.6839559  87.3759450  41.6199418 109.0818897
  79.2525580  30.9084550 111.8717519  79.2909680  30.3748141 112.6654638
  78.7465873  30.3819756 111.2528497  91.6551849  43.4073941 114.7658177
  92.2070157  43.5705562 115.5307262  91.9958043  43.9978379 114.0938202
  86.6316343  25.7549091 115.3680062  86.6957669  26.6163921 114.9557459
  86.5683463  25.1423092 114.6352420  86.1068615  27.8272223 119.0153096
  86.7340654  27.4449300 119.6290620  85.2496534  27.6086425 119.3808788
  96.5062724  38.2335198 120.6206831  97.0502628  38.8465157 120.1261786
  95.9249569  38.7914777 121.1373844  82.8834158  29.6348652 104.9471451
  83.1787599  28.7259331 104.8938505  81.9822194  29.6136392 104.6252453
  94.7920237  41.3555916 111.7521859  94.6671376  40.5545656 111.2432805
  95.4499328  41.8502110 111.2635829  86.4128405  27.7104649 110.9298999
  85.6914991  28.3240617 110.7906473  87.2021661  28.2462414 110.8515645
  96.8555145  39.1564936 113.3801409  95.9085481  39.0370288 113.3079736
  97.2037918  38.2687434 113.4627671  89.2154718  25.0459075 117.2039651
  89.7389120  25.2921372 117.9665960  88.9967052  25.8779110 116.7842789
  84.6121999  27.3162750 105.0710776  84.2834706  26.4360129 104.8885882
  84.9661370  27.2610419 105.9587165  93.8601578  38.9517653 109.5805761
  93.7126541  38.0234360 109.7613332  94.6855072  38.9737743 109.0962837
  87.7263823  27.6035720 105.4386254  88.0659895  28.1321641 104.7164862
  88.1735943  27.9416126 106.2144820  97.4635700  39.7746211 110.6670634
  98.3882248  39.5689073 110.5295085  97.2951004  39.5262612 111.5759976
  90.4207263  25.9872770 114.8889322  90.0804084  25.1880583 115.2910002
  89.7146270  26.2874481 114.3166155  91.0723735  23.0722083 113.3416645
  91.8949805  22.5982561 113.2195535  91.3161799  23.8512567 113.8415331
  89.7131970  26.1010341 103.6379546  90.4340332  26.4791594 103.1343263
  89.0897274  26.8199218 103.7414524  93.8563093  26.8055490 104.5737879
  94.0726707  27.6880128 104.2726707  93.3757160  26.4141704 103.8443521
  88.5962314  29.7641203 111.1508623  88.4506895  30.0781507 112.0432905
  88.1187518  30.3826104 110.5979522  90.4558697  26.7543751 111.1989513
  90.4420266  25.8584845 110.8621811  91.1731125  26.7614415 111.8327799
  92.3084828  27.1881092 113.2442640  92.0502605  28.1098162 113.2426971
  91.7769868  26.7911526 113.9343104  97.2531016  40.2931879 106.0232726
  97.4267894  39.7278301 105.2706578  97.7459908  41.0932774 105.8412216
  83.0707976  32.3046548 114.0896285  82.5261444  33.0806356 114.2216559
  83.9487326  32.6517352 113.9315406  89.8595593  25.6358132 106.4677083
  89.9811504  24.7074778 106.6667971  89.5697635  25.6496818 105.5555398
  92.7286783  23.3213042 109.6043803  92.7508480  23.3852375 108.6495782
  93.1454842  22.4817551 109.7984309 103.1070408  33.0568302 107.6423025
 103.5501554  32.3075627 107.2442149 102.2296918  33.0478438 107.2596757
  98.2406189  39.6098643 103.1229624  98.9357093  40.2305336 103.3416939
  98.5829339  38.7593994 103.3982002  83.8573998  31.4316444 116.9826441
  83.1155734  31.5799079 117.5691072  83.5366742  31.6924710 116.1193191
 100.1397612  37.0598349 104.6516955 100.6648936  37.3985621 103.9266275
 100.0519965  36.1245364 104.4680089  91.8017661  40.9732422 116.7806831
  92.1104787  40.7281569 117.6529531  92.5993143  41.1779061 116.2925702
  91.8238273  43.1270332 109.0112208  91.3843263  42.6346711 109.7045065
  92.5746390  42.5843300 108.7704283  84.3030612  39.3181873 109.0136836
  85.1288632  39.0185645 108.6335480  83.9524664  38.5489495 109.4626625
  89.2712145  38.6708341 111.0834510  88.6492154  38.0079046 110.7836737
  89.9417012  38.6969473 110.4008157  82.5039217  37.2368199 109.9725770
  81.6671125  36.8090374 109.7909771  82.4762862  37.4300643 110.9096561
  89.3436672  27.1490129 120.6767016  89.3924828  28.0252252 120.2944785
  89.8859187  26.6067522 120.1038659  99.8291518  37.6931252 119.9568153
  99.0387062  37.6755391 119.4172652  99.5924873  38.2319546 120.7117189
  99.9489393  34.5423719 117.2700881  99.9987398  34.3773726 118.2116404
  99.8403316  33.6750978 116.8798762  88.8325652  37.2212264 104.5592970
  88.9813772  37.9047729 103.9059643  89.6392095  37.2017354 105.0742426
  97.2393155  30.5254647 118.5860188  98.1403018  30.3861112 118.2944186
  97.3141130  30.6909102 119.5258365  91.5735961  27.9021502 117.4313374
  90.7039270  28.1955068 117.1595963  91.8095441  28.4861947 118.1520638
 101.4507590  36.9620660 117.5142903 101.1592398  37.3250641 118.3506364
 100.8379721  36.2487669 117.3356235 102.6503272  34.5273540 110.0345473
 103.4850164  34.9663344 110.1983033 102.7862401  34.0512193 109.2153719
  99.6994778  32.0853275 115.9822961 100.1748900  32.2780921 115.1741812
  98.7760344  32.1412461 115.7366344  86.5878285  33.2477442 105.5654039
  86.3424327  32.3439772 105.7634249  86.7574199  33.2494593 104.6233517
  94.2774995  24.1201118 114.9478795  94.7956939  24.8562145 114.6225283
  93.9230127  24.4265112 115.7825554  85.8573932  28.9805800 103.0640201
  85.1643177  29.0550155 102.4080236  85.6125684  28.2166143 103.5861717
  94.5287589  20.5401401 110.4679691  94.8089343  19.8724590 111.0940118
  95.3138196  20.7330497 109.9554355  92.3321057  39.7160395 102.0304718
  91.7595024  40.3350582 101.5775189  92.9053851  40.2659757 102.5644640
  98.3996447  28.9619035 114.2151266  99.3513870  29.0617133 114.2363490
  98.2299898  28.1697304 114.7249351  96.4210827  26.0474618 114.4010667
  95.8260759  26.3279631 113.7057156  96.1360523  26.5368519 115.1727408
  95.5518317  39.9997545 103.1613300  96.4848990  39.9343107 103.3646175
  95.4641530  40.8353812 102.7027833  98.1806334  39.3163415 100.1217247
  98.1019965  38.9823279 101.0153005  99.0016001  39.8085183 100.1208720
 100.8784525  32.1825155 113.3293566 100.8460845  31.2441155 113.5153250
 101.4885149  32.2609191 112.5959391  92.7167856  31.0521208  99.3720770
  93.6626961  30.9227416  99.4409188  92.3382101  30.3135870  99.8490198
 101.0279013  28.9736198 113.3751849 100.5118062  28.1894655 113.1881778
 101.9118962  28.6454915 113.5398369  98.6889740  22.7177214 109.3347662
  98.4914561  22.4092302 110.2190994  99.2989446  23.4438853 109.4645592
 106.6961075  33.2441161 112.4699603 107.4264463  32.9826450 113.0307306
 106.0868020  32.5069883 112.5101671 104.7776372  31.3849024 113.0674054
 104.0509535  31.2504989 112.4590546 104.3623659  31.6925853 113.8730772
  92.6006548  35.1038954 120.8321427  93.5209558  35.2817553 121.0261474
  92.5656131  34.1594999 120.6801126  90.9010773  28.9771184  99.3075655
  89.9942228  28.6804297  99.3838369  91.1786754  28.6801002  98.4409942
  81.8188713  30.2977547 109.7574702  81.4991498  29.4442856 109.4649076
  81.2722142  30.5126126 110.5132669  85.5968621  33.0139988 113.4744208
  85.8154631  33.9457096 113.4932242  86.0094395  32.6547963 114.2599012
  92.5172839  23.5208074 105.4619897  91.7073567  23.1755159 105.8375143
  93.2057256  23.2115617 106.0507508  94.4463387  22.5986121 107.0844193
  94.9994426  23.0181574 107.7434216  94.6833473  21.6721869 107.1267149
  90.4696486  28.5873194 122.8646957  90.3693213  29.5367551 122.7959048
  90.2518028  28.2591433 121.9923027  89.6709558  25.8358119  99.4487634
  90.5328722  26.1613018  99.7083452  89.8559902  25.0489615  98.9360700
  81.6876973  33.9180459 111.7267823  80.9940445  33.5034412 111.2137778
  82.4349964  33.9600995 111.1301242  97.8242194  24.7086646 106.5922857
  97.2440863  25.3671450 106.2100910  97.5578127  23.8863990 106.1810275
  96.2745760  24.1091703 108.7944178  96.7745539  24.2208238 107.9858497
  96.9181368  23.8052756 109.4344986  90.3327756  32.0170333 121.6812019
  89.8494838  32.8170693 121.8875908  90.4188695  32.0278278 120.7279463
  83.6013716  33.8498713 109.6033838  83.5784404  33.9486400 108.6515721
  83.9114352  34.6963863 109.9251004  86.2601094  35.9074868 113.7180453
  87.2144347  35.8758810 113.6510384  86.0613617  35.4465491 114.5330678
  86.8500476  34.4775984 116.2851250  87.6693365  34.9720062 116.3086088
  87.1237284  33.5607952 116.2568818  96.6067072  26.8686736 105.6479206
  95.7192927  27.1536387 105.4299401  97.0221061  26.7080499 104.8006483
  99.9581608  26.8933257 109.3633545 100.7341998  27.3829709 109.6358162
  99.2329742  27.3191311 109.8205414 102.3954167  27.6060876 110.4207486
 102.9898658  27.3656612 109.7100794 102.4680751  26.8868007 111.0481022
  84.6151323  41.4494487 110.7350650  84.4805790  40.6894888 110.1688648
  84.1983385  42.1735387 110.2679439  95.7510286  36.6331411  99.7427226
  96.4546136  36.8381413 100.3584881  95.0272934  37.2008173 100.0076309
  96.5808096  32.3841272 105.8629496  96.5243297  32.8409823 105.0237128
  97.1336438  31.6231957 105.6852339 100.3912902  28.1731004 106.6879615
 100.1349836  27.7727640 107.5187823  99.7665770  28.8874798 106.5629755
 104.7025240  30.9127077 109.1950907 104.1424798  30.9820266 109.9682469
 104.0968743  30.7368062 108.4750403  87.7720448  42.3463804 110.9469093
  87.6552833  43.2909237 110.8447783  86.9512895  42.0437366 111.3354892
  97.6596983  37.0713940 101.7925686  98.4942587  36.6395138 101.6103161
  97.4981326  36.8995954 102.7202580  97.3142875  33.5746053 103.1582025
  97.2591679  33.4090325 102.2170469  96.6888930  34.2822086 103.3144215
  82.1035390  28.8114118 116.9843447  82.7494254  28.3013072 117.4730672
  81.8952541  29.5482799 117.5586873  94.6288782  35.8794965 122.4835588
  95.4979942  36.0535617 122.1222223  94.1495534  36.6989382 122.3611317
  90.6239001  23.0754162 102.7367343  90.6117670  24.0196002 102.8935614
  91.5162422  22.8924308 102.4426805  88.7974963  42.9992066 114.1625022
  89.7002209  43.0315676 114.4791516  88.5712333  42.0692517 114.1771357
  90.5528565  41.7523053 110.8235100  89.6024196  41.7524914 110.7099472
  90.8561051  41.0055787 110.3071135  94.4391120  19.6696939 106.9913280
  93.6723516  19.1155426 107.1369963  94.8501825  19.7418808 107.8527432
  86.4432881  25.9581735 121.0818462  87.3064343  25.6018540 121.2921786
  85.8698292  25.6195630 121.7693866 106.2881258  47.5883591 111.8880863
 106.9259668  47.4690338 111.1844203 106.1702101  48.5364435 111.9468815
 103.0970964  47.5411019 111.8242387 102.7589476  47.4252084 110.9362922
 103.9660733  47.1402184 111.8043393  98.9557780  49.3946496 107.8139278
  98.3922645  49.3036433 107.0455566  98.8410175  48.5746400 108.2941771
 103.5790747  48.6945871 117.7828593 103.5679388  48.2998669 116.9109096
 103.7411387  47.9611944 118.3762364  96.5022212  50.8897687 110.6523499
  97.2943504  50.5488512 110.2369798  96.7418862  50.9992662 111.5725652
 104.5357339  53.0617463 103.1253743 103.8845318  53.6471544 102.7387757
 105.3301702  53.5923658 103.1848781  98.4612966  50.1506600 103.5240877
  99.2343842  49.6035588 103.3853753  98.8138365  51.0150850 103.7355339
 100.2998008  51.4782983 116.7307777 100.0087874  52.3828614 116.6154443
 100.9354993  51.5199510 117.4451846 101.2254215  48.8559831 113.3209136
 101.8217788  48.6315854 112.6066099 101.2829187  48.1144577 113.9234584
 100.7979244  46.3099267 101.1559327 101.0504764  45.7880788 100.3942790
  99.8603803  46.1465412 101.2586011 105.8422527  45.3135045 108.9634071
 106.6285616  44.8954468 108.6124488 106.1061231  46.2181137 109.1315719
 106.0132604  50.7507895 103.6622727 105.3778437  50.8242522 104.3743632
 105.6830010  51.3401494 102.9841807 111.2430954  45.2510278 109.8667049
 111.9756126  44.6809495 110.1004879 110.4870309  44.8631879 110.3073555
 100.5175532  48.2127373 103.3583702 100.4011791  47.5372276 104.0264787
 100.6277792  47.7259746 102.5415855 102.8607073  47.6737520 107.0630392
 102.4965281  47.1468141 107.7743313 103.7174189  47.2835989 106.8896877
 108.7656374  38.9631852 114.3261658 108.4339699  39.8327263 114.1022873
 108.1701987  38.6468136 115.0055688 102.5012560  42.7027419 102.0591740
 102.6686963  43.5707656 102.4262211 102.3109729  42.8654701 101.1353029
 105.2587894  51.1644398 113.7257570 104.9588617  52.0669437 113.6173378
 104.9138953  50.8976581 114.5778723  98.7100375  47.6158195 109.7594275
  97.7850871  47.4834409 109.9671967  98.9584788  48.3952414 110.2564217
 108.6585037  43.6826938 111.4055008 107.7501915  43.6142347 111.1113769
 108.6072633  44.1598883 112.2336833 102.4801781  45.1585077 103.0438407
 102.3601406  45.6042128 103.8823887 101.7854370  45.5070394 102.4851945
  96.0709186  47.2591469 110.5938064  96.2001567  47.5125948 111.5077476
  95.3906637  47.8519177 110.2742719 100.2408673  57.9288719 106.6928538
 100.1632703  58.8796544 106.7717019  99.6370317  57.5834591 107.3503464
 102.7325903  45.1016584 119.3489905 101.9559237  45.6610504 119.3392770
 103.3716466  45.5873367 119.8704775 110.5246684  41.8843377 113.1832882
 109.8821064  42.1775910 112.5372676 110.0201612  41.7696297 113.9886078
 108.1786847  45.6306550 103.8718741 109.0904704  45.8633937 103.6966438
 107.6696494  46.2143594 103.3093820 100.9872275  47.9102037 118.9107872
 101.7286960  48.4487081 118.6342696 100.2809261  48.5368326 119.0679424
 106.4627615  50.0531178 117.5080034 106.8710971  49.6113588 116.7634666
 105.7404877  49.4783805 117.7614226 102.8158685  44.9903785 114.8813590
 103.6619880  45.4143198 115.0248239 102.7557323  44.3337409 115.5752154
 106.7856430  50.6132368 111.2632322 106.1565292  50.7778083 110.5608390
 106.3982092  51.0273978 112.0343286 110.6645662  51.5486806 108.6176686
 109.9796700  51.9285708 108.0673719 110.7489511  52.1582133 109.3508634
 105.9658130  42.6508153 116.5394764 105.7219062  43.4050213 116.0029040
 106.2418061  43.0293501 117.3742011 107.9196593  49.1946765 115.2172030
 108.1313488  49.8378525 114.5406411 107.8726341  48.3609082 114.7493960
 105.5222822  41.8064586 112.1208602 104.6607301  42.1045840 112.4125339
 105.5485257  42.0234985 111.1889634 102.3384392  50.3506777 108.5282407
 102.8022737  50.6294480 107.7387030 102.0741190  49.4490221 108.3455498
  99.2308473  49.8978258 111.4662171  99.8009830  50.3265526 110.8279655
  99.8216584  49.6160843 112.1646356 101.2753278  46.4729929 105.3371973
 101.9777321  46.9250973 105.8045899 100.9433906  45.8313748 105.9651866
  99.7233639  45.0641686 119.7123182  99.0932300  45.7457966 119.9458579
  99.6169727  44.9524767 118.7676320  95.0178612  44.7313482 110.6389106
  94.2277666  44.9871010 110.1629217  95.5089859  45.5461819 110.7441147
 109.0342421  52.0718721 113.3894387 109.8559865  51.6698908 113.1077069
 109.0304824  51.9686955 114.3410503  96.9693357  45.0958061 107.5972583
  96.1724520  45.2076755 108.1156079  96.7418949  45.4344713 106.7313473
 102.7999025  51.6202764 115.5455098 102.8643457  52.0823171 116.3813269
 102.0909948  50.9900129 115.6737407  93.3016315  44.9843972 113.0704097
  93.5524353  45.8690982 113.3361673  93.8375863  44.8048574 112.2979189
 117.1248414  48.4157469 109.7379358 116.3712123  47.8464867 109.5823363
 117.2595955  48.3820134 110.6849993 102.5147042  53.2870872 105.4134078
 102.3792717  54.1322407 105.8418926 103.0556855  53.4890149 104.6500012
  99.0014382  39.3662451 122.0748433  98.6081327  38.8128650 122.7496077
  99.8180522  39.6773030 122.4654951  95.9676440  50.8046310 105.9862003
  96.4800960  51.5989560 106.1367568  96.6199152  50.1072600 105.9195604
  97.7771324  53.9212066 108.0684756  97.9537953  54.8430031 107.8805740
  98.5728158  53.6070485 108.4979136 101.9182343  40.7820330 119.6668690
 102.6592056  41.3827484 119.5873152 102.1500266  40.0397968 119.1086732
  97.0623681  45.9676698 117.9446919  96.9477196  45.0661955 118.2454018
  96.2068199  46.2140394 117.5931736 104.1415519  53.9094438 119.5434420
 103.6979373  53.1230817 119.2255324 104.8032732  54.0973589 118.8778311
  98.9002640  55.4390240 114.0695098  99.4510065  55.3107303 113.2972092
  98.0614116  55.7385129 113.7189991 106.2396757  54.1897238 117.5715821
 106.2215232  55.0106119 117.0796090 107.1616677  54.0651313 117.7965962
 102.6969811  51.7041367 118.4139330 103.2298148  50.9429656 118.1838638
 102.1683892  51.4115019 119.1563484 105.8639506  36.8101433 113.9432971
 105.5203775  37.7003075 113.8672082 106.2318468  36.6203091 113.0802556
  93.9325356  49.1334964 106.7621573  94.7700578  49.5431972 106.5455281
  94.1103624  48.1934406 106.7321767 105.8289789  46.8010044 102.4505406
 105.3136412  47.5714649 102.6893794 105.5567097  46.1275181 103.0738468
 103.4136900  41.6459745 107.5090645 102.5578496  41.2566596 107.3296284
 103.8263851  41.7251706 106.6490430 104.9436046  39.1806089 111.9082205
 104.4400842  39.1436224 111.0950010 105.2366653  40.0898831 111.9678861
 101.1878932  39.2644818 110.9148386 102.0531929  39.0687627 110.5554276
 101.2556441  39.0355170 111.8417743 110.8024063  49.5542399 104.3858580
 110.0253505  49.2153559 103.9413742 111.4815544  49.5595022 103.7113545
 105.6176092  44.6737137 104.2765188 105.3126227  44.9883286 105.1275331
 106.5706534  44.7518556 104.3192521 104.0622524  50.8327360 105.9258142
 103.5343885  50.0980119 105.6131379 103.5610026  51.6102036 105.6798110
 109.0415370  49.0276380 111.0425188 108.3839044  49.7175642 111.1305317
 109.8455769  49.4172812 111.3859174  98.7941251  41.4947026 108.2864753
  99.3685003  41.2722208 107.5537946  99.3812234  41.5635721 109.0393354
 107.8520828  47.3820753 109.0929130 108.3652710  48.0150745 109.5950839
 108.5022052  46.7821949 108.7272490  99.1210838  43.5251487 102.3060638
  98.2848151  43.8626174 102.6269913  98.9815608  43.3900467 101.3687775
 101.0963919  38.3688275 107.0139823 100.4428331  38.0537292 106.3896437
 101.0544393  37.7464016 107.7399645 102.2075124  48.6507570  98.9293115
 101.3002185  48.4196824  99.1284264 102.7046156  47.8545189  99.1167096
 105.1143203  57.3605077 101.8489801 104.4404901  57.6636774 102.4574759
 105.5009025  58.1634158 101.4995258 104.3301659  44.8570209 111.3387470
 103.4124221  45.0785156 111.1809158 104.7461803  44.9316519 110.4799178
 105.1136707  46.2561624 106.4690150 105.8608526  46.7683022 106.1597272
 105.3828297  45.9345677 107.3294544 103.3863357  48.7520165 103.4517105
 102.4774576  48.4679198 103.5489574 103.4158441  49.1719244 102.5920412
 108.6182625  52.3626755 107.2208272 108.1644952  51.5217664 107.2773463
 107.9876591  52.9988153 107.5583052 107.5615544  43.2918741 108.4508940
 106.8238301  42.7796127 108.7819182 107.8142318  42.8519122 107.6392217
 107.0615564  54.2003251 108.1558090 107.3538538  54.7608308 107.4370456
 107.5714184  54.4931812 108.9111250 107.6627171  36.0694993 109.0450709
 107.9686048  35.2092356 108.7576624 108.3879776  36.6612613 108.8449703
  93.9551528  46.4725679 107.4332307  93.7575927  45.8795040 106.7083373
  93.3998192  46.1677889 108.1508246 101.9348251  46.3648786 109.5526900
 101.9896861  45.4122622 109.4769377 101.1239453  46.5208225 110.0368198
 103.0839445  50.2928909 100.7905183 102.6458875  49.5764768 100.3310821
 103.8249886  50.5205024 100.2290275  99.8740611  44.9825845 107.3117279
  99.0608477  45.2820016 107.7182471 100.3699605  44.5881534 108.0291761
 102.0249189  54.9783602 109.2451544 101.9825368  55.2044449 108.3160076
 102.9411888  54.7446977 109.3937345 105.4714823  45.4467670 116.1432173
 105.8264211  45.6739143 117.0026639 106.1186954  45.7786047 115.5209428
 111.2012560  48.5686106 106.8481502 111.0630458  48.7587702 105.9202691
 110.8448779  49.3305489 107.3049553  99.3654686  42.5544201 112.9278514
 100.0054065  42.4132960 112.2301477  98.5332216  42.2678714 112.5517116
 111.2281939  50.6362633 111.8592773 111.6618446  50.5437922 112.7075827
 111.9413520  50.6120133 111.2212789 100.1414990  51.8546631 109.0413506
 100.9355588  51.3596951 108.8396081  99.4306682  51.3264494 108.6781212
 104.9609834  54.2364727 113.3925874 105.0146857  54.8055663 114.1603590
 104.0924616  54.4066612 113.0279911  96.4497753  45.9989713 105.1173259
  95.5195341  45.9374169 105.3343221  96.5455225  45.4765666 104.3209900
  96.3683302  42.5244526 107.7051501  96.6290120  43.4389859 107.5960661
  97.1900475  42.0568968 107.8548114  97.8408228  43.9382283 114.8750325
  98.5131281  43.7299645 114.2262974  97.0138014  43.7404369 114.4355558
 112.0897489  50.6786333 114.3925659 112.2833379  51.5832144 114.6384934
 111.9898107  50.2193752 115.2264244 103.7433800  40.5644224 116.8915986
 103.0961715  41.2634174 116.7980462 104.5134815  40.9980368 117.2592234
 107.1512598  50.8293076 119.9666539 106.9998104  50.6003628 119.0496623
 107.1417277  51.7863678 119.9797884 103.9197934  48.4024989 114.9512806
 104.8489994  48.5536149 114.7781773 103.4988964  48.4909010 114.0961452
 102.7186266  52.4275653 112.7211343 102.5797351  52.0594438 113.5937282
 101.9300862  52.9423293 112.5495301 103.3134418  57.5284750 104.0636880
 103.4886173  57.0572793 104.8782503 102.6267206  58.1550516 104.2918141
 104.2691481  51.8057256 110.1100181 103.9341314  51.7658026 111.0057831
 103.7695427  51.1401972 109.6370591  98.2435725  47.2124886 115.6352762
  98.1055523  46.4805125 116.2364301  99.1540648  47.1233786 115.3536950
 107.2050673  49.1513290 100.3837241 106.5879843  48.4260119 100.2870294
 106.7367161  49.9122651 100.0404315 100.8718026  46.9244845 115.1236442
 101.5817644  46.2838038 115.0823060 100.8287334  47.1757740 116.0462623
 108.8604804  53.8612199 118.0443021 108.8017350  53.1771419 117.3773604
 109.2624323  54.6031189 117.5923647  99.5846960  43.9110063 116.9432081
  99.0484317  43.4600802 117.5953678  98.9963668  44.0455972 116.2002546
  97.8795503  60.6774113 110.8376740  98.1192101  61.3092637 111.5155759
  97.0364700  60.3262153 111.1242099  98.9949219  43.3698715  99.5058545
  98.1178685  43.2487515  99.1420792  99.4706972  42.5784793  99.2537434
 108.8622212  51.8251783 116.2757001 107.9748990  51.4877704 116.3983400
 109.4320763  51.0934814 116.5125766  90.5151359  48.1575874 109.6000052
  91.2022398  47.8437604 109.0121068  90.3599487  49.0617239 109.3267304
  95.3186081  43.0466071 114.0285076  95.2344270  42.4391741 113.2935486
  94.4968787  43.5375089 114.0294572 102.3923365  56.4853235 113.2418244
 102.3193536  57.2908206 113.7537549 101.9500758  56.6845201 112.4166266
 102.1813145  55.7225005 106.7521066 101.3980666  56.2646685 106.8459290
 102.8805890  56.2398985 107.1515307 105.4909795  41.5319634 109.3955271
 105.9878494  40.7789597 109.0756341 104.7196776  41.5683951 108.8298480
 113.3439552  47.2360000 111.0373563 113.3329428  48.1184715 110.6667496
 112.4756931  46.8831551 110.8428100 104.8522048  56.3840069 115.3976403
 105.5650021  57.0187534 115.3252304 104.3612077  56.4803935 114.5816405
 106.5739575  50.2891322 106.9693694 105.6395854  50.4092784 106.7998399
 106.7516244  49.3863788 106.7053704 102.0744763  43.6737017 109.1226956
 101.7042551  43.1208058 109.8107861 102.5703856  43.0695151 108.5701956
 109.9612127  46.1308641 107.5043729 110.4272579  46.9636633 107.4304031
 110.4119627  45.6653623 108.2088987  99.9033962  54.1334512 116.2181974
 100.6043421  54.7670995 116.3711368  99.4329077  54.4749244 115.4577613
 108.0288358  52.4752462 104.5029881 108.3048202  52.3609057 105.4123755
 107.1592857  52.0769947 104.4642054 107.9328789  38.4989228 111.5434630
 107.0191869  38.7293455 111.7116837 108.3621891  38.5827672 112.3948662
 107.7035248  46.6879120 114.0434524 107.0506698  46.9355027 113.3886977
 108.0815628  45.8743258 113.7097001 104.6642422  56.7238813 108.1462694
 104.8464816  55.9060469 108.6090447 105.4875408  56.9406505 107.7087584
 104.9984587  55.6506998 105.4077743 105.5272354  55.1399453 104.7947905
 105.2612807  55.3349528 106.2723276 103.7522821  47.4298931 120.5300561
 103.0763458  47.3293060 121.2002936 104.5750455  47.2738145 120.9936558
  95.5001680  53.6670868 113.1513076  96.0855117  52.9214555 113.2840980
  95.3026518  53.9774824 114.0349740  98.3540335  56.7022115 108.1675519
  97.6850711  57.1868243 107.6839559  98.2153205  56.9491335 109.0818897
  90.0919335  46.2376468 111.8717519  90.1303434  45.7040058 112.6654638
  89.5859628  45.7111673 111.2528497 102.4945604  58.7365858 114.7658177
 103.0463912  58.8997480 115.5307262 102.8351797  59.3270296 114.0938202
  97.4710097  41.0841008 115.3680062  97.5351424  41.9455839 114.9557459
  97.4077217  40.4715010 114.6352420  96.9462370  43.1564141 119.0153096
  97.5734408  42.7741218 119.6290620  96.0890288  42.9378343 119.3808788
 107.3456478  53.5627116 120.6206831 107.8896382  54.1757074 120.1261786
 106.7643323  54.1206694 121.1373844  93.7227912  44.9640570 104.9471451
  94.0181353  44.0551248 104.8938505  92.8215948  44.9428309 104.6252453
 105.6313991  56.6847834 111.7521859 105.5065131  55.8837574 111.2432805
 106.2893082  57.1794027 111.2635829  97.2522159  43.0396566 110.9298999
  96.5308745  43.6532534 110.7906473  98.0415415  43.5754331 110.8515645
 107.6948900  54.4856854 113.3801409 106.7479235  54.3662205 113.3079736
 108.0431673  53.5979352 113.4627671 100.0548473  40.3750993 117.2039651
 100.5782875  40.6213290 117.9665960  99.8360806  41.2071028 116.7842789
  95.4515754  42.6454668 105.0710776  95.1228460  41.7652046 104.8885882
  95.8055125  42.5902336 105.9587165 104.6995333  54.2809570 109.5805761
 104.5520295  53.3526278 109.7613332 105.5248826  54.3029661 109.0962837
  98.5657577  42.9327637 105.4386254  98.9053650  43.4613559 104.7164862
  99.0129698  43.2708043 106.2144820 108.3029455  55.1038129 110.6670634
 109.2276002  54.8980990 110.5295085 108.1344758  54.8554530 111.5759976
 101.2601018  41.3164688 114.8889322 100.9197838  40.5172501 115.2910002
 100.5540024  41.6166399 114.3166155 101.9117490  38.4014000 113.3416645
 102.7343559  37.9274479 113.2195535 102.1555553  39.1804484 113.8415331
 100.5525724  41.4302259 103.6379546 101.2734087  41.8083512 103.1343263
  99.9291028  42.1491136 103.7414524 104.6956847  42.1347408 104.5737879
 104.9120462  43.0172046 104.2726707 104.2150914  41.7433621 103.8443521
  99.4356069  45.0933121 111.1508623  99.2900649  45.4073424 112.0432905
  98.9581272  45.7118021 110.5979522 101.2952451  42.0835669 111.1989513
 101.2814020  41.1876762 110.8621811 102.0124879  42.0906333 111.8327799
 103.1478582  42.5173009 113.2442640 102.8896360  43.4390080 113.2426971
 102.6163622  42.1203444 113.9343104 108.0924771  55.6223796 106.0232726
 108.2661648  55.0570219 105.2706578 108.5853662  56.4224691 105.8412216
  93.9101731  47.6338466 114.0896285  93.3655199  48.4098274 114.2216559
  94.7881081  47.9809270 113.9315406 100.6989347  40.9650049 106.4677083
 100.8205259  40.0366696 106.6667971 100.4091390  40.9788735 105.5555398
 103.5680538  38.6504960 109.6043803 103.5902235  38.7144293 108.6495782
 103.9848597  37.8109468 109.7984309 113.9464162  48.3860219 107.6423025
 114.3895308  47.6367545 107.2442149 113.0690672  48.3770356 107.2596757
 109.0799943  54.9390561 103.1229624 109.7750848  55.5597254 103.3416939
 109.4223093  54.0885912 103.3982002  94.6967753  46.7608362 116.9826441
  93.9549489  46.9090997 117.5691072  94.3760497  47.0216627 116.1193191
 110.9791366  52.3890266 104.6516955 111.5042691  52.7277539 103.9266275
 110.8913719  51.4537282 104.4680089 102.6411415  56.3024340 116.7806831
 102.9498542  56.0573487 117.6529531 103.4386897  56.5070979 116.2925702
 102.6632027  58.4562250 109.0112208 102.2237018  57.9638628 109.7045065
 103.4140144  57.9135217 108.7704283  95.1424366  54.6473791 109.0136836
  95.9682386  54.3477562 108.6335480  94.7918418  53.8781413 109.4626625
 100.1105899  54.0000259 111.0834510  99.4885909  53.3370964 110.7836737
 100.7810766  54.0261391 110.4008157  93.3432971  52.5660117 109.9725770
  92.5064880  52.1382291 109.7909771  93.3156617  52.7592560 110.9096561
 100.1830427  42.4782047 120.6767016 100.2318582  43.3544170 120.2944785
 100.7252941  41.9359440 120.1038659 110.6685273  53.0223170 119.9568153
 109.8780816  53.0047309 119.4172652 110.4318627  53.5611464 120.7117189
 110.7883148  49.8715636 117.2700881 110.8381153  49.7065644 118.2116404
 110.6797071  49.0042895 116.8798762  99.6719406  52.5504182 104.5592970
  99.8207527  53.2339646 103.9059643 100.4785850  52.5309272 105.0742426
 108.0786910  45.8546564 118.5860188 108.9796773  45.7153029 118.2944186
 108.1534884  46.0201019 119.5258365 102.4129715  43.2313419 117.4313374
 101.5433025  43.5246985 117.1595963 102.6489196  43.8153864 118.1520638
 112.2901344  52.2912578 117.5142903 111.9986153  52.6542558 118.3506364
 111.6773476  51.5779586 117.3356235 113.4897027  49.8565458 110.0345473
 114.3243918  50.2955262 110.1983033 113.6256156  49.3804111 109.2153719
 110.5388533  47.4145193 115.9822961 111.0142654  47.6072839 115.1741812
 109.6154098  47.4704378 115.7366344  97.4272039  48.5769360 105.5654039
  97.1818081  47.6731690 105.7634249  97.5967954  48.5786510 104.6233517
 105.1168749  39.4493036 114.9478795 105.6350693  40.1854063 114.6225283
 104.7623882  39.7557029 115.7825554  96.6967687  44.3097717 103.0640201
  96.0036932  44.3842072 102.4080236  96.4519439  43.5458061 103.5861717
 105.3681343  35.8693319 110.4679691 105.6483097  35.2016508 111.0940118
 106.1531950  36.0622414 109.9554355 103.1714812  55.0452313 102.0304718
 102.5988779  55.6642500 101.5775189 103.7447605  55.5951674 102.5644640
 109.2390202  44.2910953 114.2151266 110.1907625  44.3909050 114.2363490
 109.0693652  43.4989221 114.7249351 107.2604581  41.3766536 114.4010667
 106.6654513  41.6571549 113.7057156 106.9754278  41.8660437 115.1727408
 106.3912072  55.3289463 103.1613300 107.3242745  55.2635024 103.3646175
 106.3035284  56.1645730 102.7027833 109.0200088  54.6455333 100.1217247
 108.9413720  54.3115197 101.0153005 109.8409755  55.1377101 100.1208720
 111.7178279  47.5117072 113.3293566 111.6854600  46.5733073 113.5153250
 112.3278903  47.5901109 112.5959391 103.5561610  46.3813125  99.3720770
 104.5020715  46.2519333  99.4409188 103.1775855  45.6427787  99.8490198
 111.8672768  44.3028116 113.3751849 111.3511817  43.5186572 113.1881778
 112.7512716  43.9746832 113.5398369 109.5283495  38.0469131 109.3347662
 109.3308316  37.7384220 110.2190994 110.1383200  38.7730770 109.4645592
 117.5354829  48.5733079 112.4699603 118.2658218  48.3118367 113.0307306
 116.9261775  47.8361801 112.5101671 115.6170126  46.7140942 113.0674054
 114.8903290  46.5796907 112.4590546 115.2017413  47.0217770 113.8730772
 103.4400303  50.4330871 120.8321427 104.3603312  50.6109470 121.0261474
 103.4049886  49.4886917 120.6801126 101.7404527  44.3063102  99.3075655
 100.8335983  44.0096214  99.3838369 102.0180508  44.0092920  98.4409942
  92.6582468  45.6269465 109.7574702  92.3385252  44.7734773 109.4649076
  92.1115896  45.8418043 110.5132669  96.4362375  48.3431906 113.4744208
  96.6548385  49.2749014 113.4932242  96.8488149  47.9839880 114.2599012
 103.3566593  38.8499991 105.4619897 102.5467321  38.5047076 105.8375143
 104.0451010  38.5407535 106.0507508 105.2857141  37.9278038 107.0844193
 105.8388180  38.3473492 107.7434216 105.5227228  37.0013786 107.1267149
 101.3090241  43.9165112 122.8646957 101.2086968  44.8659469 122.7959048
 101.0911783  43.5883351 121.9923027 100.5103312  41.1650037  99.4487634
 101.3722476  41.4904935  99.7083452 100.6953656  40.3781533  98.9360700
  92.5270728  49.2472377 111.7267823  91.8334199  48.8326329 111.2137778
  93.2743719  49.2892913 111.1301242 108.6635949  40.0378563 106.5922857
 108.0834618  40.6963367 106.2100910 108.3971881  39.2155908 106.1810275
 107.1139515  39.4383621 108.7944178 107.6139293  39.5500156 107.9858497
 107.7575123  39.1344674 109.4344986 101.1721511  47.3462251 121.6812019
 100.6888592  48.1462611 121.8875908 101.2582450  47.3570196 120.7279463
  94.4407470  49.1790630 109.6033838  94.4178158  49.2778318 108.6515721
  94.7508107  50.0255781 109.9251004  97.0994848  51.2366785 113.7180453
  98.0538102  51.2050728 113.6510384  96.9007372  50.7757409 114.5330678
  97.6894230  49.8067901 116.2851250  98.5087119  50.3011980 116.3086088
  97.9631038  48.8899870 116.2568818 107.4460827  42.1978654 105.6479206
 106.5586682  42.4828304 105.4299401 107.8614816  42.0372417 104.8006483
 110.7975363  42.2225175 109.3633545 111.5735753  42.7121627 109.6358162
 110.0723497  42.6483229 109.8205414 113.2347921  42.9352794 110.4207486
 113.8292412  42.6948530 109.7100794 113.3074505  42.2159925 111.0481022
  95.4545077  56.7786405 110.7350650  95.3199545  56.0186806 110.1688648
  95.0377139  57.5027305 110.2679439 106.5904040  51.9623328  99.7427226
 107.2939890  52.1673331 100.3584881 105.8666689  52.5300090 100.0076309
 107.4201850  47.7133190 105.8629496 107.3637052  48.1701741 105.0237128
 107.9730193  46.9523874 105.6852339 111.2306656  43.5022922 106.6879615
 110.9743590  43.1019557 107.5187823 110.6059524  44.2166715 106.5629755
 115.5418994  46.2418995 109.1950907 114.9818552  46.3112184 109.9682469
 114.9362497  46.0659979 108.4750403  98.6114203  57.6755722 110.9469093
  98.4946587  58.6201154 110.8447783  97.7906649  57.3729283 111.3354892
 108.4990737  52.4005858 101.7925686 109.3336341  51.9687056 101.6103161
 108.3375080  52.2287871 102.7202580 108.1536630  48.9037971 103.1582025
 108.0985433  48.7382242 102.2170469 107.5282685  49.6114004 103.3144215
  92.9429145  44.1406035 116.9843447  93.5888008  43.6304989 117.4730672
  92.7346296  44.8774717 117.5586873 105.4682537  51.2086883 122.4835588
 106.3373696  51.3827535 122.1222223 104.9889288  52.0281300 122.3611317
 101.4632755  38.4046080 102.7367343 101.4511425  39.3487920 102.8935614
 102.3556177  38.2216225 102.4426805  99.6368717  58.3283984 114.1625022
 100.5395964  58.3607594 114.4791516  99.4106087  57.3984435 114.1771357
 101.3922319  57.0814970 110.8235100 100.4417950  57.0816832 110.7099472
 101.6954805  56.3347705 110.3071135 105.2784875  34.9988857 106.9913280
 104.5117270  34.4447343 107.1369963 105.6895580  35.0710725 107.8527432
  97.2826636  41.2873652 121.0818462  98.1458097  40.9310457 121.2921786
  96.7092046  40.9487547 121.7693866 117.1275013  62.9175509 111.8880863
 117.7653422  62.7982256 111.1844203 117.0095855  63.8656353 111.9468815
 113.9364719  62.8702937 111.8242387 113.5983230  62.7544002 110.9362922
 114.8054487  62.4694102 111.8043393 109.7951535  64.7238413 107.8139278
 109.2316400  64.6328350 107.0455566 109.6803930  63.9038318 108.2941771
 114.4184502  64.0237789 117.7828593 114.4073143  63.6290587 116.9109096
 114.5805141  63.2903861 118.3762364 107.3415966  66.2189605 110.6523499
 108.1337258  65.8780429 110.2369798 107.5812617  66.3284580 111.5725652
 115.3751093  68.3909381 103.1253743 114.7239073  68.9763461 102.7387757
 116.1695456  68.9215576 103.1848781 109.3006720  65.4798518 103.5240877
 110.0737596  64.9327505 103.3853753 109.6532119  66.3442767 103.7355339
 111.1391763  66.8074900 116.7307777 110.8481629  67.7120531 116.6154443
 111.7748747  66.8491428 117.4451846 112.0647970  64.1851749 113.3209136
 112.6611542  63.9607771 112.6066099 112.1222941  63.4436494 113.9234584
 111.6372998  61.6391184 101.1559327 111.8898519  61.1172705 100.3942790
 110.6997557  61.4757330 101.2586011 116.6816281  60.6426963 108.9634071
 117.4679370  60.2246386 108.6124488 116.9454985  61.5473055 109.1315719
 116.8526358  66.0799813 103.6622727 116.2172191  66.1534439 104.3743632
 116.5223765  66.6693412 102.9841807 122.0824708  60.5802196 109.8667049
 122.8149880  60.0101413 110.1004879 121.3264064  60.1923796 110.3073555
 111.3569287  63.5419290 103.3583702 111.2405545  62.8664194 104.0264787
 111.4671547  63.0551664 102.5415855 113.7000828  63.0029437 107.0630392
 113.3359035  62.4760058 107.7743313 114.5567944  62.6127906 106.8896877
 119.6050128  54.2923770 114.3261658 119.2733453  55.1619181 114.1022873
 119.0095742  53.9760054 115.0055688 113.3406315  58.0319337 102.0591740
 113.5080717  58.8999573 102.4262211 113.1503484  58.1946619 101.1353029
 116.0981648  66.4936316 113.7257570 115.7982371  67.3961355 113.6173378
 115.7532708  66.2268499 114.5778723 109.5494129  62.9450113 109.7594275
 108.6244626  62.8126327 109.9671967 109.7978543  63.7244332 110.2564217
 119.4978792  59.0118856 111.4055008 118.5895669  58.9434264 111.1113769
 119.4466388  59.4890801 112.2336833 113.3195536  60.4876994 103.0438407
 113.1995161  60.9334045 103.8823887 112.6248124  60.8362312 102.4851945
 106.9102941  62.5883386 110.5938064 107.0395322  62.8417865 111.5077476
 106.2300392  63.1811094 110.2742719 111.0802428  73.2580636 106.6928538
 111.0026458  74.2088461 106.7717019 110.4764071  72.9126509 107.3503464
 113.5719658  60.4308502 119.3489905 112.7952992  60.9902422 119.3392770
 114.2110221  60.9165285 119.8704775 121.3640438  57.2135294 113.1832882
 120.7214818  57.5067828 112.5372676 120.8595367  57.0988215 113.9886078
 119.0180602  60.9598468 103.8718741 119.9298458  61.1925854 103.6966438
 118.5090249  61.5435512 103.3093820 111.8266030  63.2393955 118.9107872
 112.5680714  63.7778999 118.6342696 111.1203015  63.8660244 119.0679424
 117.3021370  65.3823095 117.5080034 117.7104726  64.9405506 116.7634666
 116.5798631  64.8075723 117.7614226 113.6552440  60.3195702 114.8813590
 114.5013635  60.7435116 115.0248239 113.5951077  59.6629327 115.5752154
 117.6250184  65.9424286 111.2632322 116.9959047  66.1070000 110.5608390
 117.2375846  66.3565896 112.0343286 121.5039416  66.8778724 108.6176686
 120.8190454  67.2577625 108.0673719 121.5883265  67.4874051 109.3508634
 116.8051885  57.9800071 116.5394764 116.5612817  58.7342131 116.0029040
 117.0811815  58.3585418 117.3742011 118.7590348  64.5238683 115.2172030
 118.9707243  65.1670443 114.5406411 118.7120096  63.6901000 114.7493960
 116.3616577  57.1356504 112.1208602 115.5001056  57.4337757 112.4125339
 116.3879011  57.3526903 111.1889634 113.1778146  65.6798694 108.5282407
 113.6416492  65.9586397 107.7387030 112.9134944  64.7782139 108.3455498
 110.0702227  65.2270176 111.4662171 110.6403584  65.6557444 110.8279655
 110.6610339  64.9452760 112.1646356 112.1147032  61.8021847 105.3371973
 112.8171075  62.2542890 105.8045899 111.7827661  61.1605665 105.9651866
 110.5627394  60.3933603 119.7123182 109.9326054  61.0749884 119.9458579
 110.4563482  60.2816685 118.7676320 105.8572366  60.0605399 110.6389106
 105.0671420  60.3162928 110.1629217 106.3483613  60.8753737 110.7441147
 119.8736176  67.4010638 113.3894387 120.6953619  66.9990826 113.1077069
 119.8698579  67.2978873 114.3410503 107.8087111  60.4249978 107.5972583
 107.0118275  60.5368673 108.1156079 107.5812704  60.7636631 106.7313473
 113.6392779  66.9494682 115.5455098 113.7037212  67.4115089 116.3813269
 112.9303703  66.3192047 115.6737407 104.1410069  60.3135890 113.0704097
 104.3918107  61.1982900 113.3361673 104.6769617  60.1340491 112.2979189
 127.9642169  63.7449387 109.7379358 127.2105877  63.1756785 109.5823363
 128.0989710  63.7112051 110.6849993 113.3540797  68.6162789 105.4134078
 113.2186472  69.4614325 105.8418926 113.8950609  68.8182067 104.6500012
 109.8408136  54.6954369 122.0748433 109.4475082  54.1420568 122.7496077
 110.6574277  55.0064948 122.4654951 106.8070194  66.1338227 105.9862003
 107.3194715  66.9281477 106.1367568 107.4592907  65.4364518 105.9195604
 108.6165079  69.2503984 108.0684756 108.7931707  70.1721948 107.8805740
 109.4121912  68.9362403 108.4979136 112.7576097  56.1112248 119.6668690
 113.4985811  56.7119401 119.5873152 112.9894020  55.3689886 119.1086732
 107.9017435  61.2968615 117.9446919 107.7870951  60.3953873 118.2454018
 107.0461953  61.5432312 117.5931736 114.9809273  69.2386356 119.5434420
 114.5373127  68.4522734 119.2255324 115.6426487  69.4265506 118.8778311
 109.7396394  70.7682157 114.0695098 110.2903819  70.6399221 113.2972092
 108.9007870  71.0677046 113.7189991 117.0790511  69.5189156 117.5715821
 117.0608987  70.3398037 117.0796090 118.0010431  69.3943231 117.7965962
 113.5363565  67.0333285 118.4139330 114.0691902  66.2721573 118.1838638
 113.0077646  66.7406937 119.1563484 116.7033260  52.1393351 113.9432971
 116.3597530  53.0294993 113.8672082 117.0712223  51.9495009 113.0802556
 104.7719111  64.4626882 106.7621573 105.6094333  64.8723890 106.5455281
 104.9497379  63.5226324 106.7321767 116.6683543  62.1301962 102.4505406
 116.1530166  62.9006567 102.6893794 116.3960851  61.4567098 103.0738468
 114.2530654  56.9751663 107.5090645 113.3972250  56.5858513 107.3296284
 114.6657606  57.0543624 106.6490430 115.7829801  54.5098006 111.9082205
 115.2794596  54.4728141 111.0950010 116.0760408  55.4190749 111.9678861
 112.0272687  54.5936736 110.9148386 112.8925683  54.3979545 110.5554276
 112.0950195  54.3647088 111.8417743 121.6417817  64.8834317 104.3858580
 120.8647260  64.5445476 103.9413742 122.3209298  64.8886940 103.7113545
 116.4569846  60.0029054 104.2765188 116.1519982  60.3175203 105.1275331
 117.4100288  60.0810474 104.3192521 114.9016278  66.1619278 105.9258142
 114.3737640  65.4272037 105.6131379 114.4003781  66.9393954 105.6798110
 119.8809124  64.3568298 111.0425188 119.2232799  65.0467559 111.1305317
 120.6849523  64.7464730 111.3859174 109.6335006  56.8238944 108.2864753
 110.2078758  56.6014125 107.5537946 110.2205988  56.8927638 109.0393354
 118.6914583  62.7112671 109.0929130 119.2046465  63.3442663 109.5950839
 119.3415807  62.1113866 108.7272490 109.9604593  58.8543405 102.3060638
 109.1241905  59.1918091 102.6269913 109.8209362  58.7192385 101.3687775
 111.9357673  53.6980193 107.0139823 111.2822086  53.3829210 106.3896437
 111.8938148  53.0755933 107.7399645 113.0468878  63.9799488  98.9293115
 112.1395940  63.7488741  99.1284264 113.5439910  63.1837107  99.1167096
 115.9536957  72.6896995 101.8489801 115.2798656  72.9928692 102.4574759
 116.3402779  73.4926075 101.4995258 115.1695414  60.1862126 111.3387470
 114.2517975  60.4077073 111.1809158 115.5855557  60.2608437 110.4799178
 115.9530461  61.5853542 106.4690150 116.7002280  62.0974939 106.1597272
 116.2222051  61.2637595 107.3294544 114.2257112  64.0812083 103.4517105
 113.3168331  63.7971116 103.5489574 114.2552195  64.5011161 102.5920412
 119.4576379  67.6918672 107.2208272 119.0038706  66.8509582 107.2773463
 118.8270346  68.3280071 107.5583052 118.4009299  58.6210658 108.4508940
 117.6632055  58.1088044 108.7819182 118.6536072  58.1811040 107.6392217
 117.9009318  69.5295169 108.1558090 118.1932293  70.0900226 107.4370456
 118.4107939  69.8223730 108.9111250 118.5020926  51.3986910 109.0450709
 118.8079803  50.5384274 108.7576624 119.2273531  51.9904530 108.8449703
 104.7945282  61.8017597 107.4332307 104.5969682  61.2086958 106.7083373
 104.2391946  61.4969807 108.1508246 112.7742006  61.6940703 109.5526900
 112.8290615  60.7414540 109.4769377 111.9633208  61.8500142 110.0368198
 113.9233199  65.6220826 100.7905183 113.4852629  64.9056685 100.3310821
 114.6643640  65.8496941 100.2290275 110.7134366  60.3117763 107.3117279
 109.9002231  60.6111934 107.7182471 111.2093360  59.9173452 108.0291761
 112.8642944  70.3075520 109.2451544 112.8219122  70.5336366 108.3160076
 113.7805642  70.0738895 109.3937345 116.3108577  60.7759588 116.1432173
 116.6657965  61.0031061 117.0026639 116.9580709  61.1077964 115.5209428
 122.0406314  63.8978023 106.8481502 121.9024213  64.0879619 105.9202691
 121.6842533  64.6597406 107.3049553 110.2048440  57.8836119 112.9278514
 110.8447820  57.7424878 112.2301477 109.3725971  57.5970632 112.5517116
 122.0675694  65.9654550 111.8592773 122.5012201  65.8729840 112.7075827
 122.7807275  65.9412051 111.2212789 110.9808744  67.1838549 109.0413506
 111.7749343  66.6888869 108.8396081 110.2700437  66.6556412 108.6781212
 115.8003589  69.5656645 113.3925874 115.8540611  70.1347581 114.1603590
 114.9318370  69.7358530 113.0279911 107.2891508  61.3281631 105.1173259
 106.3589096  61.2666086 105.3343221 107.3848980  60.8057584 104.3209900
 107.2077057  57.8536444 107.7051501 107.4683874  58.7681777 107.5960661
 108.0294229  57.3860886 107.8548114 108.6801982  59.2674201 114.8750325
 109.3525036  59.0591563 114.2262974 107.8531769  59.0696287 114.4355558
 122.9291243  66.0078251 114.3925659 123.1227134  66.9124062 114.6384934
 122.8291862  65.5485670 115.2264244 114.5827554  55.8936142 116.8915986
 113.9355469  56.5926091 116.7980462 115.3528570  56.3272286 117.2592234
 117.9906352  66.1584994 119.9666539 117.8391859  65.9295546 119.0496623
 117.9811032  67.1155595 119.9797884 114.7591689  63.7316907 114.9512806
 115.6883749  63.8828066 114.7781773 114.3382719  63.8200927 114.0961452
 113.5580020  67.7567571 112.7211343 113.4191106  67.3886355 113.5937282
 112.7694617  68.2715210 112.5495301 114.1528172  72.8576667 104.0636880
 114.3279928  72.3864711 104.8782503 113.4660960  73.4842434 104.2918141
 115.1085235  67.1349174 110.1100181 114.7735068  67.0949944 111.0057831
 114.6089181  66.4693890 109.6370591 109.0829479  62.5416804 115.6352762
 108.9449277  61.8097043 116.2364301 109.9934403  62.4525704 115.3536950
 118.0444427  64.4805208 100.3837241 117.4273598  63.7552036 100.2870294
 117.5760916  65.2414568 100.0404315 111.7111780  62.2536763 115.1236442
 112.4211399  61.6129955 115.0823060 111.6681088  62.5049658 116.0462623
 119.6998559  69.1904116 118.0443021 119.6411105  68.5063337 117.3773604
 120.1018077  69.9323106 117.5923647 110.4240714  59.2401981 116.9432081
 109.8878071  58.7892719 117.5953678 109.8357422  59.3747890 116.2002546
 108.7189258  76.0066030 110.8376740 108.9585856  76.6384554 111.5155759
 107.8758454  75.6554070 111.1242099 109.8342973  58.6990632  99.5058545
 108.9572439  58.5779433  99.1420792 110.3100726  57.9076711  99.2537434
 119.7015966  67.1543700 116.2757001 118.8142745  66.8169622 116.3983400
 120.2714517  66.4226732 116.5125766 101.3545113  63.4867792 109.6000052
 102.0416153  63.1729522 109.0121068 101.1993242  64.3909157 109.3267304
 106.1579835  58.3757989 114.0285076 106.0738024  57.7683658 113.2935486
 105.3362542  58.8667007 114.0294572 113.2317119  71.8145153 113.2418244
 113.1587291  72.6200124 113.7537549 112.7894513  72.0137118 112.4166266
 113.0206899  71.0516923 106.7521066 112.2374421  71.5938603 106.8459290
 113.7199644  71.5690902 107.1515307 116.3303549  56.8611552 109.3955271
 116.8272249  56.1081514 109.0756341 115.5590531  56.8975869 108.8298480
 124.1833307  62.5651918 111.0373563 124.1723183  63.4476633 110.6667496
 123.3150686  62.2123469 110.8428100 115.6915803  71.7131987 115.3976403
 116.4043775  72.3479452 115.3252304 115.2005832  71.8095853 114.5816405
 117.4133330  65.6183239 106.9693694 116.4789609  65.7384702 106.7998399
 117.5909998  64.7155706 106.7053704 112.9138518  59.0028935 109.1226956
 112.5436305  58.4499976 109.8107861 113.4097610  58.3987069 108.5701956
 120.8005881  61.4600559 107.5043729 121.2666333  62.2928550 107.4304031
 121.2513382  60.9945540 108.2088987 110.7427716  69.4626430 116.2181974
 111.4437176  70.0962913 116.3711368 110.2722831  69.8041162 115.4577613
 118.8682112  67.8044380 104.5029881 119.1441956  67.6900975 105.4123755
 117.9986611  67.4061865 104.4642054 118.7722544  53.8281146 111.5434630
 117.8585624  54.0585372 111.7116837 119.2015645  53.9119590 112.3948662
 118.5429002  62.0171038 114.0434524 117.8900453  62.2646945 113.3886977
 118.9209382  61.2035176 113.7097001 115.5036176  72.0530731 108.1462694
 115.6858571  71.2352387 108.6090447 116.3269162  72.2698423 107.7087584
 115.8378342  70.9798916 105.4077743 116.3666108  70.4691371 104.7947905
 116.1006561  70.6641446 106.2723276 114.5916575  62.7590849 120.5300561
 113.9157212  62.6584978 121.2002936 115.4144209  62.6030062 120.9936558
 106.3395435  68.9962785 113.1513076 106.9248871  68.2506473 113.2840980
 106.1420273  69.3066742 114.0349740 109.1934090  72.0314033 108.1675519
 108.5244465  72.5160160 107.6839559 109.0546959  72.2783253 109.0818897
 100.9313089  61.5668385 111.8717519 100.9697189  61.0331976 112.6654638
 100.4253382  61.0403591 111.2528497 113.3339358  74.0657776 114.7658177
 113.8857666  74.2289398 115.5307262 113.6745552  74.6562214 114.0938202
 108.3103852  56.4132926 115.3680062 108.3745178  57.2747757 114.9557459
 108.2470972  55.8006928 114.6352420 107.7856124  58.4856058 119.0153096
 108.4128163  58.1033136 119.6290620 106.9284043  58.2670260 119.3808788
 118.1850233  68.8919034 120.6206831 118.7290137  69.5048992 120.1261786
 117.6037078  69.4498612 121.1373844 104.5621667  60.2932488 104.9471451
 104.8575108  59.3843166 104.8938505 103.6609703  60.2720227 104.6252453
 116.4707746  72.0139752 111.7521859 116.3458885  71.2129491 111.2432805
 117.1286837  72.5085945 111.2635829 108.0915914  58.3688484 110.9298999
 107.3702500  58.9824452 110.7906473 108.8809170  58.9046249 110.8515645
 118.5342654  69.8148772 113.3801409 117.5872990  69.6954123 113.3079736
 118.8825427  68.9271270 113.4627671 110.8942227  55.7042911 117.2039651
 111.4176629  55.9505207 117.9665960 110.6754561  56.5362945 116.7842789
 106.2909508  57.9746585 105.0710776 105.9622215  57.0943964 104.8885882
 106.6448879  57.9194254 105.9587165 115.5389087  69.6101488 109.5805761
 115.3914050  68.6818195 109.7613332 116.3642581  69.6321579 109.0962837
 109.4051332  58.2619555 105.4386254 109.7447404  58.7905476 104.7164862
 109.8523452  58.5999961 106.2144820 119.1423209  70.4330047 110.6670634
 120.0669757  70.2272908 110.5295085 118.9738513  70.1846448 111.5759976
 112.0994772  56.6456606 114.8889322 111.7591593  55.8464419 115.2910002
 111.3933779  56.9458317 114.3166155 112.7511244  53.7305918 113.3416645
 113.5737314  53.2566396 113.2195535 112.9949308  54.5096402 113.8415331
 111.3919479  56.7594177 103.6379546 112.1127841  57.1375429 103.1343263
 110.7684783  57.4783053 103.7414524 115.5350602  57.4639326 104.5737879
 115.7514216  58.3463963 104.2726707 115.0544669  57.0725539 103.8443521
 110.2749823  60.4225039 111.1508623 110.1294404  60.7365342 112.0432905
 109.7975027  61.0409939 110.5979522 112.1346206  57.4127587 111.1989513
 112.1207775  56.5168680 110.8621811 112.8518634  57.4198251 111.8327799
 113.9872337  57.8464927 113.2442640 113.7290114  58.7681998 113.2426971
 113.4557377  57.4495362 113.9343104 118.9318525  70.9515714 106.0232726
 119.1055403  70.3862137 105.2706578 119.4247417  71.7516609 105.8412216
 104.7495485  62.9630383 114.0896285 104.2048953  63.7390191 114.2216559
 105.6274835  63.3101188 113.9315406 111.5383102  56.2941967 106.4677083
 111.6599013  55.3658613 106.6667971 111.2485144  56.3080653 105.5555398
 114.4074292  53.9796878 109.6043803 114.4295989  54.0436211 108.6495782
 114.8242351  53.1401386 109.7984309 124.7857917  63.7152137 107.6423025
 125.2289063  62.9659462 107.2442149 123.9084427  63.7062273 107.2596757
 119.9193698  70.2682479 103.1229624 120.6144602  70.8889171 103.3416939
 120.2616848  69.4177830 103.3982002 105.5361507  62.0900279 116.9826441
 104.7943243  62.2382915 117.5691072 105.2154251  62.3508545 116.1193191
 121.8185121  67.7182184 104.6516955 122.3436445  68.0569457 103.9266275
 121.7307474  66.7829199 104.4680089 113.4805170  71.6316258 116.7806831
 113.7892296  71.3865404 117.6529531 114.2780652  71.8362896 116.2925702
 113.5025782  73.7854167 109.0112208 113.0630772  73.2930546 109.7045065
 114.2533899  73.2427135 108.7704283 105.9818121  69.9765708 109.0136836
 106.8076141  69.6769480 108.6335480 105.6312173  69.2073331 109.4626625
 110.9499654  69.3292176 111.0834510 110.3279663  68.6662881 110.7836737
 111.6204521  69.3553308 110.4008157 104.1826726  67.8952035 109.9725770
 103.3458634  67.4674209 109.7909771 104.1550371  68.0884478 110.9096561
 111.0224181  57.8073964 120.6767016 111.0712337  58.6836087 120.2944785
 111.5646696  57.2651358 120.1038659 121.5079027  68.3515088 119.9568153
 120.7174571  68.3339227 119.4172652 121.2712382  68.8903381 120.7117189
 121.6276902  65.2007554 117.2700881 121.6774907  65.0357562 118.2116404
 121.5190825  64.3334813 116.8798762 110.5113161  67.8796100 104.5592970
 110.6601281  68.5631564 103.9059643 111.3179604  67.8601190 105.0742426
 118.9180664  61.1838482 118.5860188 119.8190527  61.0444947 118.2944186
 118.9928639  61.3492937 119.5258365 113.2523470  58.5605337 117.4313374
 112.3826779  58.8538903 117.1595963 113.4882950  59.1445782 118.1520638
 123.1295099  67.6204496 117.5142903 122.8379907  67.9834476 118.3506364
 122.5167230  66.9071504 117.3356235 124.3290781  65.1857375 110.0345473
 125.1637673  65.6247179 110.1983033 124.4649910  64.7096029 109.2153719
 121.3782287  62.7437110 115.9822961 121.8536409  62.9364757 115.1741812
 120.4547853  62.7996296 115.7366344 108.2665794  63.9061277 105.5654039
 108.0211836  63.0023607 105.7634249 108.4361708  63.9078428 104.6233517
 115.9562504  54.7784954 114.9478795 116.4744447  55.5145981 114.6225283
 115.6017636  55.0848947 115.7825554 107.5361441  59.6389635 103.0640201
 106.8430686  59.7133990 102.4080236 107.2913193  58.8749979 103.5861717
 116.2075098  51.1985236 110.4679691 116.4876852  50.5308425 111.0940118
 116.9925705  51.3914332 109.9554355 114.0108566  70.3744230 102.0304718
 113.4382533  70.9934417 101.5775189 114.5841360  70.9243592 102.5644640
 120.0783956  59.6202870 114.2151266 121.0301379  59.7200968 114.2363490
 119.9087407  58.8281139 114.7249351 118.0998336  56.7058454 114.4010667
 117.5048268  56.9863466 113.7057156 117.8148032  57.1952354 115.1727408
 117.2305826  70.6581380 103.1613300 118.1636499  70.5926942 103.3646175
 117.1429039  71.4937647 102.7027833 119.8593843  69.9747251 100.1217247
 119.7807474  69.6407114 101.0153005 120.6803510  70.4669019 100.1208720
 122.5572034  62.8408990 113.3293566 122.5248354  61.9024991 113.5153250
 123.1672658  62.9193027 112.5959391 114.3955365  61.7105043  99.3720770
 115.3414470  61.5811251  99.4409188 114.0169610  60.9719705  99.8490198
 122.7066522  59.6320033 113.3751849 122.1905571  58.8478490 113.1881778
 123.5906471  59.3038750 113.5398369 120.3677249  53.3761049 109.3347662
 120.1702070  53.0676137 110.2190994 120.9776955  54.1022688 109.4645592
 128.3748584  63.9024997 112.4699603 129.1051972  63.6410285 113.0307306
 127.7655529  63.1653719 112.5101671 126.4563881  62.0432859 113.0674054
 125.7297044  61.9088824 112.4590546 126.0411168  62.3509688 113.8730772
 114.2794057  65.7622789 120.8321427 115.1997067  65.9401388 121.0261474
 114.2443640  64.8178834 120.6801126 112.5798282  59.6355019  99.3075655
 111.6729737  59.3388132  99.3838369 112.8574263  59.3384837  98.4409942
 103.4976222  60.9561383 109.7574702 103.1779007  60.1026691 109.4649076
 102.9509651  61.1709961 110.5132669 107.2756130  63.6723824 113.4744208
 107.4942140  64.6040932 113.4932242 107.6881904  63.3131798 114.2599012
 114.1960348  54.1791909 105.4619897 113.3861076  53.8338994 105.8375143
 114.8844765  53.8699453 106.0507508 116.1250896  53.2569956 107.0844193
 116.6781935  53.6765409 107.7434216 116.3620982  52.3305704 107.1267149
 112.1483995  59.2457030 122.8646957 112.0480722  60.1951386 122.7959048
 111.9305537  58.9175268 121.9923027 111.3497067  56.4941955  99.4487634
 112.2116231  56.8196853  99.7083452 111.5347411  55.7073450  98.9360700
 103.3664482  64.5764294 111.7267823 102.6727954  64.1618247 111.2137778
 104.1137473  64.6184831 111.1301242 119.5029703  55.3670481 106.5922857
 118.9228372  56.0255285 106.2100910 119.2365636  54.5447826 106.1810275
 117.9533269  54.7675539 108.7944178 118.4533048  54.8792073 107.9858497
 118.5968877  54.4636592 109.4344986 112.0115265  62.6754168 121.6812019
 111.5282347  63.4754528 121.8875908 112.0976204  62.6862113 120.7279463
 105.2801225  64.5082548 109.6033838 105.2571913  64.6070235 108.6515721
 105.5901861  65.3547699 109.9251004 107.9388603  66.5658703 113.7180453
 108.8931856  66.5342645 113.6510384 107.7401126  66.1049327 114.5330678
 108.5287985  65.1359819 116.2851250 109.3480874  65.6303898 116.3086088
 108.8024793  64.2191787 116.2568818 118.2854581  57.5270571 105.6479206
 117.3980436  57.8120222 105.4299401 118.7008570  57.3664335 104.8006483
 121.6369117  57.5517092 109.3633545 122.4129507  58.0413545 109.6358162
 120.9117251  57.9775147 109.8205414 124.0741676  58.2644712 110.4207486
 124.6686167  58.0240448 109.7100794 124.1468260  57.5451842 111.0481022
 106.2938832  72.1078323 110.7350650 106.1593299  71.3478723 110.1688648
 105.8770894  72.8319222 110.2679439 117.4297795  67.2915246  99.7427226
 118.1333645  67.4965249 100.3584881 116.7060443  67.8592008 100.0076309
 118.2595605  63.0425107 105.8629496 118.2030806  63.4993659 105.0237128
 118.8123947  62.2815792 105.6852339 122.0700411  58.8314839 106.6879615
 121.8137345  58.4311475 107.5187823 121.4453279  59.5458633 106.5629755
 126.3812749  61.5710912 109.1950907 125.8212307  61.6404102 109.9682469
 125.7756252  61.3951897 108.4750403 109.4507957  73.0047640 110.9469093
 109.3340342  73.9493072 110.8447783 108.6300404  72.7021201 111.3354892
 119.3384492  67.7297775 101.7925686 120.1730096  67.2978974 101.6103161
 119.1768835  67.5579789 102.7202580 118.9930384  64.2329889 103.1582025
 118.9379188  64.0674160 102.2170469 118.3676439  64.9405922 103.3144215
 103.7822899  59.4697953 116.9843447 104.4281763  58.9596907 117.4730672
 103.5740050  60.2066635 117.5586873 116.3076291  66.5378800 122.4835588
 117.1767451  66.7119453 122.1222223 115.8283043  67.3573217 122.3611317
 112.3026510  53.7337998 102.7367343 112.2905179  54.6779838 102.8935614
 113.1949931  53.5508143 102.4426805 110.4762472  73.6575901 114.1625022
 111.3789718  73.6899512 114.4791516 110.2499842  72.7276352 114.1771357
 112.2316074  72.4106888 110.8235100 111.2811705  72.4108750 110.7099472
 112.5348560  71.6639623 110.3071135 116.1178629  50.3280774 106.9913280
 115.3511025  49.7739261 107.1369963 116.5289334  50.4002643 107.8527432
 108.1220390  56.6165570 121.0818462 108.9851852  56.2602375 121.2921786
 107.5485801  56.2779465 121.7693866 127.9668767  78.2467426 111.8880863
 128.6047177  78.1274174 111.1844203 127.8489610  79.1948270 111.9468815
 124.7758473  78.1994855 111.8242387 124.4376985  78.0835919 110.9362922
 125.6448241  77.7986020 111.8043393 120.6345289  80.0530331 107.8139278
 120.0710154  79.9620268 107.0455566 120.5197684  79.2330235 108.2941771
 125.2578256  79.3529706 117.7828593 125.2466897  78.9582505 116.9109096
 125.4198896  78.6195779 118.3762364 118.1809721  81.5481523 110.6523499
 118.9731013  81.2072347 110.2369798 118.4206371  81.6576498 111.5725652
 126.2144848  83.7201299 103.1253743 125.5632827  84.3055379 102.7387757
 127.0089211  84.2507494 103.1848781 120.1400475  80.8090436 103.5240877
 120.9131351  80.2619423 103.3853753 120.4925874  81.6734685 103.7355339
 121.9785517  82.1366818 116.7307777 121.6875383  83.0412449 116.6154443
 122.6142502  82.1783346 117.4451846 122.9041724  79.5143667 113.3209136
 123.5005297  79.2899689 112.6066099 122.9616696  78.7728412 113.9234584
 122.4766753  76.9683102 101.1559327 122.7292273  76.4464623 100.3942790
 121.5391312  76.8049247 101.2586011 127.5210036  75.9718880 108.9634071
 128.3073125  75.5538303 108.6124488 127.7848740  76.8764972 109.1315719
 127.6920113  81.4091731 103.6622727 127.0565946  81.4826357 104.3743632
 127.3617519  81.9985329 102.9841807 132.9218463  75.9094113 109.8667049
 133.6543635  75.3393330 110.1004879 132.1657818  75.5215714 110.3073555
 122.1963041  78.8711208 103.3583702 122.0799300  78.1956111 104.0264787
 122.3065301  78.3843582 102.5415855 124.5394582  78.3321355 107.0630392
 124.1752790  77.8051976 107.7743313 125.3961698  77.9419824 106.8896877
 130.4443883  69.6215688 114.3261658 130.1127208  70.4911099 114.1022873
 129.8489496  69.3051972 115.0055688 124.1800069  73.3611255 102.0591740
 124.3474472  74.2291491 102.4262211 123.9897238  73.5238536 101.1353029
 126.9375403  81.8228234 113.7257570 126.6376126  82.7253272 113.6173378
 126.5926462  81.5560417 114.5778723 120.3887884  78.2742030 109.7594275
 119.4638380  78.1418245 109.9671967 120.6372297  79.0536250 110.2564217
 130.3372546  74.3410774 111.4055008 129.4289424  74.2726182 111.1113769
 130.2860142  74.8182719 112.2336833 124.1589290  75.8168912 103.0438407
 124.0388915  76.2625963 103.8823887 123.4641879  76.1654230 102.4851945
 117.7496695  77.9175304 110.5938064 117.8789076  78.1709783 111.5077476
 117.0694146  78.5103012 110.2742719 121.9196182  88.5872554 106.6928538
 121.8420212  89.5380379 106.7717019 121.3157826  88.2418426 107.3503464
 124.4113412  75.7600419 119.3489905 123.6346746  76.3194339 119.3392770
 125.0503975  76.2457202 119.8704775 132.2034193  72.5427212 113.1832882
 131.5608573  72.8359745 112.5372676 131.6989121  72.4280132 113.9886078
 129.8574356  76.2890385 103.8718741 130.7692212  76.5217772 103.6966438
 129.3484003  76.8727430 103.3093820 122.6659784  78.5685873 118.9107872
 123.4074469  79.1070917 118.6342696 121.9596770  79.1952161 119.0679424
 128.1415124  80.7115013 117.5080034 128.5498480  80.2697424 116.7634666
 127.4192386  80.1367641 117.7614226 124.4946194  75.6487620 114.8813590
 125.3407389  76.0727033 115.0248239 124.4344832  74.9921244 115.5752154
 128.4643939  81.2716204 111.2632322 127.8352801  81.4361918 110.5608390
 128.0769601  81.6857813 112.0343286 132.3433171  82.2070642 108.6176686
 131.6584209  82.5869543 108.0673719 132.4277020  82.8165968 109.3508634
 127.6445639  73.3091988 116.5394764 127.4006571  74.0634049 116.0029040
 127.9205570  73.6877336 117.3742011 129.5984102  79.8530601 115.2172030
 129.8100997  80.4962361 114.5406411 129.5513850  79.0192917 114.7493960
 127.2010331  72.4648421 112.1208602 126.3394810  72.7629675 112.4125339
 127.2272766  72.6818820 111.1889634 124.0171901  81.0090612 108.5282407
 124.4810246  81.2878315 107.7387030 123.7528699  80.1074056 108.3455498
 120.9095982  80.5562093 111.4662171 121.4797339  80.9849362 110.8279655
 121.5004093  80.2744678 112.1646356 122.9540787  77.1313764 105.3371973
 123.6564830  77.5834808 105.8045899 122.6221415  76.4897583 105.9651866
 121.4021148  75.7225521 119.7123182 120.7719809  76.4041802 119.9458579
 121.2957236  75.6108602 118.7676320 116.6966121  75.3897317 110.6389106
 115.9065175  75.6454845 110.1629217 117.1877368  76.2045655 110.7441147
 130.7129930  82.7302556 113.3894387 131.5347374  82.3282743 113.1077069
 130.7092333  82.6270790 114.3410503 118.6480866  75.7541896 107.5972583
 117.8512029  75.8660590 108.1156079 118.4206458  76.0928548 106.7313473
 124.4786534  82.2786599 115.5455098 124.5430966  82.7407007 116.3813269
 123.7697457  81.6483964 115.6737407 114.9803824  75.6427807 113.0704097
 115.2311862  76.5274817 113.3361673 115.5163372  75.4632409 112.2979189
 138.8035923  79.0741305 109.7379358 138.0499632  78.5048703 109.5823363
 138.9383464  79.0403969 110.6849993 124.1934551  83.9454707 105.4134078
 124.0580226  84.7906243 105.8418926 124.7344364  84.1473985 104.6500012
 120.6801891  70.0246287 122.0748433 120.2868836  69.4712485 122.7496077
 121.4968031  70.3356865 122.4654951 117.6463949  81.4630145 105.9862003
 118.1588469  82.2573395 106.1367568 118.2986661  80.7656435 105.9195604
 119.4558833  84.5795901 108.0684756 119.6325462  85.5013866 107.8805740
 120.2515667  84.2654320 108.4979136 123.5969852  71.4404166 119.6668690
 124.3379565  72.0411319 119.5873152 123.8287775  70.6981804 119.1086732
 118.7411190  76.6260533 117.9446919 118.6264705  75.7245790 118.2454018
 117.8855708  76.8724230 117.5931736 125.8203028  84.5678273 119.5434420
 125.3766882  83.7814652 119.2255324 126.4820241  84.7557424 118.8778311
 120.5790149  86.0974075 114.0695098 121.1297574  85.9691138 113.2972092
 119.7401625  86.3968964 113.7189991 127.9184266  84.8481073 117.5715821
 127.9002741  85.6689954 117.0796090 128.8404186  84.7235149 117.7965962
 124.3757320  82.3625203 118.4139330 124.9085657  81.6013491 118.1838638
 123.8471401  82.0698855 119.1563484 127.5427015  67.4685269 113.9432971
 127.1991284  68.3586910 113.8672082 127.9105977  67.2786926 113.0802556
 115.6112865  79.7918799 106.7621573 116.4488087  80.2015808 106.5455281
 115.7891133  78.8518241 106.7321767 127.5077298  77.4593880 102.4505406
 126.9923921  78.2298484 102.6893794 127.2354606  76.7859016 103.0738468
 125.0924409  72.3043581 107.5090645 124.2366005  71.9150431 107.3296284
 125.5051360  72.3835541 106.6490430 126.6223555  69.8389924 111.9082205
 126.1188351  69.8020059 111.0950010 126.9154162  70.7482667 111.9678861
 122.8666441  69.9228654 110.9148386 123.7319438  69.7271462 110.5554276
 122.9343950  69.6939005 111.8417743 132.4811572  80.2126235 104.3858580
 131.7041014  79.8737394 103.9413742 133.1603053  80.2178858 103.7113545
 127.2963601  75.3320972 104.2765188 126.9913736  75.6467121 105.1275331
 128.2494043  75.4102392 104.3192521 125.7410033  81.4911195 105.9258142
 125.2131394  80.7563955 105.6131379 125.2397535  82.2685872 105.6798110
 130.7202879  79.6860216 111.0425188 130.0626553  80.3759477 111.1305317
 131.5243278  80.0756648 111.3859174 120.4728760  72.1530862 108.2864753
 121.0472512  71.9306043 107.5537946 121.0599743  72.2219556 109.0393354
 129.5308337  78.0404588 109.0929130 130.0440219  78.6734580 109.5950839
 130.1809561  77.4405784 108.7272490 120.7998347  74.1835323 102.3060638
 119.9635660  74.5210009 102.6269913 120.6603117  74.0484302 101.3687775
 122.7751428  69.0272110 107.0139823 122.1215840  68.7121128 106.3896437
 122.7331902  68.4047851 107.7399645 123.8862633  79.3091406  98.9293115
 122.9789694  79.0780659  99.1284264 124.3833665  78.5129025  99.1167096
 126.7930712  88.0188913 101.8489801 126.1192410  88.3220609 102.4574759
 127.1796534  88.8217993 101.4995258 126.0089168  75.5154044 111.3387470
 125.0911730  75.7368991 111.1809158 126.4249312  75.5900354 110.4799178
 126.7924216  76.9145460 106.4690150 127.5396035  77.4266857 106.1597272
 127.0615806  76.5929512 107.3294544 125.0650866  79.4104000 103.4517105
 124.1562085  79.1263033 103.5489574 125.0945950  79.8303079 102.5920412
 130.2970134  83.0210590 107.2208272 129.8432461  82.1801500 107.2773463
 129.6664100  83.6571988 107.5583052 129.2403053  73.9502576 108.4508940
 128.5025810  73.4379962 108.7819182 129.4929827  73.5102958 107.6392217
 128.7403073  84.8587087 108.1558090 129.0326047  85.4192144 107.4370456
 129.2501693  85.1515648 108.9111250 129.3414680  66.7278828 109.0450709
 129.6473557  65.8676191 108.7576624 130.0667285  67.3196448 108.8449703
 115.6339037  77.1309515 107.4332307 115.4363436  76.5378875 106.7083373
 115.0785701  76.8261725 108.1508246 123.6135760  77.0232621 109.5526900
 123.6684370  76.0706457 109.4769377 122.8026962  77.1792060 110.0368198
 124.7626954  80.9512744 100.7905183 124.3246384  80.2348603 100.3310821
 125.5037395  81.1788859 100.2290275 121.5528120  75.6409681 107.3117279
 120.7395986  75.9403851 107.7182471 122.0487114  75.2465370 108.0291761
 123.7036698  85.6367438 109.2451544 123.6612877  85.8628284 108.3160076
 124.6199397  85.4030812 109.3937345 127.1502332  76.1051505 116.1432173
 127.5051720  76.3322978 117.0026639 127.7974463  76.4369882 115.5209428
 132.8800069  79.2269941 106.8481502 132.7417967  79.4171537 105.9202691
 132.5236288  79.9889324 107.3049553 121.0442195  73.2128036 112.9278514
 121.6841574  73.0716795 112.2301477 120.2119725  72.9262550 112.5517116
 132.9069448  81.2946468 111.8592773 133.3405955  81.2021757 112.7075827
 133.6201029  81.2703969 111.2212789 121.8202499  82.5130467 109.0413506
 122.6143097  82.0180787 108.8396081 121.1094191  81.9848330 108.6781212
 126.6397343  84.8948562 113.3925874 126.6934366  85.4639499 114.1603590
 125.7712125  85.0650447 113.0279911 118.1285262  76.6573548 105.1173259
 117.1982850  76.5958004 105.3343221 118.2242734  76.1349501 104.3209900
 118.0470811  73.1828361 107.7051501 118.3077629  74.0973695 107.5960661
 118.8687984  72.7152804 107.8548114 119.5195737  74.5966118 114.8750325
 120.1918790  74.3883481 114.2262974 118.6925523  74.3988204 114.4355558
 133.7684998  81.3370169 114.3925659 133.9620888  82.2415979 114.6384934
 133.6685616  80.8777588 115.2264244 125.4221309  71.2228059 116.8915986
 124.7749224  71.9218009 116.7980462 126.1922324  71.6564203 117.2592234
 128.8300107  81.4876912 119.9666539 128.6785613  81.2587463 119.0496623
 128.8204786  82.4447513 119.9797884 125.5985443  79.0608824 114.9512806
 126.5277503  79.2119984 114.7781773 125.1776473  79.1492845 114.0961452
 124.3973775  83.0859489 112.7211343 124.2584860  82.7178273 113.5937282
 123.6088371  83.6007128 112.5495301 124.9921927  88.1868585 104.0636880
 125.1673682  87.7156628 104.8782503 124.3054715  88.8134351 104.2918141
 125.9478990  82.4641091 110.1100181 125.6128823  82.4241861 111.0057831
 125.4482936  81.7985807 109.6370591 119.9223234  77.8708721 115.6352762
 119.7843032  77.1388960 116.2364301 120.8328157  77.7817622 115.3536950
 128.8838182  79.8097126 100.3837241 128.2667352  79.0843954 100.2870294
 128.4154670  80.5706486 100.0404315 122.5505535  77.5828681 115.1236442
 123.2605153  76.9421873 115.0823060 122.5074843  77.8341576 116.0462623
 130.5392313  84.5196034 118.0443021 130.4804859  83.8355254 117.3773604
 130.9411832  85.2615024 117.5923647 121.2634469  74.5693899 116.9432081
 120.7271826  74.1184637 117.5953678 120.6751177  74.7039807 116.2002546
 119.5583012  91.3357948 110.8376740 119.7979610  91.9676472 111.5155759
 118.7152209  90.9845988 111.1242099 120.6736727  74.0282550  99.5058545
 119.7966194  73.9071351  99.1420792 121.1494481  73.2368628  99.2537434
 130.5409721  82.4835618 116.2757001 129.6536499  82.1461540 116.3983400
 131.1108272  81.7518649 116.5125766 112.1938868  78.8159710 109.6000052
 112.8809907  78.5021440 109.0121068 112.0386996  79.7201074 109.3267304
 116.9973590  73.7049906 114.0285076 116.9131779  73.0975576 113.2935486
 116.1756296  74.1958925 114.0294572 124.0710874  87.1437070 113.2418244
 123.9981045  87.9492042 113.7537549 123.6288267  87.3429036 112.4166266
 123.8600654  86.3808840 106.7521066 123.0768175  86.9230521 106.8459290
 124.5593399  86.8982820 107.1515307 127.1697304  72.1903470 109.3955271
 127.6666003  71.4373432 109.0756341 126.3984285  72.2267786 108.8298480
 135.0227061  77.8943835 111.0373563 135.0116937  78.7768551 110.6667496
 134.1544440  77.5415386 110.8428100 126.5309557  87.0423904 115.3976403
 127.2437530  87.6771369 115.3252304 126.0399586  87.1387770 114.5816405
 128.2527084  80.9475157 106.9693694 127.3183363  81.0676620 106.7998399
 128.4303753  80.0447624 106.7053704 123.7532272  74.3320853 109.1226956
 123.3830060  73.7791893 109.8107861 124.2491365  73.7278986 108.5701956
 131.6399636  76.7892476 107.5043729 132.1060088  77.6220468 107.4304031
 132.0907136  76.3237458 108.2088987 121.5821471  84.7918348 116.2181974
 122.2830930  85.4254831 116.3711368 121.1116586  85.1333079 115.4577613
 129.7075867  83.1336298 104.5029881 129.9835711  83.0192892 105.4123755
 128.8380366  82.7353782 104.4642054 129.6116298  69.1573063 111.5434630
 128.6979378  69.3877290 111.7116837 130.0409400  69.2411507 112.3948662
 129.3822757  77.3462955 114.0434524 128.7294207  77.5938863 113.3886977
 129.7603137  76.5327093 113.7097001 126.3429931  87.3822648 108.1462694
 126.5252325  86.5644304 108.6090447 127.1662917  87.5990341 107.7087584
 126.6772096  86.3090834 105.4077743 127.2059863  85.7983288 104.7947905
 126.9400316  85.9933364 106.2723276 125.4310330  78.0882766 120.5300561
 124.7550967  77.9876896 121.2002936 126.2537964  77.9321980 120.9936558
 117.1789189  84.3254703 113.1513076 117.7642626  83.5798391 113.2840980
 116.9814027  84.6358660 114.0349740 120.0327844  87.3605950 108.1675519
 119.3638219  87.8452078 107.6839559 119.8940714  87.6075171 109.0818897
 111.7706844  76.8960303 111.8717519 111.8090943  76.3623894 112.6654638
 111.2647137  76.3695509 111.2528497 124.1733113  89.3949694 114.7658177
 124.7251421  89.5581315 115.5307262 124.5139306  89.9854132 114.0938202
 119.1497606  71.7424844 115.3680062 119.2138933  72.6039675 114.9557459
 119.0864726  71.1298845 114.6352420 118.6249879  73.8147976 119.0153096
 119.2521917  73.4325053 119.6290620 117.7677797  73.5962178 119.3808788
 129.0243987  84.2210951 120.6206831 129.5683891  84.8340910 120.1261786
 128.4430832  84.7790530 121.1373844 115.4015421  75.6224405 104.9471451
 115.6968862  74.7135084 104.8938505 114.5003457  75.6012145 104.6252453
 127.3101500  87.3431669 111.7521859 127.1852640  86.5421409 111.2432805
 127.9680591  87.8377863 111.2635829 118.9309668  73.6980402 110.9298999
 118.2096254  74.3116370 110.7906473 119.7202924  74.2338167 110.8515645
 129.3736408  85.1440689 113.3801409 128.4266744  85.0246041 113.3079736
 129.7219182  84.2563187 113.4627671 121.7335982  71.0334828 117.2039651
 122.2570384  71.2797125 117.9665960 121.5148315  71.8654863 116.7842789
 117.1303263  73.3038503 105.0710776 116.8015969  72.4235882 104.8885882
 117.4842634  73.2486172 105.9587165 126.3782842  84.9393406 109.5805761
 126.2307804  84.0110113 109.7613332 127.2036335  84.9613496 109.0962837
 120.2445086  73.5911473 105.4386254 120.5841159  74.1197394 104.7164862
 120.6917207  73.9291879 106.2144820 129.9816964  85.7621964 110.6670634
 130.9063511  85.5564826 110.5295085 129.8132267  85.5138366 111.5759976
 122.9388527  71.9748523 114.8889322 122.5985347  71.1756336 115.2910002
 122.2327533  72.2750234 114.3166155 123.5904999  69.0597836 113.3416645
 124.4131068  68.5858314 113.2195535 123.8343062  69.8388320 113.8415331
 122.2313233  72.0886094 103.6379546 122.9521596  72.4667347 103.1343263
 121.6078537  72.8074971 103.7414524 126.3744356  72.7931243 104.5737879
 126.5907970  73.6755881 104.2726707 125.8938423  72.4017457 103.8443521
 121.1143577  75.7516957 111.1508623 120.9688158  76.0657260 112.0432905
 120.6368781  76.3701857 110.5979522 122.9739960  72.7419504 111.1989513
 122.9601529  71.8460598 110.8621811 123.6912388  72.7490168 111.8327799
 124.8266091  73.1756845 113.2442640 124.5683869  74.0973915 113.2426971
 124.2951131  72.7787279 113.9343104 129.7712280  86.2807632 106.0232726
 129.9449157  85.7154054 105.2706578 130.2641171  87.0808527 105.8412216
 115.5889240  78.2922301 114.0896285 115.0442708  79.0682109 114.2216559
 116.4668590  78.6393105 113.9315406 122.3776856  71.6233885 106.4677083
 122.4992767  70.6950531 106.6667971 122.0878899  71.6372571 105.5555398
 125.2468047  69.3088795 109.6043803 125.2689744  69.3728128 108.6495782
 125.6636106  68.4693304 109.7984309 135.6251671  79.0444055 107.6423025
 136.0682817  78.2951380 107.2442149 134.7478181  79.0354191 107.2596757
 130.7587452  85.5974396 103.1229624 131.4538357  86.2181089 103.3416939
 131.1010602  84.7469747 103.3982002 116.3755262  77.4192197 116.9826441
 115.6336998  77.5674833 117.5691072 116.0548006  77.6800463 116.1193191
 132.6578875  83.0474102 104.6516955 133.1830200  83.3861375 103.9266275
 132.5701228  82.1121117 104.4680089 124.3198924  86.9608175 116.7806831
 124.6286051  86.7157322 117.6529531 125.1174406  87.1654814 116.2925702
 124.3419536  89.1146085 109.0112208 123.9024526  88.6222464 109.7045065
 125.0927653  88.5719053 108.7704283 116.8211875  85.3057626 109.0136836
 117.6469895  85.0061398 108.6335480 116.4705927  84.5365248 109.4626625
 121.7893408  84.6584094 111.0834510 121.1673418  83.9954799 110.7836737
 122.4598275  84.6845226 110.4008157 115.0220480  83.2243952 109.9725770
 114.1852389  82.7966127 109.7909771 114.9944126  83.4176396 110.9096561
 121.8617936  73.1365882 120.6767016 121.9106091  74.0128005 120.2944785
 122.4040450  72.5943275 120.1038659 132.3472782  83.6807005 119.9568153
 131.5568325  83.6631144 119.4172652 132.1106136  84.2195299 120.7117189
 132.4670657  80.5299472 117.2700881 132.5168661  80.3649479 118.2116404
 132.3584580  79.6626731 116.8798762 121.3506915  83.2088017 104.5592970
 121.4995036  83.8923482 103.9059643 122.1573359  83.1893108 105.0742426
 129.7574419  76.5130400 118.5860188 130.6584282  76.3736865 118.2944186
 129.8322393  76.6784855 119.5258365 124.0917224  73.8897255 117.4313374
 123.2220534  74.1830821 117.1595963 124.3276705  74.4737700 118.1520638
 133.9688853  82.9496413 117.5142903 133.6773662  83.3126394 118.3506364
 133.3560985  82.2363422 117.3356235 135.1684536  80.5149293 110.0345473
 136.0031427  80.9539097 110.1983033 135.3043665  80.0387946 109.2153719
 132.2176042  78.0729028 115.9822961 132.6930163  78.2656674 115.1741812
 131.2941607  78.1288214 115.7366344 119.1059548  79.2353195 105.5654039
 118.8605590  78.3315525 105.7634249 119.2755463  79.2370346 104.6233517
 126.7956258  70.1076871 114.9478795 127.3138202  70.8437898 114.6225283
 126.4411391  70.4140865 115.7825554 118.3755196  74.9681553 103.0640201
 117.6824441  75.0425908 102.4080236 118.1306948  74.2041896 103.5861717
 127.0468852  66.5277154 110.4679691 127.3270606  65.8600343 111.0940118
 127.8319459  66.7206250 109.9554355 124.8502321  85.7036148 102.0304718
 124.2776288  86.3226335 101.5775189 125.4235114  86.2535510 102.5644640
 130.9177711  74.9494788 114.2151266 131.8695134  75.0492886 114.2363490
 130.7481161  74.1573057 114.7249351 128.9392090  72.0350371 114.4010667
 128.3442022  72.3155384 113.7057156 128.6541787  72.5244272 115.1727408
 128.0699581  85.9873298 103.1613300 129.0030254  85.9218860 103.3646175
 127.9822793  86.8229565 102.7027833 130.6987597  85.3039168 100.1217247
 130.6201229  84.9699032 101.0153005 131.5197264  85.7960936 100.1208720
 133.3965788  78.1700908 113.3293566 133.3642109  77.2316908 113.5153250
 134.0066412  78.2484944 112.5959391 125.2349119  77.0396961  99.3720770
 126.1808224  76.9103169  99.4409188 124.8563364  76.3011623  99.8490198
 133.5460277  74.9611951 113.3751849 133.0299326  74.1770408 113.1881778
 134.4300225  74.6330668 113.5398369 131.2071004  68.7052967 109.3347662
 131.0095825  68.3968055 110.2190994 131.8170709  69.4314606 109.4645592
 139.2142338  79.2316915 112.4699603 139.9445727  78.9702203 113.0307306
 138.6049284  78.4945636 112.5101671 137.2957635  77.3724777 113.0674054
 136.5690799  77.2380742 112.4590546 136.8804922  77.6801606 113.8730772
 125.1187812  81.0914707 120.8321427 126.0390821  81.2693306 121.0261474
 125.0837395  80.1470752 120.6801126 123.4192036  74.9646937  99.3075655
 122.5123492  74.6680050  99.3838369 123.6968017  74.6676755  98.4409942
 114.3369977  76.2853300 109.7574702 114.0172761  75.4318609 109.4649076
 113.7903405  76.5001879 110.5132669 118.1149884  79.0015741 113.4744208
 118.3335894  79.9332849 113.4932242 118.5275658  78.6423716 114.2599012
 125.0354102  69.5083827 105.4619897 124.2254830  69.1630912 105.8375143
 125.7238519  69.1991370 106.0507508 126.9644650  68.5861874 107.0844193
 127.5175689  69.0057327 107.7434216 127.2014737  67.6597622 107.1267149
 122.9877750  74.5748947 122.8646957 122.8874477  75.5243304 122.7959048
 122.7699292  74.2467186 121.9923027 122.1890821  71.8233872  99.4487634
 123.0509985  72.1488771  99.7083452 122.3741165  71.0365368  98.9360700
 114.2058237  79.9056212 111.7267823 113.5121708  79.4910165 111.2137778
 114.9531228  79.9476748 111.1301242 130.3423458  70.6962399 106.5922857
 129.7622127  71.3547203 106.2100910 130.0759390  69.8739743 106.1810275
 128.7927024  70.0967456 108.7944178 129.2926802  70.2083991 107.9858497
 129.4362632  69.7928509 109.4344986 122.8509020  78.0046086 121.6812019
 122.3676101  78.8046446 121.8875908 122.9369959  78.0154031 120.7279463
 116.1194979  79.8374466 109.6033838 116.0965667  79.9362153 108.6515721
 116.4295616  80.6839617 109.9251004 118.7782357  81.8950621 113.7180453
 119.7325611  81.8634563 113.6510384 118.5794881  81.4341244 114.5330678
 119.3681739  80.4651737 116.2851250 120.1874628  80.9595815 116.3086088
 119.6418547  79.5483705 116.2568818 129.1248336  72.8562489 105.6479206
 128.2374191  73.1412140 105.4299401 129.5402325  72.6956252 104.8006483
 132.4762872  72.8809010 109.3633545 133.2523262  73.3705463 109.6358162
 131.7511006  73.3067064 109.8205414 134.9135430  73.5936629 110.4207486
 135.5079921  73.3532365 109.7100794 134.9862014  72.8743760 111.0481022
 117.1332586  87.4370240 110.7350650 116.9987054  86.6770641 110.1688648
 116.7164648  88.1611140 110.2679439 128.2691549  82.6207164  99.7427226
 128.9727399  82.8257166 100.3584881 127.5454198  83.1883926 100.0076309
 129.0989359  78.3717025 105.8629496 129.0424561  78.8285576 105.0237128
 129.6517702  77.6107710 105.6852339 132.9094165  74.1606757 106.6879615
 132.6531099  73.7603393 107.5187823 132.2847033  74.8750551 106.5629755
 137.2206503  76.9002830 109.1950907 136.6606061  76.9696019 109.9682469
 136.6150006  76.7243815 108.4750403 120.2901712  88.3339557 110.9469093
 120.1734096  89.2784990 110.8447783 119.4694158  88.0313119 111.3354892
 130.1778246  83.0589693 101.7925686 131.0123850  82.6270891 101.6103161
 130.0162589  82.8871707 102.7202580 129.8324139  79.5621806 103.1582025
 129.7772942  79.3966078 102.2170469 129.2070194  80.2697839 103.3144215
 114.6216654  74.7989871 116.9843447 115.2675517  74.2888825 117.4730672
 114.4133805  75.5358552 117.5586873 127.1470046  81.8670718 122.4835588
 128.0161205  82.0411370 122.1222223 126.6676797  82.6865135 122.3611317
 123.1420264  69.0629915 102.7367343 123.1298934  70.0071755 102.8935614
 124.0343686  68.8800061 102.4426805 121.3156226  88.9867819 114.1625022
 122.2183473  89.0191429 114.4791516 121.0893596  88.0568270 114.1771357
 123.0709828  87.7398806 110.8235100 122.1205459  87.7400667 110.7099472
 123.3742314  86.9931540 110.3071135 126.9572384  65.6572692 106.9913280
 126.1904779  65.1031179 107.1369963 127.3683088  65.7294561 107.8527432
 118.9614145  71.9457488 121.0818462 119.8245606  71.5894293 121.2921786
 118.3879555  71.6071383 121.7693866 138.8062522  93.5759344 111.8880863
 139.4440931  93.4566091 111.1844203 138.6883364  94.5240188 111.9468815
 135.6152228  93.5286772 111.8242387 135.2770739  93.4127837 110.9362922
 136.4841996  93.1277937 111.8043393 131.4739043  95.3822249 107.8139278
 130.9103909  95.2912186 107.0455566 131.3591439  94.5622153 108.2941771
 129.0203475  96.8773440 110.6523499 129.8124767  96.5364265 110.2369798
 129.2600126  96.9868415 111.5725652 137.0538602  99.0493216 103.1253743
 136.4026582  99.6347297 102.7387757 137.8482965  99.5799411 103.1848781
 130.9794229  96.1382353 103.5240877 131.7525105  95.5911341 103.3853753
 131.3319628  97.0026603 103.7355339 133.7435479  94.8435584 113.3209136
 134.3399051  94.6191607 112.6066099 133.8010450  94.1020330 113.9234584
 133.3160507  92.2975020 101.1559327 133.5686028  91.7756541 100.3942790
 132.3785066  92.1341165 101.2586011 138.3603790  91.3010798 108.9634071
 139.1466879  90.8830221 108.6124488 138.6242494  92.2056890 109.1315719
 138.5313867  96.7383648 103.6622727 137.8959700  96.8118275 104.3743632
 138.2011274  97.3277247 102.9841807 133.0356796  94.2003126 103.3583702
 132.9193054  93.5248029 104.0264787 133.1459056  93.7135499 102.5415855
 135.3788337  93.6613273 107.0630392 135.0146544  93.1343894 107.7743313
 136.2355453  93.2711742 106.8896877 135.0193824  88.6903172 102.0591740
 135.1868226  89.5583409 102.4262211 134.8290993  88.8530454 101.1353029
 137.7769157  97.1520151 113.7257570 137.4769880  98.0545190 113.6173378
 137.4320217  96.8852334 114.5778723 131.2281638  93.6033948 109.7594275
 130.3032135  93.4710162 109.9671967 131.4766052  94.3828167 110.2564217
 141.1766301  89.6702691 111.4055008 140.2683178  89.6018100 111.1113769
 141.1253897  90.1474636 112.2336833 134.9983045  91.1460830 103.0438407
 134.8782670  91.5917881 103.8823887 134.3035633  91.4946148 102.4851945
 128.5890450  93.2467222 110.5938064 128.7182831  93.5001701 111.5077476
 127.9087901  93.8394930 110.2742719 132.7589937 103.9164472 106.6928538
 132.6813967 104.8672297 106.7717019 132.1551580 103.5710344 107.3503464
 135.3339949  90.9779538 114.8813590 136.1801144  91.4018951 115.0248239
 135.2738586  90.3213162 115.5752154 139.3037693  96.6008121 111.2632322
 138.6746556  96.7653836 110.5608390 138.9163355  97.0149731 112.0343286
 138.4839394  88.6383906 116.5394764 138.2400326  89.3925966 116.0029040
 138.7599324  89.0169254 117.3742011 138.0404086  87.7940339 112.1208602
 137.1788565  88.0921593 112.4125339 138.0666520  88.0110738 111.1889634
 134.8565655  96.3382530 108.5282407 135.3204001  96.6170233 107.7387030
 134.5922453  95.4365974 108.3455498 131.7489736  95.8854011 111.4662171
 132.3191093  96.3141279 110.8279655 132.3397848  95.6036596 112.1646356
 133.7934541  92.4605682 105.3371973 134.4958584  92.9126726 105.8045899
 133.4615170  91.8189501 105.9651866 132.2414903  91.0517439 119.7123182
 131.6113563  91.7333719 119.9458579 132.1350991  90.9400520 118.7676320
 127.5359875  90.7189235 110.6389106 126.7458929  90.9746763 110.1629217
 128.0271122  91.5337572 110.7441147 129.4874620  91.0833814 107.5972583
 128.6905784  91.1952508 108.1156079 129.2600213  91.4220466 106.7313473
 125.8197578  90.9719725 113.0704097 126.0705616  91.8566735 113.3361673
 126.3557126  90.7924327 112.2979189 135.0328306  99.2746625 105.4134078
 134.8973981 100.1198160 105.8418926 135.5738118  99.4765902 104.6500012
 131.5195645  85.3538204 122.0748433 131.1262591  84.8004403 122.7496077
 132.3361786  85.6648783 122.4654951 128.4857703  96.7922063 105.9862003
 128.9982224  97.5865313 106.1367568 129.1380416  96.0948353 105.9195604
 130.2952588  99.9087819 108.0684756 130.4719216 100.8305784 107.8805740
 131.0909421  99.5946238 108.4979136 134.4363606  86.7696083 119.6668690
 135.1773320  87.3703237 119.5873152 134.6681529  86.0273721 119.1086732
 129.5804944  91.9552451 117.9446919 129.4658459  91.0537708 118.2454018
 128.7249462  92.2016148 117.5931736 131.4183903 101.4265993 114.0695098
 131.9691328 101.2983056 113.2972092 130.5795379 101.7260882 113.7189991
 138.3820769  82.7977186 113.9432971 138.0385039  83.6878828 113.8672082
 138.7499732  82.6078844 113.0802556 126.4506620  95.1210717 106.7621573
 127.2881842  95.5307725 106.5455281 126.6284888  94.1810159 106.7321767
 138.3471052  92.7885798 102.4505406 137.8317675  93.5590402 102.6893794
 138.0748360  92.1150934 103.0738468 135.9318163  87.6335498 107.5090645
 135.0759759  87.2442349 107.3296284 136.3445115  87.7127459 106.6490430
 137.4617310  85.1681842 111.9082205 136.9582105  85.1311977 111.0950010
 137.7547917  86.0774584 111.9678861 133.7060196  85.2520571 110.9148386
 134.5713192  85.0563380 110.5554276 133.7737704  85.0230923 111.8417743
 138.1357355  90.6612890 104.2765188 137.8307491  90.9759039 105.1275331
 139.0887797  90.7394310 104.3192521 136.5803787  96.8203113 105.9258142
 136.0525149  96.0855873 105.6131379 136.0791290  97.5977789 105.6798110
 131.3122515  87.4822779 108.2864753 131.8866267  87.2597961 107.5537946
 131.8993497  87.5511474 109.0393354 140.3702092  93.3696506 109.0929130
 140.8833974  94.0026498 109.5950839 141.0203316  92.7697702 108.7272490
 131.6392102  89.5127240 102.3060638 130.8029414  89.8501927 102.6269913
 131.4996871  89.3776220 101.3687775 133.6145182  84.3564028 107.0139823
 132.9609595  84.0413045 106.3896437 133.5725656  83.7339769 107.7399645
 134.7256387  94.6383323  98.9293115 133.8183449  94.4072577  99.1284264
 135.2227419  93.8420942  99.1167096 137.6324466 103.3480830 101.8489801
 136.9586165 103.6512527 102.4574759 138.0190288 104.1509911 101.4995258
 136.8482923  90.8445962 111.3387470 135.9305484  91.0660909 111.1809158
 137.2643066  90.9192272 110.4799178 137.6317970  92.2437377 106.4690150
 138.3789789  92.7558775 106.1597272 137.9009560  91.9221430 107.3294544
 135.9044621  94.7395918 103.4517105 134.9955840  94.4554951 103.5489574
 135.9339704  95.1594997 102.5920412 141.1363888  98.3502508 107.2208272
 140.6826215  97.5093417 107.2773463 140.5057855  98.9863906 107.5583052
 140.0796808  89.2794494 108.4508940 139.3419564  88.7671880 108.7819182
 140.3323581  88.8394875 107.6392217 139.5796827 100.1879004 108.1558090
 139.8719802 100.7484061 107.4370456 140.0895448 100.4807565 108.9111250
 140.1808435  82.0570746 109.0450709 140.4867312  81.1968109 108.7576624
 140.9061040  82.6488366 108.8449703 126.4732791  92.4601432 107.4332307
 126.2757191  91.8670793 106.7083373 125.9179455  92.1553642 108.1508246
 134.4529515  92.3524539 109.5526900 134.5078124  91.3998375 109.4769377
 133.6420717  92.5083978 110.0368198 135.6020708  96.2804662 100.7905183
 135.1640138  95.5640521 100.3310821 136.3431149  96.5080777 100.2290275
 132.3921875  90.9701598 107.3117279 131.5789740  91.2695769 107.7182471
 132.8880869  90.5757287 108.0291761 134.5430452 100.9659355 109.2451544
 134.5006631 101.1920202 108.3160076 135.4593151 100.7322730 109.3937345
 137.9896086  91.4343423 116.1432173 138.3445474  91.6614896 117.0026639
 138.6368218  91.7661800 115.5209428 131.8835949  88.5419954 112.9278514
 132.5235329  88.4008713 112.2301477 131.0513480  88.2554467 112.5517116
 132.6596253  97.8422384 109.0413506 133.4536852  97.3472705 108.8396081
 131.9487946  97.3140247 108.6781212 128.9679017  91.9865466 105.1173259
 128.0376605  91.9249922 105.3343221 129.0636489  91.4641419 104.3209900
 128.8864566  88.5120279 107.7051501 129.1471383  89.4265612 107.5960661
 129.7081738  88.0444721 107.8548114 130.3589491  89.9258036 114.8750325
 131.0312545  89.7175398 114.2262974 129.5319278  89.7280122 114.4355558
 136.2615063  86.5519977 116.8915986 135.6142978  87.2509927 116.7980462
 137.0316079  86.9856121 117.2592234 136.4379197  94.3900742 114.9512806
 137.3671257  94.5411902 114.7781773 136.0170228  94.4784763 114.0961452
 135.2367529  98.4151406 112.7211343 135.0978615  98.0470191 113.5937282
 134.4482125  98.9299046 112.5495301 135.8315681 103.5160503 104.0636880
 136.0067437 103.0448546 104.8782503 135.1448469 104.1426269 104.2918141
 136.7872744  97.7933009 110.1100181 136.4522577  97.7533779 111.0057831
 136.2876690  97.1277725 109.6370591 130.7616988  93.2000639 115.6352762
 130.6236786  92.4680878 116.2364301 131.6721912  93.1109539 115.3536950
 139.7231936  95.1389043 100.3837241 139.1061107  94.4135872 100.2870294
 139.2548425  95.8998404 100.0404315 133.3899289  92.9120598 115.1236442
 134.0998908  92.2713791 115.0823060 133.3468597  93.1633493 116.0462623
 132.1028223  89.8985816 116.9432081 131.5665580  89.4476555 117.5953678
 131.5144931  90.0331725 116.2002546 131.5130482  89.3574468  99.5058545
 130.6359948  89.2363268  99.1420792 131.9888235  88.5660546  99.2537434
 123.0332622  94.1451627 109.6000052 123.7203662  93.8313357 109.0121068
 122.8780751  95.0492992 109.3267304 127.8367344  89.0341824 114.0285076
 127.7525533  88.4267494 113.2935486 127.0150051  89.5250842 114.0294572
 134.6994408 101.7100758 106.7521066 133.9161930 102.2522438 106.8459290
 135.3987153 102.2274738 107.1515307 138.0091058  87.5195388 109.3955271
 138.5059758  86.7665350 109.0756341 137.2378040  87.5559704 108.8298480
 139.0920839  96.2767075 106.9693694 138.1577118  96.3968537 106.7998399
 139.2697507  95.3739542 106.7053704 134.5926027  89.6612771 109.1226956
 134.2223814  89.1083811 109.8107861 135.0885119  89.0570904 108.5701956
 140.5469621  98.4628215 104.5029881 140.8229465  98.3484810 105.4123755
 139.6774120  98.0645700 104.4642054 140.4510053  84.4864981 111.5434630
 139.5373133  84.7169208 111.7116837 140.8803154  84.5703425 112.3948662
 140.2216511  92.6754873 114.0434524 139.5687962  92.9230780 113.3886977
 140.5996891  91.8619011 113.7097001 137.1823685 102.7114566 108.1462694
 137.3646080 101.8936222 108.6090447 138.0056671 102.9282258 107.7087584
 137.5165851 101.6382751 105.4077743 138.0453617 101.1275206 104.7947905
 137.7794070 101.3225281 106.2723276 128.0182944  99.6546621 113.1513076
 128.6036380  98.9090308 113.2840980 127.8207782  99.9650577 114.0349740
 130.8721599 102.6897868 108.1675519 130.2031974 103.1743996 107.6839559
 130.7334468 102.9367088 109.0818897 122.6100598  92.2252221 111.8717519
 122.6484698  91.6915811 112.6654638 122.1040891  91.6987426 111.2528497
 129.9891361  87.0716761 115.3680062 130.0532687  87.9331592 114.9557459
 129.9258481  86.4590763 114.6352420 129.4643633  89.1439894 119.0153096
 130.0915672  88.7616971 119.6290620 128.6071552  88.9254096 119.3808788
 126.2409176  90.9516323 104.9471451 126.5362617  90.0427001 104.8938505
 125.3397212  90.9304062 104.6252453 129.7703423  89.0272320 110.9298999
 129.0490009  89.6408287 110.7906473 130.5596679  89.5630084 110.8515645
 132.5729736  86.3626746 117.2039651 133.0964138  86.6089043 117.9665960
 132.3542070  87.1946781 116.7842789 127.9697017  88.6330421 105.0710776
 127.6409724  87.7527800 104.8885882 128.3236388  88.5778089 105.9587165
 137.2176596 100.2685323 109.5805761 137.0701559  99.3402031 109.7613332
 138.0430090 100.2905414 109.0962837 131.0838841  88.9203390 105.4386254
 131.4234913  89.4489312 104.7164862 131.5310961  89.2583797 106.2144820
 133.7782281  87.3040441 114.8889322 133.4379102  86.5048254 115.2910002
 133.0721288  87.6042152 114.3166155 134.4298753  84.3889754 113.3416645
 135.2524823  83.9150232 113.2195535 134.6736817  85.1680237 113.8415331
 133.0706988  87.4178012 103.6379546 133.7915350  87.7959265 103.1343263
 132.4472292  88.1366889 103.7414524 137.2138111  88.1223161 104.5737879
 137.4301725  89.0047799 104.2726707 136.7332178  87.7309374 103.8443521
 131.9537332  91.0808874 111.1508623 131.8081913  91.3949177 112.0432905
 131.4762536  91.6993775 110.5979522 133.8133715  88.0711422 111.1989513
 133.7995284  87.1752515 110.8621811 134.5306143  88.0782086 111.8327799
 135.6659846  88.5048762 113.2442640 135.4077623  89.4265833 113.2426971
 135.1344886  88.1079197 113.9343104 140.6106034 101.6099549 106.0232726
 140.7842912 101.0445972 105.2706578 141.1034926 102.4100444 105.8412216
 126.4282994  93.6214219 114.0896285 125.8836462  94.3974027 114.2216559
 127.3062344  93.9685023 113.9315406 133.2170611  86.9525802 106.4677083
 133.3386522  86.0242449 106.6667971 132.9272653  86.9664488 105.5555398
 136.0861801  84.6380713 109.6043803 136.1083498  84.7020046 108.6495782
 136.5029860  83.7985222 109.7984309 127.2149016  92.7484115 116.9826441
 126.4730752  92.8966750 117.5691072 126.8941760  93.0092380 116.1193191
 135.1813291 104.4438003 109.0112208 134.7418281 103.9514381 109.7045065
 135.9321408 103.9010970 108.7704283 127.6605630 100.6349544 109.0136836
 128.4863650 100.3353315 108.6335480 127.3099682  99.8657166 109.4626625
 132.6287163  99.9876012 111.0834510 132.0067172  99.3246717 110.7836737
 133.2992030 100.0137144 110.4008157 125.8614235  98.5535870 109.9725770
 125.0246143  98.1258044 109.7909771 125.8337880  98.7468313 110.9096561
 132.7011690  88.4657800 120.6767016 132.7499846  89.3419923 120.2944785
 133.2434205  87.9235193 120.1038659 132.1900670  98.5379935 104.5592970
 132.3388790  99.2215400 103.9059643 132.9967113  98.5185025 105.0742426
 134.9310979  89.2189172 117.4313374 134.0614288  89.5122738 117.1595963
 135.1670459  89.8029617 118.1520638 129.9453303  94.5645113 105.5654039
 129.6999345  93.6607443 105.7634249 130.1149217  94.5662263 104.6233517
 137.6350013  85.4368789 114.9478795 138.1531956  86.1729816 114.6225283
 137.2805145  85.7432782 115.7825554 129.2148950  90.2973470 103.0640201
 128.5218195  90.3717825 102.4080236 128.9700702  89.5333814 103.5861717
 137.8862607  81.8569072 110.4679691 138.1664361  81.1892261 111.0940118
 138.6713214  82.0498167 109.9554355 135.6896075 101.0328066 102.0304718
 135.1170042 101.6518253 101.5775189 136.2628869 101.5827427 102.5644640
 139.7785845  87.3642289 114.4010667 139.1835777  87.6447302 113.7057156
 139.4935541  87.8536190 115.1727408 138.9093335 101.3165216 103.1613300
 139.8424008 101.2510777 103.3646175 138.8216548 102.1521483 102.7027833
 136.0742874  92.3688878  99.3720770 137.0201978  92.2395086  99.4409188
 135.6957119  91.6303540  99.8490198 134.2585791  90.2938855  99.3075655
 133.3517246  89.9971967  99.3838369 134.5361772  89.9968673  98.4409942
 125.1763731  91.6145218 109.7574702 124.8566516  90.7610526 109.4649076
 124.6297159  91.8293796 110.5132669 128.9543639  94.3307659 113.4744208
 129.1729649  95.2624767 113.4932242 129.3669413  93.9715634 114.2599012
 135.8747857  84.8375744 105.4619897 135.0648585  84.4922829 105.8375143
 136.5632274  84.5283288 106.0507508 137.8038405  83.9153791 107.0844193
 138.3569444  84.3349245 107.7434216 138.0408491  82.9889539 107.1267149
 133.0284576  87.1525790  99.4487634 133.8903740  87.4780688  99.7083452
 133.2134920  86.3657286  98.9360700 125.0451991  95.2348130 111.7267823
 124.3515463  94.8202082 111.2137778 125.7924982  95.2768666 111.1301242
 141.1817212  86.0254316 106.5922857 140.6015881  86.6839120 106.2100910
 140.9153145  85.2031661 106.1810275 139.6320778  85.4259374 108.7944178
 140.1320557  85.5375909 107.9858497 140.2756386  85.1220427 109.4344986
 126.9588734  95.1666383 109.6033838 126.9359422  95.2654071 108.6515721
 127.2689370  96.0131534 109.9251004 129.6176112  97.2242538 113.7180453
 130.5719365  97.1926481 113.6510384 129.4188635  96.7633162 114.5330678
 130.2075494  95.7943654 116.2851250 131.0268383  96.2887733 116.3086088
 130.4812302  94.8775623 116.2568818 139.9642090  88.1854407 105.6479206
 139.0767945  88.4704057 105.4299401 140.3796079  88.0248170 104.8006483
 127.9726340 102.7662158 110.7350650 127.8380808 102.0062559 110.1688648
 127.5558403 103.4903058 110.2679439 139.1085304  97.9499081  99.7427226
 139.8121154  98.1549084 100.3584881 138.3847952  98.5175843 100.0076309
 139.9383114  93.7008943 105.8629496 139.8818315  94.1577494 105.0237128
 140.4911456  92.9399627 105.6852339 131.1295466 103.6631475 110.9469093
 131.0127851 104.6076907 110.8447783 130.3087913 103.3605036 111.3354892
 140.6717893  94.8913724 103.1582025 140.6166697  94.7257995 102.2170469
 140.0463948  95.5989757 103.3144215 125.4610408  90.1281788 116.9843447
 126.1069272  89.6180742 117.4730672 125.2527559  90.8650470 117.5586873
 133.9814019  84.3921833 102.7367343 133.9692688  85.3363673 102.8935614
 134.8737440  84.2091978 102.4426805 133.9103583 103.0690723 110.8235100
 132.9599214 103.0692585 110.7099472 134.2136069 102.3223458 110.3071135
 137.7966138  80.9864610 106.9913280 137.0298534  80.4323096 107.1369963
 138.2076843  81.0586478 107.8527432 129.8007899  87.2749405 121.0818462
 130.6639361  86.9186210 121.2921786 129.2273310  86.9363300 121.7693866
 140.3268375 106.4125732 107.5972583 139.5299538 106.5244426 108.1156079
 140.0993967 106.7512384 106.7313473 137.3126546 107.7893350 107.4332307
 137.1150945 107.1962711 106.7083373 136.7573210 107.4845560 108.1508246
 139.8072771 107.3157384 105.1173259 138.8770359 107.2541839 105.3343221
 139.9030243 106.7933337 104.3209900 139.7258320 103.8412197 107.7051501
 139.9865138 104.7557530 107.5960661 140.5475493 103.3736639 107.8548114
 137.0802930 106.2808241 104.9471451 137.3756371 105.3718919 104.8938505
 136.1790966 106.2595980 104.6252453 138.8090772 103.9622338 105.0710776
 138.4803478 103.0819717 104.8885882 139.1630143 103.9070007 105.9587165
 140.7847057 109.8937030 105.5654039 140.5393099 108.9899360 105.7634249
 140.9542972 109.8954181 104.6233517 140.0542705 105.6265388 103.0640201
 139.3611950 105.7009743 102.4080236 139.8094457 104.8625732 103.5861717
  78.5621166   4.2767006  93.4173845  78.4845195   5.2274831  93.4962325
  77.9582809   3.9312878  94.0748771  80.8359535  -0.3650841  92.1379384
  80.7005209   0.4800694  92.5664232  81.3769347  -0.1631564  91.3745318
  76.0983817   0.2690353  94.7930063  76.2750445   1.1908318  94.6051047
  76.8940650  -0.0451228  95.2224443  77.2215132   1.7868527 100.7940405
  77.7722557   1.6585590 100.0217399  76.3826608   2.0863416 100.4435298
  83.4355695   3.7083365  88.5735107  82.7617394   4.0115061  89.1820065
  83.8221517   4.5112445  88.2240564  80.3461681   1.3261890  95.9696850
  80.3037860   1.5522736  95.0405382  81.2624380   1.0925264  96.1182651
  83.2822327   0.5843014 100.1171181  83.3359349   1.1533950 100.8848896
  82.4137108   0.7544899  99.7525218  81.6346910   3.8763037  90.7882187
  81.8098666   3.4051080  91.6027809  80.9479698   4.5028803  91.0163447
  76.2007995   7.0252400  97.5622047  76.4404594   7.6570924  98.2401065
  75.3577192   6.6740440  97.8487406  80.7135857   2.8331522  99.9663551
  80.6406029   3.6386494 100.4782855  80.2713250   3.0323488  99.1411572
  80.5025637   2.0703292  93.4766372  79.7193159   2.6124972  93.5704597
  81.2018382   2.5877272  93.8760613  83.1734541   2.7318356 102.1221709
  83.8862513   3.3665821 102.0497611  82.6824569   2.8282222 101.3061711
  78.2246454   0.4812800 102.9427280  78.9255914   1.1149283 103.0956674
  77.7541569   0.8227531 102.1822919  82.9854914   3.0717100  94.8708001
  83.1677309   2.2538756  95.3335753  83.8087900   3.2884793  94.4332891
  83.3197080   1.9985285  92.1323049  83.8484846   1.4877740  91.5193211
  83.5825299   1.6827816  92.9968582  73.8214172   0.0149155  99.8758383
  74.4067609  -0.7307157 100.0086287  73.6239011   0.3253111 100.7595047
  76.6752828   3.0500402  94.8920825  76.0063203   3.5346530  94.4084865
  76.5365697   3.2969623  95.8064204  80.8158096   5.0844146 101.4903484
  81.3676404   5.2475767 102.2552569  81.1564290   5.6748584 100.8183509
  83.9526483   3.0326121  98.4767166  83.8277623   2.2315861  97.9678111
  84.6105575   3.5272315  97.9881136  80.9623907   2.6502627 103.5052138
  81.2711034   2.4051774 104.3774838  81.7599389   2.8549266 103.0171008
  80.9844519   4.8040537  95.7357515  80.5449510   4.3116916  96.4290371
  81.7352636   4.2613505  95.4949590  73.4636858   0.9952078  95.7382143
  74.2894878   0.6955850  95.3580786  73.1130910   0.2259700  96.1871931
  78.4318392   0.3478546  97.8079816  77.8098401  -0.3150749  97.5082044
  79.1023259   0.3739678  97.1253464  71.6645464  -1.0861596  96.6971076
  70.8277372  -1.5139421  96.5155077  71.6369109  -0.8929152  97.6341867
  77.9931899  -1.1017531  91.2838277  78.1420019  -0.4182066  90.6304950
  78.7998342  -1.1212441  91.7987733  81.4927304   1.3930600  88.7550024
  80.9201271   2.0120787  88.3020496  82.0660098   1.9429961  89.2889946
  84.7124564   1.6767750  89.8858606  85.6455237   1.6113312  90.0891482
  84.6247777   2.5124017  89.4273139  73.7757569   3.1264692  97.4595957
  73.6412037   2.3665093  96.8933955  73.3589632   3.8505592  96.9924746
  76.9326695   4.0234009  97.6714400  76.8159079   4.9679442  97.5693090
  76.1119141   3.7207571  98.0600199  77.9581209   4.6762271 100.8870328
  78.8608456   4.7085881 101.2036823  77.7318579   3.7462722 100.9016664
  79.7134811   3.4293258  97.5480407  78.7630442   3.4295119  97.4344779
  80.0167297   2.6825992  97.0316441  95.4487505   9.2653796  98.6126169
  96.0865915   9.1460543  97.9089509  95.3308348  10.2134640  98.6714121
  92.2577211   9.2181224  98.5487694  91.9195723   9.1022289  97.6608229
  93.1266979   8.8172389  98.5288700  88.1164027  11.0716700  94.5384585
  87.5528892  10.9806637  93.7700873  88.0016422  10.2516605  95.0187077
  92.7396994  10.3716076 104.5073899  92.7285635   9.9768874 103.6354403
  92.9017634   9.6382148 105.1007671  85.6628459  12.5667892  97.3768805
  86.4549751  12.2258717  96.9615105  85.9025109  12.6762867  98.2970959
  93.6963586  14.7387668  89.8499050  93.0451565  15.3241749  89.4633064
  94.4907948  15.2693863  89.9094087  87.6219213  11.8276805  90.2486184
  88.3950089  11.2805792  90.1099060  87.9744612  12.6921055  90.4600645
  89.4604255  13.1553188 103.4553083  89.1694121  14.0598818 103.3399750
  90.0961240  13.1969715 104.1697153  90.3860462  10.5330036 100.0454443
  90.9824034  10.3086059  99.3311406  90.4435434   9.7914782 100.6479891
  89.9585490   7.9869471  87.8804634  90.2111011   7.4650993  87.1188097
  89.0210050   7.8235617  87.9831318  95.0028773   6.9905250  95.6879377
  95.7891863   6.5724673  95.3369794  95.2667478   7.8951342  95.8561026
  95.1738851  12.4278100  90.3868034  94.5384684  12.5012727  91.0988939
  94.8436257  13.0171699  89.7087113  89.6781779   9.8897577  90.0829009
  89.5618037   9.2142481  90.7510093  89.7884039   9.4029951  89.2661162
  92.0213320   9.3507725  93.7875698  91.6571527   8.8238345  94.4988620
  92.8780436   8.9606194  93.6142184  91.6618807   4.3797624  88.7837047
  91.8293209   5.2477861  89.1507518  91.4715976   4.5424906  87.8598336
  94.4194140  12.8414603 100.4502877  94.1194863  13.7439642 100.3418684
  94.0745200  12.5746786 101.3024030  87.8706622   9.2928400  96.4839581
  86.9457118   9.1604614  96.6917273  88.1191035  10.0722619  96.9809524
  91.6408028   6.8355282  89.7683714  91.5207653   7.2812332  90.6069194
  90.9460616   7.1840599  89.2097252  85.2315433   8.9361674  97.3183371
  85.3607814   9.1896152  98.2322782  84.5512884   9.5289382  96.9988026
  89.4014920  19.6058923  93.4173845  89.3238950  20.5566749  93.4962325
  88.7976564  19.2604796  94.0748771  91.8932150   6.7786789 106.0735212
  91.1165484   7.3380709 106.0638076  92.5322713   7.2643572 106.5950082
  97.3393094   7.3076755  90.5964048  98.2510950   7.5404142  90.4211745
  96.8302741   7.8913799  90.0339126  90.1478522   9.5872242 105.6353179
  90.8893207  10.1257286 105.3588002  89.4415508  10.2138531 105.7924730
  95.6233862  11.7301383 104.2325340  96.0317218  11.2883793 103.4879973
  94.9011123  11.1554010 104.4859533  91.9764932   6.6673989 101.6058897
  92.8226127   7.0913403 101.7493546  91.9163570   6.0107614 102.2997460
  95.9462676  12.2902573  97.9877629  95.3171539  12.4548287  97.2853697
  95.5588339  12.7044183  98.7588593  99.8251908  13.2257011  95.3421993
  99.1402947  13.6055913  94.7919026  99.9095758  13.8352338  96.0753941
  97.0802840  10.8716970 101.9417336  97.2919735  11.5148730 101.2651717
  97.0332588  10.0379287 101.4739266  91.4990638  12.0276981  95.2527714
  91.9628984  12.3064684  94.4632337  91.2347436  11.1260426  95.0700805
  88.3914719  11.5748463  98.1907477  88.9616076  12.0035731  97.5524962
  88.9822831  11.2931048  98.8891663  90.4359524   8.1500134  92.0617279
  91.1383568   8.6021177  92.5291206  90.1040153   7.5083953  92.6897172
  88.8839886   6.7411890 106.4368489  88.2538547   7.4228171 106.6703885
  88.7775974   6.6294972 105.4921627  84.1784858   6.4083686  97.3634413
  83.3883912   6.6641215  96.8874523  84.6696106   7.2232024  97.4686453
  98.1948668  13.7488926 100.1139694  99.0166112  13.3469113  99.8322375
  98.1911071  13.6457160 101.0655809  86.1299604   6.7728266  94.3217890
  85.3330767   6.8846960  94.8401385  85.9025196   7.1114918  93.4558780
  91.9605271  13.2972969 102.2700404  92.0249704  13.7593376 103.1058576
  91.2516195  12.6670334 102.3982714  82.4622561   6.6614177  99.7949404
  82.7130600   7.5461187 100.0606980  82.9982110   6.4818778  99.0224495
 106.2854661  10.0927674  96.4624665 105.5318369   9.5235072  96.3068670
 106.4202202  10.0590339  97.4095300  91.6753289  14.9641076  92.1379384
  91.5398964  15.8092612  92.5664232  92.2163102  15.1660354  91.3745318
  85.1282686  12.4816514  92.7107310  85.6407207  13.2759765  92.8612874
  85.7805399  11.7842805  92.6440911  86.9377571  15.5982271  94.7930063
  87.1144199  16.5200235  94.6051047  87.7334405  15.2840690  95.2224443
  86.2229928   7.6446903 104.6692226  86.1083443   6.7432160 104.9699325
  85.3674445   7.8910599 104.3177042  93.3021765  15.5864643 106.2679727
  92.8585620  14.8001021 105.9500631  93.9638979  15.7743793 105.6023617
  88.0608887  17.1160445 100.7940405  88.6116312  16.9877508 100.0217399
  87.2220362  17.4155334 100.4435298  95.4003003  15.8667443 104.2961128
  95.3821479  16.6876324 103.8041397  96.3222924  15.7421518 104.5211269
  91.8576058  13.3811572 105.1384636  92.3904394  12.6199861 104.9083944
  91.3290139  13.0885224 105.8808791  83.0931603  10.8105169  93.4866880
  83.9306825  11.2202177  93.2700588  83.2709871   9.8704611  93.4567074
  94.9896035   8.4780249  89.1750713  94.4742659   9.2484854  89.4139100
  94.7173344   7.8045386  89.7983775  99.9630309  11.2312604  91.1103887
  99.1859752  10.8923764  90.6659049 100.6421790  11.2365227  90.4358852
  94.7782338   6.3507342  91.0010494  94.4732474   6.6653491  91.8520637
  95.7312781   6.4288761  91.0437827  93.2228770  12.5097565  92.6503448
  92.6950132  11.7750324  92.3376686  92.7216273  13.2872241  92.4043417
  98.2021616  10.7046585  97.7670495  97.5445291  11.3945847  97.8550623
  99.0062016  11.0943017  98.1104481  87.9547498   3.1717231  95.0110060
  88.5291250   2.9492413  94.2783253  88.5418480   3.2405926  95.7638661
  97.0127075   9.0590958  95.8174436  97.5258957   9.6920950  96.3196146
  97.6628299   8.4592154  95.4517796  88.2817085   5.2021692  89.0305945
  87.4454397   5.5396379  89.3515220  88.1421855   5.0670672  88.0933082
  91.3681371  10.3277775  85.6538421  90.4608432  10.0967029  85.8529570
  91.8652402   9.5315394  85.8412403  94.2749449  19.0375282  88.5735107
  93.6011148  19.3406979  89.1820065  94.6615271  19.8404363  88.2240564
  93.4907906   6.5340414  98.0632777  92.5730467   6.7555361  97.9054465
  93.9068050   6.6086724  97.2044484  94.2742954   7.9331829  93.1935457
  95.0214773   8.4453226  92.8842579  94.5434543   7.6115882  94.0539851
  92.5469604  10.4290370  90.1762411  91.6380823  10.1449403  90.2734881
  92.5764688  10.8489449  89.3165718  97.7788871  14.0396959  93.9453579
  97.3251198  13.1987869  94.0018769  97.1482838  14.6758358  94.2828359
  96.2221811  15.8773456  94.8803397  96.5144785  16.4378513  94.1615763
  96.7320431  16.1702017  95.6356556  83.1157774   8.1495884  94.1577614
  82.9182174   7.5565245  93.4328680  82.5604438   7.8448094  94.8753552
  91.0954498   8.0418991  96.2772207  91.1503108   7.0892827  96.2014683
  90.2845700   8.1978430  96.7613505  92.2445692  11.9699114  87.5150490
  91.8065122  11.2534973  87.0556127  92.9856133  12.1975228  86.9535581
  89.0346858   6.6596050  94.0362586  88.2214723   6.9590221  94.4427778
  89.5305852   6.2651739  94.7537068  91.1855436  16.6553807  95.9696850
  91.1431615  16.8814654  95.0405382  92.1018135  16.4217182  96.1182651
  94.6321070   7.1237875 102.8677479  94.9870457   7.3509348 103.7271945
  95.2793201   7.4556252 102.2454735 100.3618807  10.2456311  93.5726808
 100.2236705  10.4357907  92.6447998 100.0055025  11.0075693  94.0294860
  88.5260933   4.2314406  99.6523821  89.1660312   4.0903165  98.9546784
  87.6938463   3.9448919  99.2762423 100.3888186  12.3132838  98.5838080
 100.8224693  12.2208127  99.4321134 101.1019767  12.2890338  97.9458096
  89.3021237  13.5316836  95.7658813  90.0961835  13.0367156  95.5641388
  88.5912929  13.0034699  95.4026519  94.1216081  15.9134932 100.1171181
  94.1753103  16.4825868 100.8848896  93.2530862  16.0836817  99.7525218
  85.6104000   7.6759918  91.8418566  84.6801588   7.6144373  92.0588528
  85.7061472   7.1535871  91.0455207  85.5289549   4.2014731  94.4296807
  85.7896366   5.1160064  94.3205968  86.3506721   3.7339173  94.5793420
  87.0014474   5.6152488 101.5995632  87.6737528   5.4069850 100.9508281
  86.1744261   5.4174574 101.1600864 101.2503736  12.3556538 101.1170965
 101.4439626  13.2602349 101.3630240 101.1504354  11.8963957 101.9509550
  96.3118844  12.5063281 106.6911846  96.1604351  12.2773833 105.7741930
  96.3023524  13.4633882 106.7043191  93.0804181  10.0795194 101.6758112
  94.0096241  10.2306353 101.5027080  92.6595211  10.1679215 100.8206759
  91.8792513  14.1045858  99.4456650  91.7403598  13.7364643 100.3182588
  91.0907109  14.6193498  99.2740608  92.4740665  19.2054955  90.7882187
  92.6492420  18.7342998  91.6027809  91.7873453  19.8320721  91.0163447
  93.4297728  13.4827461  96.8345488  93.0947560  13.4428231  97.7303138
  92.9301673  12.8172177  96.3615898  87.4041972   8.8895091 102.3598069
  87.2661770   8.1575330 102.9609608  88.3146895   8.8003991 102.0782257
  96.3656919  10.8283495  87.1082548  95.7486090  10.1030323  87.0115600
  95.8973408  11.5892856  86.7649622  90.0324272   8.6015050 101.8481749
  90.7423891   7.9608242 101.8068367  89.9893581   8.8527945 102.7707929
  98.0211051  15.5382404 104.7688328  97.9623597  14.8541624 104.1018911
  98.4230569  16.2801394 104.3168954  88.7453206   5.5880268 103.6677388
  88.2090563   5.1371007 104.3198984  88.1569915   5.7226177 102.9247852
  87.0401750  22.3544317  97.5622047  87.2798348  22.9862842  98.2401065
  86.1970946  22.0032357  97.8487406  88.1555465   5.0468920  86.2303852
  87.2784932   4.9257720  85.8666098  88.6313218   4.2554998  85.9782740
  98.0228458  13.5021988 103.0002308  97.1355237  13.1647909 103.1228706
  98.5927009  12.7705019 103.2371073  79.6757605   9.8346079  96.3245359
  80.3628645   9.5207809  95.7366374  79.5205734  10.7387444  96.0512610
  84.4792328   4.7236276 100.7530383  84.3950516   4.1161945 100.0180793
  83.6575034   5.2145294 100.7539879  91.5529612  18.1623440  99.9663551
  91.4799783  18.9678411 100.4782855  91.1107005  18.3615406  99.1411572
  91.3419391  17.3995210  93.4766372  90.5586913  17.9416890  93.5704597
  92.0412136  17.9169190  93.8760613 102.5045799   8.9130205  97.7618869
 102.4935675   9.7954920  97.3912802 101.6363178   8.5601756  97.5673406
  94.0128295  18.0610274 102.1221709  94.7256267  18.6957739 102.0497611
  93.5218324  18.1574140 101.3061711  95.7345822  11.9661527  93.6939001
  94.8002101  12.0862989  93.5243705  95.9122491  11.0633993  93.4299011
  91.2351010   5.3507222  95.8472262  90.8648798   4.7978263  96.5353168
  91.7310103   4.7465356  95.2947262  99.1218373   7.8078846  94.2289035
  99.5878826   8.6406837  94.1549338  99.5725874   7.3423827  94.9334294
  89.0640209  15.8104717 102.9427280  89.7649668  16.4441200 103.0956674
  88.5935324  16.1519449 102.1822919  97.1894605  14.1522667  91.2275187
  97.4654448  14.0379262  92.1369061  96.3199103  13.7540152  91.1887360
  96.8641495   8.3649325 100.7679831  96.2112945   8.6125232 100.1132283
  97.2421875   7.5513463 100.4342308  93.8248669  18.4009018  94.8708001
  94.0071063  17.5830674  95.3335753  94.6481655  18.6176710  94.4332891
  94.1590834  17.3277203  92.1323049  94.6878601  16.8169658  91.5193211
  94.4219054  17.0119733  92.9968582  92.9129068   9.1069136 107.2545868
  92.2369705   9.0063265 107.9248243  93.7356702   8.9508350 107.7181865
  84.6607927  15.3441072  99.8758383  85.2461364  14.5984760 100.0086287
  84.4632765  15.6545029 100.7595047  87.5146582  18.3792320  94.8920825
  86.8456957  18.8638447  94.4084865  87.3759452  18.6261540  95.8064204
  79.2525582   7.9146673  98.5962826  79.2909681   7.3810263  99.3899944
  78.7465874   7.3881878  97.9773803  91.6551851  20.4136063 101.4903484
  92.2070159  20.5767685 102.2552569  91.9958044  21.0040501 100.8183509
  86.6316344   2.7611213 102.0925368  86.6957670   3.6226044 101.6802766
  86.5683464   2.1485215 101.3597727  86.1068616   4.8334346 105.7398403
  86.7340655   4.4511423 106.3535927  85.2496535   4.6148548 106.1054095
  96.5062725  15.2397321 107.3452138  97.0502629  15.8527279 106.8507093
  95.9249570  15.7976899 107.8619151  82.8834159   6.6410775  91.6716757
  83.1787600   5.7321453  91.6183811  81.9822195   6.6198514  91.3497760
  94.7920238  18.3618039  98.4767166  94.6671377  17.5607779  97.9678111
  95.4499329  18.8564232  97.9881136  86.4128406   4.7166771  97.6544306
  85.6914992   5.3302739  97.5151779  87.2021662   5.2524536  97.5760952
  96.8555146  16.1627059 100.1046716  95.9085482  16.0432410 100.0325043
  97.2037919  15.2749557 100.1872977  84.6122001   4.3224872  91.7956083
  84.2834707   3.4422251  91.6131189  84.9661371   4.2672541  92.6832472
  93.8601580  15.9579775  96.3051068  93.7126542  15.0296483  96.4858638
  94.6855073  15.9799866  95.8208143  87.7263824   4.6097842  92.1631560
  88.0659896   5.1383764  91.4410169  88.1735944   4.9478248  92.9390127
  97.4635701  16.7808334  97.3915941  98.3882249  16.5751195  97.2540392
  97.2951005  16.5324735  98.3005282  89.7131971   3.1072464  90.3624853
  90.4340333   3.4853717  89.8588570  89.0897275   3.8261341  90.4659831
  88.5962315   6.7703326  97.8753930  88.4506896   7.0843629  98.7678211
  88.1187519   7.3888226  97.3224829  92.3084829   4.1943214  99.9687947
  92.0502607   5.1160285  99.9672277  91.7769869   3.7973649 100.6588411
  97.2531018  17.2994001  92.7478032  97.4267895  16.7340424  91.9951885
  97.7459909  18.0994896  92.5657522  83.0707977   9.3108670 100.8141591
  82.5261445  10.0868478 100.9461865  83.9487327   9.6579475 100.6560713
 103.1070409  10.0630424  94.3668332 103.5501555   9.3137750  93.9687455
 102.2296919  10.0540561  93.9842064  98.2406190  16.6160766  89.8474931
  98.9357095  17.2367458  90.0662245  98.5829340  15.7656117  90.1227309
  83.8573999   8.4378567 103.7071748  83.1155735   8.5861202 104.2936378
  83.5366744   8.6986832 102.8438497 100.1397613  14.0660471  91.3762261
 100.6648937  14.4047744  90.6511581 100.0519966  13.1307487  91.1925396
  91.8017662  17.9794545 103.5052138  92.1104788  17.7343692 104.3774838
  92.5993144  18.1841183 103.0171008  91.8238274  20.1332455  95.7357515
  91.3843264  19.6408833  96.4290371  92.5746391  19.5905422  95.4949590
  84.3030613  16.3243995  95.7382143  85.1288633  16.0247767  95.3580786
  83.9524665  15.5551618  96.1871931  89.2712146  15.6770464  97.8079816
  88.6492155  15.0141169  97.5082044  89.9417013  15.7031596  97.1253464
  82.5039218  14.2430322  96.6971076  81.6671126  13.8152496  96.5155077
  82.4762863  14.4362765  97.6341867  89.3436674   4.1552252 107.4012322
  89.3924829   5.0314375 107.0190092  89.8859188   3.6129645 106.8283965
  99.8291519  14.6993375 106.6813459  99.0387063  14.6817514 106.1417959
  99.5924874  15.2381669 107.4362496  99.9489394  11.5485841 103.9946188
  99.9987399  11.3835849 104.9361711  99.8403318  10.6813100 103.6044069
  88.8325653  14.2274387  91.2838277  88.9813773  14.9109851  90.6304950
  89.6392096  14.2079477  91.7987733  97.2393157   7.5316769 105.3105495
  98.1403019   7.3923234 105.0189492  97.3141131   7.6971224 106.2503672
  91.5735962   4.9083624 104.1558681  90.7039271   5.2017190 103.8841269
  91.8095442   5.4924069 104.8765945 101.4507591  13.9682783 104.2388209
 101.1592399  14.3312763 105.0751670 100.8379722  13.2549791 104.0601541
 102.6503273  11.5335663  96.7590780 103.4850165  11.9725467  96.9228340
 102.7862402  11.0574316  95.9399025  99.6994779   9.0915397 102.7068267
 100.1748901   9.2843044 101.8987119  98.7760345   9.1474583 102.4611651
  86.5878286  10.2539565  92.2899346  86.3424328   9.3501895  92.4879556
  86.7574201  10.2556715  91.3478824  85.8573934   5.9867922  89.7885507
  85.1643178   6.0612277  89.1325543  85.6125685   5.2228266  90.3107024
  92.3321059  16.7222517  88.7550024  91.7595026  17.3412705  88.3020496
  92.9053852  17.2721879  89.2889946  95.5518318  17.0059668  89.8858606
  96.4848992  16.9405229  90.0891482  95.4641531  17.8415934  89.4273139
  98.1806335  16.3225538  86.8462554  98.1019967  15.9885402  87.7398312
  99.0016002  16.8147306  86.8454026 100.8784526   9.1887277 100.0538873
 100.8460846   8.2503278 100.2398556 101.4885150   9.2671314  99.3204698
  92.7167857   8.0583330  86.0966077  93.6626962   7.9289538  86.1654495
  92.3382102   7.3197992  86.5735505 106.6961076  10.2503284  99.1944909
 107.4264465   9.9888572  99.7552613 106.0868022   9.5132006  99.2346977
 104.7776373   8.3911147  99.7919361 104.0509537   8.2567112  99.1835852
 104.3623660   8.6987975 100.5976079  92.6006550  12.1101076 107.5566734
  93.5209559  12.2879675 107.7506780  92.5656133  11.1657122 107.4046433
  90.9010774   5.9833307  86.0320962  89.9942230   5.6866419  86.1083676
  91.1786755   5.6863125  85.1655248  81.8188715   7.3039670  96.4820008
  81.4991499   6.4504978  96.1894382  81.2722143   7.5188248  97.2377976
  85.5968622  10.0202111 100.1989515  85.8154632  10.9519219 100.2177549
  86.0094396   9.6610085 100.9844319  90.4696487   5.5935317 109.5892264
  90.3693214   6.5429674 109.5204355  90.2518030   5.2653556 108.7168334
  81.6876975  10.9242581  98.4513130  80.9940446  10.5096534  97.9383084
  82.4349966  10.9663118  97.8546549  90.3327758   9.0232456 108.4057325
  89.8494839   9.8232816 108.6121214  90.4188697   9.0340400 107.4524769
  83.6013717  10.8560835  96.3279145  83.5784405  10.9548523  95.3761028
  83.9114354  11.7025986  96.6496311  86.2601095  12.9136990 100.4425759
  87.2144349  12.8820933 100.3755691  86.0613619  12.4527614 101.2575985
  86.8500477  11.4838106 103.0096557  87.6693366  11.9782185 103.0331394
  87.1237285  10.5670074 102.9814124  84.6151324  18.4556610  97.4595957
  84.4805792  17.6957011  96.8933955  84.1983386  19.1797510  96.9924746
  95.7510287  13.6393533  86.4672532  96.4546137  13.8443536  87.0830188
  95.0272936  14.2070295  86.7321616  96.5808097   9.3903395  92.5874803
  96.5243298   9.8471946  91.7482435  97.1336440   8.6294079  92.4097645
  87.7720450  19.3525927  97.6714400  87.6552834  20.2971359  97.5693090
  86.9512896  19.0499488  98.0600199  97.6596984  14.0776063  88.5170992
  98.4942588  13.6457261  88.3348467  97.4981327  13.9058076  89.4447887
  97.3142876  10.5808176  89.8827332  97.2591680  10.4152447  88.9415776
  96.6888932  11.2884209  90.0389521  82.1035391   5.8176240 103.7088754
  82.7494255   5.3075194 104.1975979  81.8952542   6.5544922 104.2832179
  94.6288784  12.8857088 109.2080894  95.4979943  13.0597740 108.8467529
  94.1495535  13.7051505 109.0856624  88.7974964  20.0054189 100.8870328
  89.7002211  20.0377799 101.2036823  88.5712334  19.0754640 100.9016664
  90.5528566  18.7585175  97.5480407  89.6024197  18.7587037  97.4344779
  90.8561052  18.0117910  97.0316441  86.4432882   2.9643857 107.8063768
  87.3064344   2.6080662 108.0167093  85.8698293   2.6257752 108.4939172
 106.2881259  24.5945714  98.6126169 106.9259669  24.4752461  97.9089509
 106.1702102  25.5426558  98.6714121 103.0970966  24.5473142  98.5487694
 102.7589477  24.4314206  97.6608229 103.9660734  24.1464307  98.5288700
  98.9557781  26.4008618  94.5384585  98.3922646  26.3098555  93.7700873
  98.8410176  25.5808523  95.0187077 103.5790749  25.7007993 104.5073899
 103.5679389  25.3060792 103.6354403 103.7411388  24.9674066 105.1007671
  96.5022213  27.8959810  97.3768805  97.2943505  27.5550634  96.9615105
  96.7418863  28.0054785  98.2970959 104.5357340  30.0679586  89.8499050
 103.8845320  30.6533666  89.4633064 105.3301703  30.5985781  89.9094087
  98.4612967  27.1568723  90.2486184  99.2343843  26.6097710  90.1099060
  98.8138366  28.0212972  90.4600645 100.2998010  28.4845105 103.4553083
 100.0087876  29.3890736 103.3399750 100.9354994  28.5261633 104.1697153
 101.2254217  25.8621954 100.0454443 101.8217789  25.6377976  99.3311406
 101.2829188  25.1206699 100.6479891 100.7979245  23.3161389  87.8804634
 101.0504766  22.7942910  87.1188097  99.8603804  23.1527535  87.9831318
 105.8422528  22.3197167  95.6879377 106.6285617  21.9016591  95.3369794
 106.1061232  23.2243260  95.8561026 106.0132605  27.7570018  90.3868034
 105.3778438  27.8304644  91.0988939 105.6830012  28.3463617  89.7087113
 111.2430955  22.2572401  96.5912356 111.9756127  21.6871618  96.8250185
 110.4870311  21.8694001  97.0318861 100.5175534  25.2189495  90.0829009
 100.4011792  24.5434398  90.7510093 100.6277794  24.7321869  89.2661162
 102.8607075  24.6799642  93.7875698 102.4965282  24.1530263  94.4988620
 103.7174191  24.2898111  93.6142184 108.7656375  15.9693975 101.0506964
 108.4339700  16.8389386 100.8268179 108.1701989  15.6530259 101.7300995
 102.5012562  19.7089542  88.7837047 102.6686964  20.5769778  89.1507518
 102.3109731  19.8716824  87.8598336 105.2587895  28.1706521 100.4502877
 104.9588618  29.0731560 100.3418684 104.9138954  27.9038704 101.3024030
  98.7100376  24.6220318  96.4839581  97.7850873  24.4896532  96.6917273
  98.9584789  25.4014537  96.9809524 108.6585039  20.6889061  98.1300314
 107.7501916  20.6204469  97.8359075 108.6072634  21.1661006  98.9582140
 102.4801782  22.1647199  89.7683714 102.3601408  22.6104250  90.6069194
 101.7854371  22.5132517  89.2097252  96.0709187  24.2653591  97.3183371
  96.2001568  24.5188070  98.2322782  95.3906639  24.8581299  96.9988026
 100.2408675  34.9350841  93.4173845 100.1632704  35.8858666  93.4962325
  99.6370318  34.5896714  94.0748771 102.7325904  22.1078707 106.0735212
 101.9559238  22.6672627 106.0638076 103.3716467  22.5935490 106.5950082
 110.5246685  18.8905499  99.9078188 109.8821065  19.1838033  99.2617983
 110.0201614  18.7758420 100.7131385 108.1786849  22.6368673  90.5964048
 109.0904705  22.8696059  90.4211745 107.6696496  23.2205717  90.0339126
 100.9872277  24.9164160 105.6353179 101.7286961  25.4549204 105.3588002
 100.2809262  25.5430449 105.7924730 106.4627616  27.0593300 104.2325340
 106.8710972  26.6175711 103.4879973 105.7404878  26.4845928 104.4859533
 102.8158686  21.9965907 101.6058897 103.6619882  22.4205321 101.7493546
 102.7557324  21.3399531 102.2997460 106.7856431  27.6194491  97.9877629
 106.1565293  27.7840205  97.2853697 106.3982093  28.0336101  98.7588593
 110.6645663  28.5548929  95.3421993 109.9796701  28.9347830  94.7919026
 110.7489512  29.1644256  96.0753941 105.9658132  19.6570276 103.2640071
 105.7219064  20.4112336 102.7274346 106.2418062  20.0355623 104.0987318
 107.9196594  26.2008888 101.9417336 108.1313490  26.8440648 101.2651717
 107.8726343  25.3671204 101.4739266 105.5222823  18.8126709  98.8453908
 104.6607302  19.1107962  99.1370646 105.5485258  19.0297107  97.9134941
 102.3384393  27.3568899  95.2527714 102.8022738  27.6356602  94.4632337
 102.0741191  26.4552344  95.0700805  99.2308474  26.9040381  98.1907477
  99.8009831  27.3327649  97.5524962  99.8216586  26.6222965  98.8891663
 101.2753279  23.4792051  92.0617279 101.9777322  23.9313095  92.5291206
 100.9433907  22.8375870  92.6897172  99.7233640  22.0703808 106.4368489
  99.0932301  22.7520089 106.6703885  99.6169728  21.9586890 105.4921627
  95.0178613  21.7375604  97.3634413  94.2277667  21.9933133  96.8874523
  95.5089860  22.5523942  97.4686453 109.0342422  29.0780843 100.1139694
 109.8559866  28.6761031  99.8322375 109.0304825  28.9749077 101.0655809
  96.9693358  22.1020183  94.3217890  96.1724522  22.2138878  94.8401385
  96.7418950  22.4406836  93.4558780 102.7999026  28.6264887 102.2700404
 102.8643458  29.0885294 103.1058576 102.0909950  27.9962252 102.3982714
  93.3016316  21.9906095  99.7949404  93.5524354  22.8753105 100.0606980
  93.8375864  21.8110696  99.0224495 117.1248415  25.4219592  96.4624665
 116.3712124  24.8526990  96.3068670 117.2595957  25.3882256  97.4095300
 102.5147044  30.2932994  92.1379384 102.3792718  31.1384530  92.5664232
 103.0556856  30.4952272  91.3745318  99.0014383  16.3724574 108.7993740
  98.6081329  15.8190773 109.4741384  99.8180523  16.6835152 109.1900257
  95.9676441  27.8108432  92.7107310  96.4800961  28.6051682  92.8612874
  96.6199154  27.1134723  92.6440911  97.7771326  30.9274188  94.7930063
  97.9537954  31.8492153  94.6051047  98.5728159  30.6132608  95.2224443
 101.9182344  17.7882453 106.3913996 102.6592058  18.3889606 106.3118459
 102.1500267  17.0460091 105.8332039  97.0623682  22.9738820 104.6692226
  96.9477197  22.0724078 104.9699325  96.2068200  23.2202517 104.3177042
 104.1415520  30.9156561 106.2679727 103.6979374  30.1292939 105.9500631
 104.8032733  31.1035711 105.6023617  98.9002641  32.4452362 100.7940405
  99.4510066  32.3169426 100.0217399  98.0614117  32.7447251 100.4435298
 106.2396758  31.1959361 104.2961128 106.2215233  32.0168242 103.8041397
 107.1616678  31.0713436 104.5211269 102.6969812  28.7103490 105.1384636
 103.2298149  27.9491778 104.9083944 102.1683893  28.4177142 105.8808791
 105.8639507  13.8163556 100.6678278 105.5203776  14.7065198 100.5917389
 106.2318470  13.6265214  99.8047863  93.9325358  26.1397086  93.4866880
  94.7700580  26.5494095  93.2700588  94.1103625  25.1996529  93.4567074
 105.8289790  23.8072167  89.1750713 105.3136413  24.5776772  89.4139100
 105.5567098  23.1337303  89.7983775 103.4136901  18.6521868  94.2335951
 102.5578497  18.2628718  94.0541590 103.8263853  18.7313829  93.3735737
 104.9436047  16.1868211  98.6327511 104.4400843  16.1498346  97.8195316
 105.2366654  17.0960954  98.6924168 101.1878933  16.2706941  97.6393693
 102.0531930  16.0749750  97.2799582 101.2556442  16.0417293  98.5663050
 110.8024064  26.5604522  91.1103887 110.0253507  26.2215681  90.6659049
 111.4815545  26.5657145  90.4358852 105.6176093  21.6799259  91.0010494
 105.3126229  21.9945408  91.8520637 106.5706535  21.7580679  91.0437827
 104.0622525  27.8389483  92.6503448 103.5343886  27.1042242  92.3376686
 103.5610028  28.6164159  92.4043417 109.0415371  26.0338503  97.7670495
 108.3839045  26.7237764  97.8550623 109.8455770  26.4234935  98.1104481
  98.7941252  18.5009149  95.0110060  99.3685004  18.2784330  94.2783253
  99.3812235  18.5697843  95.7638661 107.8520830  24.3882876  95.8174436
 108.3652711  25.0212868  96.3196146 108.5022054  23.7884071  95.4517796
  99.1210840  20.5313610  89.0305945  98.2848152  20.8688296  89.3515220
  98.9815609  20.3962590  88.0933082 101.0963920  15.3750398  93.7385129
 100.4428332  15.0599415  93.1141744 101.0544394  14.7526138  94.4644952
 102.2075125  25.6569693  85.6538421 101.3002187  25.4258946  85.8529570
 102.7046157  24.8607312  85.8412403 105.1143204  34.3667200  88.5735107
 104.4404903  34.6698897  89.1820065 105.5009026  35.1696280  88.2240564
 104.3301660  21.8632331  98.0632777 103.4124222  22.0847278  97.9054465
 104.7461804  21.9378642  97.2044484 105.1136708  23.2623747  93.1935457
 105.8608527  23.7745144  92.8842579 105.3828298  22.9407800  94.0539851
 103.3863358  25.7582288  90.1762411 102.4774578  25.4741320  90.2734881
 103.4158442  26.1781366  89.3165718 108.6182626  29.3688877  93.9453579
 108.1644953  28.5279787  94.0018769 107.9876593  30.0050276  94.2828359
 107.5615545  20.2980863  95.1754246 106.8238302  19.7858249  95.5064489
 107.8142319  19.8581245  94.3637523 107.0615565  31.2065374  94.8803397
 107.3538539  31.7670431  94.1615763 107.5714186  31.4993935  95.6356556
 107.6627173  13.0757115  95.7696016 107.9686050  12.2154479  95.4821931
 108.3879778  13.6674735  95.5695010  93.9551529  23.4787802  94.1577614
  93.7575929  22.8857162  93.4328680  93.3998193  23.1740012  94.8753552
 101.9348252  23.3710908  96.2772207 101.9896862  22.4184745  96.2014683
 101.1239455  23.5270347  96.7613505 103.0839446  27.2991031  87.5150490
 102.6458876  26.5826890  87.0556127 103.8249887  27.5267146  86.9535581
  99.8740612  21.9887968  94.0362586  99.0608478  22.2882139  94.4427778
 100.3699607  21.5943657  94.7537068 102.0249190  31.9845725  95.9696850
 101.9825369  32.2106571  95.0405382 102.9411889  31.7509100  96.1182651
 105.4714824  22.4529792 102.8677479 105.8264212  22.6801266 103.7271945
 106.1186955  22.7848169 102.2454735 111.2012561  25.5748228  93.5726808
 111.0630460  25.7649824  92.6447998 110.8448780  26.3367611  94.0294860
  99.3654687  19.5606324  99.6523821 100.0054066  19.4195083  98.9546784
  98.5332218  19.2740837  99.2762423 111.2281941  27.6424755  98.5838080
 111.6618447  27.5500044  99.4321134 111.9413521  27.6182256  97.9458096
 100.1414991  28.8608754  95.7658813 100.9355590  28.3659074  95.5641388
  99.4306683  28.3326617  95.4026519 104.9609836  31.2426849 100.1171181
 105.0146858  31.8117786 100.8848896 104.0924617  31.4128734  99.7525218
  96.4497755  23.0051836  91.8418566  95.5195343  22.9436291  92.0588528
  96.5455227  22.4827788  91.0455207  96.3683304  19.5306648  94.4296807
  96.6290121  20.4451982  94.3205968  97.1900476  19.0631091  94.5793420
  97.8408229  20.9444406 101.5995632  98.5131282  20.7361768 100.9508281
  97.0138015  20.7466492 101.1600864 112.0897490  27.6848456 101.1170965
 112.2833380  28.5894267 101.3630240 111.9898108  27.2255875 101.9509550
 103.7433801  17.5706347 103.6161293 103.0961716  18.2696296 103.5225769
 104.5134816  18.0042491 103.9837541 107.1512599  27.8355199 106.6911846
 106.9998105  27.6065750 105.7741930 107.1417278  28.7925800 106.7043191
 103.9197935  25.4087111 101.6758112 104.8489995  25.5598271 101.5027080
 103.4988965  25.4971132 100.8206759 102.7186267  29.4337776  99.4456650
 102.5797353  29.0656560 100.3182588 101.9300863  29.9485415  99.2740608
 103.3134419  34.5346872  90.7882187 103.4886175  34.0634916  91.6027809
 102.6267207  35.1612639  91.0163447 104.2691482  28.8119379  96.8345488
 103.9341315  28.7720149  97.7303138 103.7695428  28.1464095  96.3615898
  98.2435726  24.2187009 102.3598069  98.1055524  23.4867247 102.9609608
  99.1540650  24.1295909 102.0782257 107.2050674  26.1575413  87.1082548
 106.5879844  25.4322241  87.0115600 106.7367162  26.9184773  86.7649622
 100.8718027  23.9306968 101.8481749 101.5817645  23.2900160 101.8068367
 100.8287335  24.1819863 102.7707929 108.8604806  30.8674321 104.7688328
 108.8017352  30.1833541 104.1018911 109.2624324  31.6093311 104.3168954
  99.5846961  20.9172186 103.6677388  99.0484318  20.4662924 104.3198984
  98.9963669  21.0518095 102.9247852  97.8795504  37.6836235  97.5622047
  98.1192103  38.3154759  98.2401065  97.0364701  37.3324275  97.8487406
  98.9949220  20.3760837  86.2303852  98.1178686  20.2549638  85.8666098
  99.4706973  19.5846916  85.9782740 108.8622213  28.8313905 103.0002308
 107.9748992  28.4939827 103.1228706 109.4320764  28.0996936 103.2371073
  90.5151360  25.1637997  96.3245359  91.2022400  24.8499727  95.7366374
  90.3599489  26.0679362  96.0512610  95.3186082  20.0528194 100.7530383
  95.2344271  19.4453863 100.0180793  94.4968788  20.5437212 100.7539879
 102.3923366  33.4915358  99.9663551 102.3193538  34.2970329 100.4782855
 101.9500759  33.6907323  99.1411572 102.1813146  32.7287128  93.4766372
 101.3980668  33.2708808  93.5704597 102.8805891  33.2461107  93.8760613
 105.4909796  18.5381757  96.1200578 105.9878495  17.7851719  95.8001648
 104.7196777  18.5746074  95.5543787 113.3439553  24.2422123  97.7618869
 113.3329430  25.1246838  97.3912802 112.4756933  23.8893673  97.5673406
 104.8522050  33.3902192 102.1221709 105.5650022  34.0249656 102.0497611
 104.3612078  33.4866058 101.3061711 106.5739577  27.2953444  93.6939001
 105.6395855  27.4154907  93.5243705 106.7516245  26.3925911  93.4299011
 102.0744765  20.6799140  95.8472262 101.7042552  20.1270180  96.5353168
 102.5703857  20.0757274  95.2947262 109.9612128  23.1370764  94.2289035
 110.4272580  23.9698755  94.1549338 110.4119628  22.6715745  94.9334294
  99.9033963  31.1396635 102.9427280 100.6043423  31.7733118 103.0956674
  99.4329078  31.4811367 102.1822919 108.0288359  29.4814585  91.2275187
 108.3048203  29.3671179  92.1369061 107.1592858  29.0832070  91.1887360
 107.9328791  15.5051351  98.2679937 107.0191870  15.7355577  98.4362143
 108.3621892  15.5889795  99.1193969 107.7035249  23.6941243 100.7679831
 107.0506699  23.9417150 100.1132283 108.0815629  22.8805381 100.4342308
 104.6642423  33.7300936  94.8708001 104.8464818  32.9122592  95.3335753
 105.4875409  33.9468628  94.4332891 104.9984589  32.6569121  92.1323049
 105.5272355  32.1461575  91.5193211 105.2612808  32.3411651  92.9968582
 103.7522822  24.4361054 107.2545868 103.0763459  24.3355183 107.9248243
 104.5750456  24.2800267 107.7181865  95.5001681  30.6732990  99.8758383
  96.0855118  29.9276678 100.0086287  95.3026520  30.9836947 100.7595047
  98.3540337  33.7084238  94.8920825  97.6850712  34.1930365  94.4084865
  98.2153206  33.9553458  95.8064204  90.0919336  23.2438590  98.5962826
  90.1303436  22.7102181  99.3899944  89.5859629  22.7173796  97.9773803
 102.4945605  35.7427981 101.4903484 103.0463913  35.9059603 102.2552569
 102.8351799  36.3332419 100.8183509  97.4710098  18.0903131 102.0925368
  97.5351425  18.9517962 101.6802766  97.4077219  17.4777132 101.3597727
  96.9462371  20.1626263 105.7398403  97.5734410  19.7803341 106.3535927
  96.0890290  19.9440465 106.1054095 107.3456479  30.5689239 107.3452138
 107.8896383  31.1819197 106.8507093 106.7643324  31.1268817 107.8619151
  93.7227914  21.9702692  91.6716757  94.0181355  21.0613371  91.6183811
  92.8215949  21.9490432  91.3497760 105.6313992  33.6909957  98.4767166
 105.5065132  32.8899696  97.9678111 106.2893083  34.1856150  97.9881136
  97.2522161  20.0458689  97.6544306  96.5308746  20.6594657  97.5151779
  98.0415416  20.5816454  97.5760952 107.6948901  31.4918977 100.1046716
 106.7479236  31.3724328 100.0325043 108.0431674  30.6041475 100.1872977
 100.0548474  17.3813116 103.9284958 100.5782876  17.6275412 104.6911267
  99.8360807  18.2133150 103.5088095  95.4515755  19.6516790  91.7956083
  95.1228461  18.7714169  91.6131189  95.8055126  19.5964459  92.6832472
 104.6995334  31.2871693  96.3051068 104.5520296  30.3588400  96.4858638
 105.5248828  31.3091784  95.8208143  98.5657578  19.9389760  92.1631560
  98.9053651  20.4675681  91.4410169  99.0129699  20.2770166  92.9390127
 108.3029456  32.1100252  97.3915941 109.2276003  31.9043113  97.2540392
 108.1344759  31.8616653  98.3005282 101.2601019  18.3226811 101.6134628
 100.9197840  17.5234624 102.0155308 100.5540025  18.6228522 101.0411462
 101.9117491  15.4076123 100.0661951 102.7343560  14.9336601  99.9440842
 102.1555555  16.1866607 100.5660638 100.5525725  18.4364382  90.3624853
 101.2734088  18.8145634  89.8588570  99.9291030  19.1553258  90.4659831
 104.6956848  19.1409531  91.2983185 104.9120463  20.0234168  90.9972014
 104.2150916  18.7495744  90.5688827  99.4356070  22.0995244  97.8753930
  99.2900650  22.4135547  98.7678211  98.9581273  22.7180144  97.3224829
 101.2952453  19.0897792  97.9234820 101.2814021  18.1938885  97.5867117
 102.0124881  19.0968455  98.5573106 103.1478583  19.5235132  99.9687947
 102.8896361  20.4452203  99.9672277 102.6163624  19.1265566 100.6588411
 108.0924772  32.6285919  92.7478032 108.2661650  32.0632342  91.9951885
 108.5853663  33.4286814  92.5657522  93.9101732  24.6400588 100.8141591
  93.3655200  25.4160396 100.9461865  94.7881082  24.9871393 100.6560713
 100.6989349  17.9712172  93.1922390 100.8205260  17.0428818  93.3913277
 100.4091391  17.9850858  92.2800705 103.5680539  15.6567082  96.3289109
 103.5902236  15.7206416  95.3741089 103.9848598  14.8171591  96.5229616
 113.9464163  25.3922342  94.3668332 114.3895309  24.6429667  93.9687455
 113.0690674  25.3832478  93.9842064 109.0799945  31.9452683  89.8474931
 109.7750849  32.5659376  90.0662245 109.4223095  31.0948035  90.1227309
  94.6967754  23.7670484 103.7071748  93.9549490  23.9153120 104.2936378
  94.3760498  24.0278750 102.8438497 110.9791368  29.3952389  91.3762261
 111.5042692  29.7339662  90.6511581 110.8913720  28.4599404  91.1925396
 102.6411416  33.3086463 103.5052138 102.9498543  33.0635609 104.3774838
 103.4386898  33.5133101 103.0171008 102.6632028  35.4624372  95.7357515
 102.2237019  34.9700751  96.4290371 103.4140145  34.9197340  95.4949590
  95.1424367  31.6535913  95.7382143  95.9682387  31.3539685  95.3580786
  94.7918419  30.8843536  96.1871931 100.1105901  31.0062381  97.8079816
  99.4885910  30.3433086  97.5082044 100.7810768  31.0323513  97.1253464
  93.3432973  29.5722240  96.6971076  92.5064881  29.1444414  96.5155077
  93.3156618  29.7654683  97.6341867 100.1830428  19.4844169 107.4012322
 100.2318584  20.3606292 107.0190092 100.7252942  18.9421562 106.8283965
 110.6685274  30.0285293 106.6813459 109.8780817  30.0109431 106.1417959
 110.4318628  30.5673586 107.4362496 110.7883149  26.8777759 103.9946188
 110.8381154  26.7127766 104.9361711 110.6797072  26.0105018 103.6044069
  99.6719408  29.5566305  91.2838277  99.8207528  30.2401769  90.6304950
 100.4785851  29.5371395  91.7987733 108.0786911  22.8608687 105.3105495
 108.9796774  22.7215152 105.0189492 108.1534886  23.0263142 106.2503672
 102.4129717  20.2375542 104.1558681 101.5433026  20.5309108 103.8841269
 102.6489197  20.8215987 104.8765945 112.2901346  29.2974701 104.2388209
 111.9986154  29.6604681 105.0751670 111.6773477  28.5841709 104.0601541
 113.4897028  26.8627580  96.7590780 114.3243919  27.3017384  96.9228340
 113.6256157  26.3866234  95.9399025 110.5388534  24.4207315 102.7068267
 111.0142656  24.6134961 101.8987119 109.6154099  24.4766501 102.4611651
  97.4272041  25.5831482  92.2899346  97.1818082  24.6793812  92.4879556
  97.5967955  25.5848633  91.3478824 105.1168750  16.4555159 101.6724101
 105.6350694  17.1916186 101.3470590 104.7623883  16.7619152 102.5070860
  96.6967688  21.3159840  89.7885507  96.0036933  21.3904195  89.1325543
  96.4519440  20.5520184  90.3107024 105.3681345  12.8755441  97.1924998
 105.6483098  12.2078630  97.8185424 106.1531951  13.0684537  96.6799662
 103.1714813  32.0514435  88.7550024 102.5988780  32.6704622  88.3020496
 103.7447607  32.6013797  89.2889946 109.2390203  21.2973075 100.9396573
 110.1907626  21.3971173 100.9608797 109.0693653  20.5051344 101.4494657
 107.2604582  18.3828658 101.1255974 106.6654514  18.6633671 100.4302463
 106.9754279  18.8722559 101.8972715 106.3912073  32.3351585  89.8858606
 107.3242746  32.2697147  90.0891482 106.3035286  33.1707852  89.4273139
 109.0200090  31.6517456  86.8462554 108.9413721  31.3177319  87.7398312
 109.8409756  32.1439224  86.8454026 111.7178281  24.5179195 100.0538873
 111.6854601  23.5795196 100.2398556 112.3278904  24.5963232  99.3204698
 103.5561612  23.3875248  86.0966077 104.5020716  23.2581456  86.1654495
 103.1775857  22.6489910  86.5735505 111.8672769  21.3090238 100.0997156
 111.3511818  20.5248695  99.9127085 112.7512718  20.9808955 100.2643675
 109.5283496  15.0531254  96.0592969 109.3308317  14.7446342  96.9436300
 110.1383202  15.7792893  96.1890898 117.5354831  25.5795202  99.1944909
 118.2658219  25.3180490  99.7552613 116.9261776  24.8423924  99.2346977
 115.6170128  23.7203064  99.7919361 114.8903291  23.5859029  99.1835852
 115.2017415  24.0279893 100.5976079 103.4400304  27.4392994 107.5566734
 104.3603314  27.6171593 107.7506780 103.4049887  26.4949039 107.4046433
 101.7404529  21.3125224  86.0320962 100.8335984  21.0158337  86.1083676
 102.0180510  21.0155042  85.1655248  92.6582469  22.6331588  96.4820008
  92.3385253  21.7796896  96.1894382  92.1115897  22.8480166  97.2377976
  96.4362377  25.3494029 100.1989515  96.6548386  26.2811136 100.2177549
  96.8488150  24.9902003 100.9844319 103.3566594  15.8562114  92.1865203
 102.5467323  15.5109199  92.5620449 104.0451011  15.5469658  92.7752815
 105.2857143  14.9340161  93.8089500 105.8388181  15.3535614  94.4679523
 105.5227229  14.0075909  93.8512456 101.3090242  20.9227234 109.5892264
 101.2086969  21.8721591 109.5204355 101.0911784  20.5945473 108.7168334
 100.5103313  18.1712160  86.1732941 101.3722477  18.4967058  86.4328758
 100.6953657  17.3843655  85.6606007  92.5270729  26.2534499  98.4513130
  91.8334201  25.8388452  97.9383084  93.2743720  26.2955036  97.8546549
 108.6635950  17.0440686  93.3168164 108.0834619  17.7025490  92.9346217
 108.3971882  16.2218031  92.9055582 107.1139516  16.4445744  95.5189484
 107.6139295  16.5562278  94.7103803 107.7575124  16.1406797  96.1590293
 101.1721512  24.3524373 108.4057325 100.6888594  25.1524733 108.6121214
 101.2582451  24.3632318 107.4524769  94.4407472  26.1852753  96.3279145
  94.4178160  26.2840440  95.3761028  94.7508108  27.0317904  96.6496311
  97.0994849  28.2428908 100.4425759  98.0538103  28.2112850 100.3755691
  96.9007373  27.7819532 101.2575985  97.6894232  26.8130024 103.0096557
  98.5087121  27.3074103 103.0331394  97.9631039  25.8961992 102.9814124
 107.4460828  19.2040776  92.3724512 106.5586683  19.4890427  92.1544707
 107.8614817  19.0434540  91.5251789 110.7975364  19.2287297  96.0878852
 111.5735754  19.7183750  96.3603468 110.0723498  19.6545352  96.5450721
 113.2347923  19.9414917  97.1452792 113.8292413  19.7010653  96.4346100
 113.3074506  19.2222047  97.7726329  95.4545078  33.7848527  97.4595957
  95.3199546  33.0248928  96.8933955  95.0377141  34.5089427  96.9924746
 106.5904041  28.9685451  86.4672532 107.2939891  29.1735454  87.0830188
 105.8666690  29.5362213  86.7321616 107.4201852  24.7195312  92.5874803
 107.3637053  25.1763864  91.7482435 107.9730194  23.9585997  92.4097645
 111.2306657  20.5085044  93.4124922 110.9743592  20.1081680  94.2433130
 110.6059526  21.2228838  93.2875061 115.5418995  23.2481117  95.9196213
 114.9818553  23.3174307  96.6927775 114.9362499  23.0722102  95.1995710
  98.6114204  34.6817845  97.6714400  98.4946588  35.6263277  97.5693090
  97.7906650  34.3791406  98.0600199 108.4990739  29.4067980  88.5170992
 109.3336343  28.9749179  88.3348467 108.3375082  29.2349994  89.4447887
 108.1536631  25.9100094  89.8827332 108.0985435  25.7444365  88.9415776
 107.5282686  26.6176126  90.0389521  92.9429146  21.1468158 103.7088754
  93.5888009  20.6367112 104.1975979  92.7346297  21.8836840 104.2832179
 105.4682538  28.2149005 109.2080894 106.3373698  28.3889658 108.8467529
 104.9889290  29.0343422 109.0856624 101.4632756  15.4108203  89.4612650
 101.4511426  16.3550042  89.6180921 102.3556178  15.2278348  89.1672111
  99.6368718  35.3346106 100.8870328 100.5395965  35.3669717 101.2036823
  99.4106088  34.4046557 100.9016664 101.3922320  34.0877093  97.5480407
 100.4417951  34.0878955  97.4344779 101.6954806  33.3409828  97.0316441
 105.2784876  12.0050979  93.7158587 104.5117272  11.4509466  93.8615269
 105.6895581  12.0772848  94.5772739  97.2826637  18.2935775 107.8063768
  98.1458098  17.9372580 108.0167093  96.7092048  17.9549670 108.4939172
 117.1275014  39.9237631  98.6126169 117.7653424  39.8044379  97.9089509
 117.0095857  40.8718475  98.6714121 113.9364720  39.8765059  98.5487694
 113.5983232  39.7606124  97.6608229 114.8054488  39.4756225  98.5288700
 109.7951536  41.7300536  94.5384585 109.2316401  41.6390473  93.7700873
 109.6803931  40.9100440  95.0187077 114.4184503  41.0299911 104.5073899
 114.4073144  40.6352709 103.6354403 114.5805143  40.2965984 105.1007671
 107.3415968  43.2251727  97.3768805 108.1337260  42.8842552  96.9615105
 107.5812618  43.3346702  98.2970959 115.3751094  45.3971504  89.8499050
 114.7239074  45.9825584  89.4633064 116.1695457  45.9277698  89.9094087
 109.3006722  42.4860641  90.2486184 110.0737598  41.9389628  90.1099060
 109.6532121  43.3504890  90.4600645 111.1391764  43.8137023 103.4553083
 110.8481630  44.7182654 103.3399750 111.7748749  43.8553551 104.1697153
 112.0647971  41.1913871 100.0454443 112.6611543  40.9669894  99.3311406
 112.1222943  40.4498617 100.6479891 111.6372999  38.6453307  87.8804634
 111.8898520  38.1234828  87.1188097 110.6997559  38.4819452  87.9831318
 116.6816282  37.6489085  95.6879377 117.4679372  37.2308508  95.3369794
 116.9454987  38.5535177  95.8561026 116.8526360  43.0861935  90.3868034
 116.2172193  43.1596562  91.0988939 116.5223766  43.6755534  89.7087113
 122.0824709  37.5864318  96.5912356 122.8149881  37.0163535  96.8250185
 121.3264065  37.1985919  97.0318861 111.3569288  40.5481413  90.0829009
 111.2405546  39.8726316  90.7510093 111.4671548  40.0613787  89.2661162
 113.7000829  40.0091560  93.7875698 113.3359036  39.4822181  94.4988620
 114.5567945  39.6190029  93.6142184 119.6050130  31.2985892 101.0506964
 119.2733455  32.1681303 100.8268179 119.0095743  30.9822176 101.7300995
 113.3406316  35.0381460  88.7837047 113.5080718  35.9061696  89.1507518
 113.1503485  35.2008741  87.8598336 116.0981649  43.4998438 100.4502877
 115.7982372  44.4023477 100.3418684 115.7532709  43.2330622 101.3024030
 109.5494131  39.9512235  96.4839581 108.6244627  39.8188449  96.6917273
 109.7978544  40.7306455  96.9809524 119.4978793  36.0180979  98.1300314
 118.5895670  35.9496387  97.8359075 119.4466389  36.4952924  98.9582140
 113.3195537  37.4939117  89.7683714 113.1995162  37.9396168  90.6069194
 112.6248125  37.8424435  89.2097252 106.9102942  39.5945509  97.3183371
 107.0395323  39.8479988  98.2322782 106.2300393  40.1873217  96.9988026
 111.0802429  50.2642759  93.4173845 111.0026459  51.2150584  93.4962325
 110.4764073  49.9188631  94.0748771 113.5719659  37.4370624 106.0735212
 112.7952993  37.9964544 106.0638076 114.2110222  37.9227407 106.5950082
 121.3640439  34.2197417  99.9078188 120.7214820  34.5129950  99.2617983
 120.8595368  34.1050337 100.7131385 119.0180603  37.9660590  90.5964048
 119.9298459  38.1987977  90.4211745 118.5090250  38.5497634  90.0339126
 111.8266031  40.2456078 105.6353179 112.5680716  40.7841122 105.3588002
 111.1203017  40.8722366 105.7924730 117.3021371  42.3885218 104.2325340
 117.7104727  41.9467629 103.4879973 116.5798632  41.8137846 104.4859533
 113.6552441  37.3257825 101.6058897 114.5013636  37.7497238 101.7493546
 113.5951079  36.6691449 102.2997460 117.6250185  42.9486409  97.9877629
 116.9959048  43.1132123  97.2853697 117.2375848  43.3628018  98.7588593
 121.5039417  43.8840847  95.3421993 120.8190455  44.2639748  94.7919026
 121.5883267  44.4936173  96.0753941 116.8051886  34.9862193 103.2640071
 116.5612818  35.7404254 102.7274346 117.0811817  35.3647541 104.0987318
 118.7590349  41.5300806 101.9417336 118.9707244  42.1732565 101.2651717
 118.7120097  40.6963122 101.4739266 116.3616578  34.1418626  98.8453908
 115.5001057  34.4399880  99.1370646 116.3879013  34.3589025  97.9134941
 113.1778147  42.6860817  95.2527714 113.6416493  42.9648520  94.4632337
 112.9134945  41.7844261  95.0700805 110.0702228  42.2332298  98.1907477
 110.6403585  42.6619567  97.5524962 110.6610340  41.9514883  98.8891663
 112.1147033  38.8083969  92.0617279 112.8171077  39.2605013  92.5291206
 111.7827662  38.1667788  92.6897172 110.5627395  37.3995726 106.4368489
 109.9326055  38.0812007 106.6703885 110.4563483  37.2878807 105.4921627
 105.8572367  37.0667522  97.3634413 105.0671421  37.3225050  96.8874523
 106.3483615  37.8815860  97.4686453 119.8736177  44.4072761 100.1139694
 120.6953621  44.0052948  99.8322375 119.8698580  44.3040995 101.0655809
 107.8087113  37.4312101  94.3217890 107.0118276  37.5430795  94.8401385
 107.5812705  37.7698753  93.4558780 113.6392780  43.9556804 102.2700404
 113.7037213  44.4177212 103.1058576 112.9303704  43.3254169 102.3982714
 104.1410070  37.3198012  99.7949404 104.3918109  38.2045022 100.0606980
 104.6769619  37.1402614  99.0224495 127.9642170  40.7511509  96.4624665
 127.2105878  40.1818908  96.3068670 128.0989711  40.7174174  97.4095300
 113.3540798  45.6224912  92.1379384 113.2186473  46.4676448  92.5664232
 113.8950611  45.8244189  91.3745318 109.8408138  31.7016492 108.7993740
 109.4475083  31.1482690 109.4741384 110.6574278  32.0127070 109.1900257
 106.8070195  43.1400350  92.7107310 107.3194716  43.9343600  92.8612874
 107.4592908  42.4426640  92.6440911 108.6165080  46.2566106  94.7930063
 108.7931708  47.1784071  94.6051047 109.4121914  45.9424525  95.2224443
 112.7576099  33.1174371 106.3913996 113.4985812  33.7181524 106.3118459
 112.9894021  32.3752009 105.8332039 107.9017437  38.3030738 104.6692226
 107.7870952  37.4015995 104.9699325 107.0461954  38.5494435 104.3177042
 114.9809274  46.2448478 106.2679727 114.5373129  45.4584857 105.9500631
 115.6426488  46.4327629 105.6023617 109.7396396  47.7744280 100.7940405
 110.2903821  47.6461343 100.0217399 108.9007871  48.0739169 100.4435298
 117.0790512  46.5251278 104.2961128 117.0608988  47.3460159 103.8041397
 118.0010432  46.4005353 104.5211269 113.5363567  44.0395408 105.1384636
 114.0691903  43.2783696 104.9083944 113.0077648  43.7469060 105.8808791
 116.7033262  29.1455474 100.6678278 116.3597531  30.0357115 100.5917389
 117.0712224  28.9557131  99.8047863 104.7719112  41.4689004  93.4866880
 105.6094334  41.8786012  93.2700588 104.9497380  40.5288446  93.4567074
 116.6683544  39.1364085  89.1750713 116.1530168  39.9068689  89.4139100
 116.3960853  38.4629221  89.7983775 114.2530655  33.9813786  94.2335951
 113.3972252  33.5920636  94.0541590 114.6657607  34.0605746  93.3735737
 115.7829802  31.5160129  98.6327511 115.2794598  31.4790264  97.8195316
 116.0760409  32.4252872  98.6924168 112.0272688  31.5998859  97.6393693
 112.8925685  31.4041667  97.2799582 112.0950197  31.3709210  98.5663050
 121.6417818  41.8896439  91.1103887 120.8647261  41.5507599  90.6659049
 122.3209299  41.8949063  90.4358852 116.4569847  37.0091177  91.0010494
 116.1519983  37.3237326  91.8520637 117.4100290  37.0872597  91.0437827
 114.9016279  43.1681400  92.6503448 114.3737641  42.4334160  92.3376686
 114.4003782  43.9456077  92.4043417 119.8809125  41.3630421  97.7670495
 119.2232800  42.0529682  97.8550623 120.6849525  41.7526853  98.1104481
 109.6335007  33.8301066  95.0110060 110.2078759  33.6076248  94.2783253
 110.2205989  33.8989761  95.7638661 118.6914584  39.7174793  95.8174436
 119.2046466  40.3504785  96.3196146 119.3415808  39.1175989  95.4517796
 109.9604594  35.8605527  89.0305945 109.1241906  36.1980214  89.3515220
 109.8209364  35.7254507  88.0933082 111.9357675  30.7042315  93.7385129
 111.2822087  30.3891333  93.1141744 111.8938149  30.0818056  94.4644952
 113.0468879  40.9861610  85.6538421 112.1395941  40.7550864  85.8529570
 113.5439911  40.1899230  85.8412403 115.9536958  49.6959118  88.5735107
 115.2798657  49.9990814  89.1820065 116.3402780  50.4988198  88.2240564
 115.1695415  37.1924249  98.0632777 114.2517976  37.4139196  97.9054465
 115.5855559  37.2670559  97.2044484 115.9530463  38.5915665  93.1935457
 116.7002282  39.1037062  92.8842579 116.2222052  38.2699717  94.0539851
 114.2257113  41.0874205  90.1762411 113.3168332  40.8033238  90.2734881
 114.2552197  41.5073284  89.3165718 119.4576380  44.6980795  93.9453579
 119.0038707  43.8571705  94.0018769 118.8270347  45.3342193  94.2828359
 118.4009300  35.6272781  95.1754246 117.6632057  35.1150167  95.5064489
 118.6536073  35.1873162  94.3637523 117.9009320  46.5357292  94.8803397
 118.1932294  47.0962349  94.1615763 118.4107940  46.8285853  95.6356556
 118.5020927  28.4049033  95.7696016 118.8079804  27.5446396  95.4821931
 119.2273532  28.9966653  95.5695010 104.7945283  38.8079719  94.1577614
 104.5969683  38.2149080  93.4328680 104.2391947  38.5031930  94.8753552
 112.7742007  38.7002826  96.2772207 112.8290617  37.7476662  96.2014683
 111.9633209  38.8562265  96.7613505 113.9233201  42.6282949  87.5150490
 113.4852631  41.9118808  87.0556127 114.6643642  42.8559064  86.9535581
 110.7134367  37.3179886  94.0362586 109.9002232  37.6174056  94.4427778
 111.2093361  36.9235574  94.7537068 112.8642945  47.3137643  95.9696850
 112.8219124  47.5398489  95.0405382 113.7805644  47.0801017  96.1182651
 116.3108579  37.7821710 102.8677479 116.6657966  38.0093183 103.7271945
 116.9580710  38.1140087 102.2454735 122.0406316  40.9040146  93.5726808
 121.9024214  41.0941742  92.6447998 121.6842534  41.6659529  94.0294860
 110.2048442  34.8898241  99.6523821 110.8447821  34.7487000  98.9546784
 109.3725972  34.6032755  99.2762423 122.0675695  42.9716673  98.5838080
 122.5012202  42.8791962  99.4321134 122.7807276  42.9474173  97.9458096
 110.9808746  44.1900672  95.7658813 111.7749344  43.6950992  95.5641388
 110.2700438  43.6618535  95.4026519 115.8003590  46.5718767 100.1171181
 115.8540612  47.1409703 100.8848896 114.9318371  46.7420652  99.7525218
 107.2891509  38.3343753  91.8418566 106.3589097  38.2728209  92.0588528
 107.3848981  37.8119706  91.0455207 107.2077058  34.8598566  94.4296807
 107.4683875  35.7743899  94.3205968 108.0294230  34.3923009  94.5793420
 108.6801983  36.2736323 101.5995632 109.3525037  36.0653685 100.9508281
 107.8531770  36.0758409 101.1600864 122.9291245  43.0140374 101.1170965
 123.1227135  43.9186184 101.3630240 122.8291863  42.5547793 101.9509550
 114.5827555  32.8998264 103.6161293 113.9355470  33.5988214 103.5225769
 115.3528571  33.3334408 103.9837541 117.9906353  43.1647116 106.6911846
 117.8391860  42.9357668 105.7741930 117.9811033  44.1217718 106.7043191
 114.7591690  40.7379029 101.6758112 115.6883750  40.8890189 101.5027080
 114.3382720  40.8263050 100.8206759 113.5580022  44.7629694  99.4456650
 113.4191107  44.3948478 100.3182588 112.7694618  45.2777333  99.2740608
 114.1528174  49.8638790  90.7882187 114.3279929  49.3926833  91.6027809
 113.4660962  50.4904556  91.0163447 115.1085237  44.1411296  96.8345488
 114.7735069  44.1012066  97.7303138 114.6089182  43.4756012  96.3615898
 109.0829481  39.5478926 102.3598069 108.9449279  38.8159165 102.9609608
 109.9934404  39.4587826 102.0782257 118.0444428  41.4867331  87.1082548
 117.4273599  40.7614159  87.0115600 117.5760917  42.2476691  86.7649622
 111.7111781  39.2598886 101.8481749 112.4211400  38.6192078 101.8068367
 111.6681089  39.5111780 102.7707929 119.6998560  46.1966239 104.7688328
 119.6411106  45.5125459 104.1018911 120.1018078  46.9385229 104.3168954
 110.4240715  36.2464104 103.6677388 109.8878072  35.7954842 104.3198984
 109.8357424  36.3810012 102.9247852 108.7189259  53.0128153  97.5622047
 108.9585857  53.6446677  98.2401065 107.8758455  52.6616193  97.8487406
 109.8342974  35.7052755  86.2303852 108.9572441  35.5841556  85.8666098
 110.3100727  34.9138833  85.9782740 119.7015967  44.1605823 103.0002308
 118.8142746  43.8231745 103.1228706 120.2714518  43.4288854 103.2371073
 101.3545114  40.4929915  96.3245359 102.0416154  40.1791645  95.7366374
 101.1993243  41.3971279  96.0512610 106.1579837  35.3820111 100.7530383
 106.0738025  34.7745781 100.0180793 105.3362543  35.8729130 100.7539879
 113.2317121  48.8207275  99.9663551 113.1587292  49.6262247 100.4782855
 112.7894514  49.0199241  99.1411572 113.0206900  48.0579045  93.4766372
 112.2374422  48.6000725  93.5704597 113.7199645  48.5753025  93.8760613
 116.3303550  33.8673675  96.1200578 116.8272250  33.1143637  95.8001648
 115.5590532  33.9037991  95.5543787 124.1833308  39.5714040  97.7618869
 124.1723184  40.4538756  97.3912802 123.3150687  39.2185591  97.5673406
 115.6915804  48.7194109 102.1221709 116.4043776  49.3541574 102.0497611
 115.2005833  48.8157975 101.3061711 117.4133331  42.6245362  93.6939001
 116.4789610  42.7446824  93.5243705 117.5910000  41.7217829  93.4299011
 112.9138519  36.0091058  95.8472262 112.5436307  35.4562098  96.5353168
 113.4097612  35.4049191  95.2947262 120.8005882  38.4662681  94.2289035
 121.2666335  39.2990673  94.1549338 121.2513383  38.0007663  94.9334294
 110.7427718  46.4688553 102.9427280 111.4437177  47.1025036 103.0956674
 110.2722833  46.8103284 102.1822919 118.8682114  44.8106503  91.2275187
 119.1441957  44.6963097  92.1369061 117.9986612  44.4123987  91.1887360
 118.7722545  30.8343268  98.2679937 117.8585625  31.0647495  98.4362143
 119.2015647  30.9181712  99.1193969 118.5429004  39.0233160 100.7679831
 117.8900454  39.2709068 100.1132283 118.9209384  38.2097298 100.4342308
 115.5036178  49.0592853  94.8708001 115.6858572  48.2414509  95.3335753
 116.3269164  49.2760546  94.4332891 115.8378343  47.9861039  92.1323049
 116.3666109  47.4753493  91.5193211 116.1006563  47.6703569  92.9968582
 114.5916577  39.7652971 107.2545868 113.9157214  39.6647101 107.9248243
 115.4144211  39.6092185 107.7181865 106.3395436  46.0024908  99.8758383
 106.9248873  45.2568596 100.0086287 106.1420274  46.3128865 100.7595047
 109.1934091  49.0376155  94.8920825 108.5244466  49.5222283  94.4084865
 109.0546961  49.2845376  95.8064204 100.9313091  38.5730508  98.5962826
 100.9697190  38.0394099  99.3899944 100.4253383  38.0465714  97.9773803
 113.3339360  51.0719899 101.4903484 113.8857668  51.2351520 102.2552569
 113.6745553  51.6624337 100.8183509 108.3103853  33.4195049 102.0925368
 108.3745179  34.2809879 101.6802766 108.2470973  32.8069050 101.3597727
 107.7856125  35.4918181 105.7398403 108.4128164  35.1095258 106.3535927
 106.9284044  35.2732383 106.1054095 118.1850234  45.8981156 107.3452138
 118.7290138  46.5111115 106.8507093 117.6037079  46.4560735 107.8619151
 104.5621668  37.2994610  91.6716757 104.8575109  36.3905289  91.6183811
 103.6609704  37.2782350  91.3497760 116.4707747  49.0201874  98.4767166
 116.3458886  48.2191614  97.9678111 117.1286838  49.5148068  97.9881136
 108.0915915  35.3750607  97.6544306 107.3702501  35.9886574  97.5151779
 108.8809171  35.9108372  97.5760952 118.5342655  46.8210894 100.1046716
 117.5872991  46.7016246 100.0325043 118.8825428  45.9333392 100.1872977
 110.8942229  32.7105033 103.9284958 111.4176630  32.9567330 104.6911267
 110.6754562  33.5425068 103.5088095 106.2909510  34.9808708  91.7956083
 105.9622216  34.1006087  91.6131189 106.6448880  34.9256377  92.6832472
 115.5389089  46.6163611  96.3051068 115.3914051  45.6880318  96.4858638
 116.3642582  46.6383701  95.8208143 109.4051333  35.2681678  92.1631560
 109.7447405  35.7967599  91.4410169 109.8523453  35.6062084  92.9390127
 119.1423210  47.4392169  97.3915941 120.0669758  47.2335031  97.2540392
 118.9738514  47.1908570  98.3005282 112.0994774  33.6518728 101.6134628
 111.7591594  32.8526541 102.0155308 111.3933780  33.9520439 101.0411462
 112.7511245  30.7368041 100.0661951 113.5737315  30.2628519  99.9440842
 112.9949309  31.5158525 100.5660638 111.3919480  33.7656299  90.3624853
 112.1127842  34.1437552  89.8588570 110.7684784  34.4845176  90.4659831
 115.5350603  34.4701448  91.2983185 115.7514217  35.3526086  90.9972014
 115.0544670  34.0787662  90.5688827 110.2749824  37.4287161  97.8753930
 110.1294405  37.7427464  98.7678211 109.7975028  38.0472062  97.3224829
 112.1346207  34.4189709  97.9234820 112.1207776  33.5230803  97.5867117
 112.8518635  34.4260373  98.5573106 113.9872338  34.8527050  99.9687947
 113.7290116  35.7744120  99.9672277 113.4557378  34.4557484 100.6588411
 118.9318527  47.9577837  92.7478032 119.1055404  47.3924259  91.9951885
 119.4247418  48.7578732  92.5657522 104.7495486  39.9692506 100.8141591
 104.2048954  40.7452314 100.9461865 105.6274836  40.3163310 100.6560713
 111.5383103  33.3004090  93.1922390 111.6599014  32.3720736  93.3913277
 111.2485145  33.3142776  92.2800705 114.4074293  30.9859000  96.3289109
 114.4295990  31.0498333  95.3741089 114.8242352  30.1463509  96.5229616
 124.7857918  40.7214260  94.3668332 125.2289064  39.9721585  93.9687455
 123.9084428  40.7124396  93.9842064 119.9193699  47.2744601  89.8474931
 120.6144604  47.8951294  90.0662245 120.2616849  46.4239952  90.1227309
 105.5361508  39.0962402 103.7071748 104.7943244  39.2445037 104.2936378
 105.2154253  39.3570668 102.8438497 121.8185122  44.7244307  91.3762261
 122.3436446  45.0631579  90.6511581 121.7307475  43.7891322  91.1925396
 113.4805171  48.6378380 103.5052138 113.7892297  48.3927527 104.3774838
 114.2780653  48.8425019 103.0171008 113.5025783  50.7916290  95.7357515
 113.0630773  50.2992669  96.4290371 114.2533900  50.2489258  95.4949590
 105.9818122  46.9827831  95.7382143 106.8076142  46.6831603  95.3580786
 105.6312174  46.2135453  96.1871931 110.9499655  46.3354299  97.8079816
 110.3279664  45.6725004  97.5082044 111.6204522  46.3615431  97.1253464
 104.1826727  44.9014157  96.6971076 103.3458635  44.4736332  96.5155077
 104.1550372  45.0946601  97.6341867 111.0224183  34.8136087 107.4012322
 111.0712338  35.6898210 107.0190092 111.5646697  34.2713480 106.8283965
 121.5079028  45.3577210 106.6813459 120.7174572  45.3401349 106.1417959
 121.2712383  45.8965504 107.4362496 121.6276903  42.2069677 103.9946188
 121.6774908  42.0419684 104.9361711 121.5190827  41.3396936 103.6044069
 110.5113162  44.8858222  91.2838277 110.6601282  45.5693687  90.6304950
 111.3179605  44.8663312  91.7987733 118.9180666  38.1900605 105.3105495
 119.8190528  38.0507070 105.0189492 118.9928640  38.3555060 106.2503672
 113.2523471  35.5667459 104.1558681 112.3826780  35.8601026 103.8841269
 113.4882951  36.1507904 104.8765945 123.1295100  44.6266618 104.2388209
 122.8379908  44.9896599 105.0751670 122.5167231  43.9133626 104.0601541
 124.3290782  42.1919498  96.7590780 125.1637674  42.6309302  96.9228340
 124.4649911  41.7158151  95.9399025 121.3782288  39.7499233 102.7068267
 121.8536410  39.9426879 101.8987119 120.4547854  39.8058419 102.4611651
 108.2665795  40.9123400  92.2899346 108.0211837  40.0085730  92.4879556
 108.4361710  40.9140550  91.3478824 115.9562505  31.7847076 101.6724101
 116.4744449  32.5208103 101.3470590 115.6017638  32.0911070 102.5070860
 107.5361443  36.6451758  89.7885507 106.8430687  36.7196113  89.1325543
 107.2913194  35.8812101  90.3107024 116.2075099  28.2047359  97.1924998
 116.4876853  27.5370548  97.8185424 116.9925706  28.3976455  96.6799662
 114.0108568  47.3806353  88.7550024 113.4382535  47.9996540  88.3020496
 114.5841361  47.9305715  89.2889946 120.0783957  36.6264993 100.9396573
 121.0301380  36.7263091 100.9608797 119.9087408  35.8343261 101.4494657
 118.0998337  33.7120576 101.1255974 117.5048269  33.9925589 100.4302463
 117.8148034  34.2014477 101.8972715 117.2305827  47.6643503  89.8858606
 118.1636500  47.5989065  90.0891482 117.1429040  48.4999770  89.4273139
 119.8593844  46.9809373  86.8462554 119.7807476  46.6469237  87.7398312
 120.6803511  47.4731141  86.8454026 122.5572035  39.8471113 100.0538873
 122.5248355  38.9087113 100.2398556 123.1672659  39.9255149  99.3204698
 114.3955366  38.7167166  86.0966077 115.3414471  38.5873374  86.1654495
 114.0169611  37.9781827  86.5735505 122.7066524  36.6382156 100.0997156
 122.1905572  35.8540613  99.9127085 123.5906472  36.3100873 100.2643675
 120.3677251  30.3823172  96.0592969 120.1702072  30.0738260  96.9436300
 120.9776956  31.1084811  96.1890898 128.3748585  40.9087119  99.1944909
 129.1051974  40.6472408  99.7552613 127.7655531  40.1715841  99.2346977
 126.4563882  39.0494982  99.7919361 125.7297046  38.9150947  99.1835852
 126.0411169  39.3571811 100.5976079 114.2794059  42.7684912 107.5566734
 115.1997068  42.9463511 107.7506780 114.2443642  41.8240957 107.4046433
 112.5798283  36.6417142  86.0320962 111.6729739  36.3450255  86.1083676
 112.8574264  36.3446960  85.1655248 103.4976224  37.9623505  96.4820008
 103.1779008  37.1088814  96.1894382 102.9509652  38.1772084  97.2377976
 107.2756131  40.6785946 100.1989515 107.4942141  41.6103054 100.2177549
 107.6881905  40.3193921 100.9844319 114.1960349  31.1854032  92.1865203
 113.3861077  30.8401117  92.5620449 114.8844766  30.8761575  92.7752815
 116.1250897  30.2632078  93.8089500 116.6781936  30.6827532  94.4679523
 116.3620984  29.3367827  93.8512456 112.1483996  36.2519152 109.5892264
 112.0480723  37.2013509 109.5204355 111.9305538  35.9237391 108.7168334
 111.3497068  33.5004077  86.1732941 112.2116232  33.8258975  86.4328758
 111.5347412  32.7135573  85.6606007 103.3664484  41.5826417  98.4513130
 102.6727955  41.1680370  97.9383084 104.1137475  41.6246953  97.8546549
 119.5029704  32.3732604  93.3168164 118.9228373  33.0317408  92.9346217
 119.2365637  31.5509948  92.9055582 117.9533271  31.7737661  95.5189484
 118.4533049  31.8854196  94.7103803 118.5968879  31.4698714  96.1590293
 112.0115266  39.6816291 108.4057325 111.5282348  40.4816651 108.6121214
 112.0976206  39.6924236 107.4524769 105.2801226  41.5144671  96.3279145
 105.2571914  41.6132358  95.3761028 105.5901863  42.3609821  96.6496311
 107.9388604  43.5720826 100.4425759 108.8931858  43.5404768 100.3755691
 107.7401128  43.1111449 101.2575985 108.5287986  42.1421942 103.0096557
 109.3480875  42.6366020 103.0331394 108.8024794  41.2253910 102.9814124
 118.2854582  34.5332694  92.3724512 117.3980437  34.8182345  92.1544707
 118.7008571  34.3726457  91.5251789 121.6369118  34.5579215  96.0878852
 122.4129509  35.0475667  96.3603468 120.9117253  34.9837269  96.5450721
 124.0741677  35.2706834  97.1452792 124.6686168  35.0302570  96.4346100
 124.1468261  34.5513965  97.7726329 106.2938833  49.1140445  97.4595957
 106.1593301  48.3540846  96.8933955 105.8770895  49.8381345  96.9924746
 117.4297796  44.2977369  86.4672532 118.1333646  44.5027371  87.0830188
 116.7060445  44.8654131  86.7321616 118.2595606  40.0487230  92.5874803
 118.2030807  40.5055781  91.7482435 118.8123949  39.2877915  92.4097645
 122.0700412  35.8376962  93.4124922 121.8137346  35.4373597  94.2433130
 121.4453280  36.5520756  93.2875061 126.3812750  38.5773035  95.9196213
 125.8212308  38.6466224  96.6927775 125.7756253  38.4014020  95.1995710
 109.4507959  50.0109762  97.6714400 109.3340343  50.9555195  97.5693090
 108.6300405  49.7083324  98.0600199 119.3384493  44.7359898  88.5170992
 120.1730097  44.3041096  88.3348467 119.1768836  44.5641912  89.4447887
 118.9930385  41.2392011  89.8827332 118.9379189  41.0736283  88.9415776
 118.3676441  41.9468044  90.0389521 103.7822900  36.4760076 103.7088754
 104.4281764  35.9659030 104.1975979 103.5740051  37.2128757 104.2832179
 116.3076293  43.5440923 109.2080894 117.1767452  43.7181575 108.8467529
 115.8283044  44.3635340 109.0856624 112.3026511  30.7400120  89.4612650
 112.2905181  31.6841960  89.6180921 113.1949933  30.5570266  89.1672111
 110.4762473  50.6638024 100.8870328 111.3789719  50.6961634 101.2036823
 110.2499843  49.7338475 100.9016664 112.2316075  49.4169011  97.5480407
 111.2811706  49.4170872  97.4344779 112.5348561  48.6701745  97.0316441
 116.1178630  27.3342897  93.7158587 115.3511026  26.7801384  93.8615269
 116.5289335  27.4064766  94.5772739 108.1220391  33.6227693 107.8063768
 108.9851853  33.2664498 108.0167093 107.5485802  33.2841587 108.4939172
 127.9668768  55.2529549  98.6126169 128.6047178  55.1336296  97.9089509
 127.8489611  56.2010393  98.6714121 124.7758475  55.2056977  98.5487694
 124.4376986  55.0898042  97.6608229 125.6448243  54.8048142  98.5288700
 120.6345290  57.0592454  94.5384585 120.0710155  56.9682390  93.7700873
 120.5197685  56.2392358  95.0187077 125.2578258  56.3591829 104.5073899
 125.2466898  55.9644627 103.6354403 125.4198897  55.6257901 105.1007671
 118.1809722  58.5543645  97.3768805 118.9731014  58.2134470  96.9615105
 118.4206372  58.6638620  98.2970959 126.2144849  60.7263421  89.8499050
 125.5632829  61.3117502  89.4633064 127.0089212  61.2569616  89.9094087
 120.1400476  57.8152558  90.2486184 120.9131352  57.2681545  90.1099060
 120.4925875  58.6796808  90.4600645 121.9785519  59.1428941 103.4553083
 121.6875385  60.0474571 103.3399750 122.6142503  59.1845468 104.1697153
 122.9041726  56.5205789 100.0454443 123.5005298  56.2961812  99.3311406
 122.9616697  55.7790535 100.6479891 122.4766754  53.9745224  87.8804634
 122.7292275  53.4526746  87.1188097 121.5391313  53.8111370  87.9831318
 127.5210037  52.9781003  95.6879377 128.3073126  52.5600426  95.3369794
 127.7848741  53.8827095  95.8561026 127.6920114  58.4153853  90.3868034
 127.0565947  58.4888480  91.0988939 127.3617521  59.0047452  89.7087113
 132.9218464  52.9156236  96.5912356 133.6543636  52.3455453  96.8250185
 132.1657820  52.5277837  97.0318861 122.1963043  55.8773330  90.0829009
 122.0799301  55.2018234  90.7510093 122.3065303  55.3905704  89.2661162
 124.5394584  55.3383478  93.7875698 124.1752791  54.8114099  94.4988620
 125.3961700  54.9481947  93.6142184 130.4443884  46.6277810 101.0506964
 130.1127209  47.4973221 100.8268179 129.8489498  46.3114094 101.7300995
 124.1800071  50.3673377  88.7837047 124.3474473  51.2353614  89.1507518
 123.9897240  50.5300659  87.8598336 126.9375404  58.8290356 100.4502877
 126.6376127  59.7315395 100.3418684 126.5926463  58.5622539 101.3024030
 120.3887885  55.2804153  96.4839581 119.4638382  55.1480367  96.6917273
 120.6372298  56.0598372  96.9809524 130.3372548  51.3472896  98.1300314
 129.4289425  51.2788305  97.8359075 130.2860143  51.8244841  98.9582140
 124.1589291  52.8231035  89.7683714 124.0388917  53.2688086  90.6069194
 123.4641880  53.1716352  89.2097252 117.7496696  54.9237427  97.3183371
 117.8789077  55.1771905  98.2322782 117.0694148  55.5165135  96.9988026
 121.9196184  65.5934677  93.4173845 121.8420213  66.5442502  93.4962325
 121.3157827  65.2480549  94.0748771 124.4113413  52.7662542 106.0735212
 123.6346747  53.3256462 106.0638076 125.0503976  53.2519325 106.5950082
 132.2034194  49.5489335  99.9078188 131.5608574  49.8421868  99.2617983
 131.6989122  49.4342255 100.7131385 129.8574358  53.2952508  90.5964048
 130.7692214  53.5279895  90.4211745 129.3484005  53.8789552  90.0339126
 122.6659786  55.5747995 105.6353179 123.4074470  56.1133039 105.3588002
 121.9596771  56.2014284 105.7924730 128.1415125  57.7177136 104.2325340
 128.5498481  57.2759546 103.4879973 127.4192387  57.1429763 104.4859533
 124.4946195  52.6549743 101.6058897 125.3407391  53.0789156 101.7493546
 124.4344833  51.9983367 102.2997460 128.4643940  58.2778326  97.9877629
 127.8352802  58.4424041  97.2853697 128.0769602  58.6919936  98.7588593
 132.3433172  59.2132764  95.3421993 131.6584210  59.5931666  94.7919026
 132.4277021  59.8228091  96.0753941 127.6445641  50.3154111 103.2640071
 127.4006573  51.0696171 102.7274346 127.9205571  50.6939458 104.0987318
 129.5984103  56.8592723 101.9417336 129.8100999  57.5024483 101.2651717
 129.5513852  56.0255040 101.4739266 127.2010332  49.4710544  98.8453908
 126.3394811  49.7691797  99.1370646 127.2272767  49.6880943  97.9134941
 124.0171902  58.0152734  95.2527714 124.4810247  58.2940437  94.4632337
 123.7528700  57.1136179  95.0700805 120.9095983  57.5624216  98.1907477
 121.4797340  57.9911484  97.5524962 121.5004095  57.2806801  98.8891663
 122.9540788  54.1375887  92.0617279 123.6564831  54.5896931  92.5291206
 122.6221416  53.4959706  92.6897172 121.4021149  52.7287643 106.4368489
 120.7719810  53.4103924 106.6703885 121.2957237  52.6170725 105.4921627
 116.6966122  52.3959439  97.3634413 115.9065176  52.6516968  96.8874523
 117.1877369  53.2107777  97.4686453 130.7129931  59.7364679 100.1139694
 131.5347375  59.3344866  99.8322375 130.7092334  59.6332913 101.0655809
 118.6480867  52.7604019  94.3217890 117.8512030  52.8722713  94.8401385
 118.4206459  53.0990671  93.4558780 124.4786535  59.2848722 102.2700404
 124.5430967  59.7469129 103.1058576 123.7697459  58.6546087 102.3982714
 114.9803825  52.6489930  99.7949404 115.2311863  53.5336940 100.0606980
 115.5163373  52.4694531  99.0224495 138.8035924  56.0803427  96.4624665
 138.0499633  55.5110825  96.3068670 138.9383466  56.0466092  97.4095300
 124.1934552  60.9516829  92.1379384 124.0580227  61.7968365  92.5664232
 124.7344365  61.1536107  91.3745318 120.6801892  47.0308409 108.7993740
 120.2868838  46.4774608 109.4741384 121.4968032  47.3418988 109.1900257
 117.6463950  58.4692267  92.7107310 118.1588470  59.2635518  92.8612874
 118.2986663  57.7718558  92.6440911 119.4558835  61.5858024  94.7930063
 119.6325463  62.5075988  94.6051047 120.2515668  61.2716443  95.2224443
 123.5969853  48.4466288 106.3913996 124.3379566  49.0473442 106.3118459
 123.8287776  47.7043926 105.8332039 118.7411191  53.6322656 104.6692226
 118.6264706  52.7307913 104.9699325 117.8855709  53.8786352 104.3177042
 125.8203029  61.5740396 106.2679727 125.3766883  60.7876775 105.9500631
 126.4820242  61.7619546 105.6023617 120.5790150  63.1036198 100.7940405
 121.1297575  62.9753261 100.0217399 119.7401626  63.4031087 100.4435298
 127.9184267  61.8543196 104.2961128 127.9002742  62.6752077 103.8041397
 128.8404187  61.7297271 104.5211269 124.3757321  59.3687325 105.1384636
 124.9085658  58.6075614 104.9083944 123.8471402  59.0760977 105.8808791
 127.5427016  44.4747391 100.6678278 127.1991285  45.3649033 100.5917389
 127.9105979  44.2849049  99.8047863 115.6112867  56.7980922  93.4866880
 116.4488089  57.2077930  93.2700588 115.7891134  55.8580364  93.4567074
 127.5077299  54.4656002  89.1750713 126.9923922  55.2360607  89.4139100
 127.2354607  53.7921139  89.7983775 125.0924410  49.3105703  94.2335951
 124.2366006  48.9212554  94.0541590 125.5051362  49.3897664  93.3735737
 126.6223556  46.8452046  98.6327511 126.1188352  46.8082182  97.8195316
 126.9154163  47.7544789  98.6924168 122.8666442  46.9290776  97.6393693
 123.7319439  46.7333585  97.2799582 122.9343951  46.7001128  98.5663050
 132.4811573  57.2188357  91.1103887 131.7041016  56.8799517  90.6659049
 133.1603054  57.2240980  90.4358852 127.2963602  52.3383095  91.0010494
 126.9913738  52.6529244  91.8520637 128.2494044  52.4164514  91.0437827
 125.7410034  58.4973318  92.6503448 125.2131395  57.7626077  92.3376686
 125.2397537  59.2747994  92.4043417 130.7202880  56.6922338  97.7670495
 130.0626554  57.3821600  97.8550623 131.5243279  57.0818770  98.1104481
 120.4728761  49.1592984  95.0110060 121.0472513  48.9368166  94.2783253
 121.0599744  49.2281679  95.7638661 129.5308339  55.0466711  95.8174436
 130.0440220  55.6796703  96.3196146 130.1809563  54.4467907  95.4517796
 120.7998349  51.1897445  89.0305945 119.9635661  51.5272132  89.3515220
 120.6603118  51.0546425  88.0933082 122.7751429  46.0334233  93.7385129
 122.1215841  45.7183250  93.1141744 122.7331903  45.4109974  94.4644952
 123.8862634  56.3153528  85.6538421 122.9789696  56.0842782  85.8529570
 124.3833666  55.5191147  85.8412403 126.7930713  65.0251035  88.5735107
 126.1192412  65.3282732  89.1820065 127.1796535  65.8280116  88.2240564
 126.0089169  52.5216167  98.0632777 125.0911731  52.7431114  97.9054465
 126.4249313  52.5962477  97.2044484 126.7924217  53.9207582  93.1935457
 127.5396036  54.4328979  92.8842579 127.0615807  53.5991635  94.0539851
 125.0650867  56.4166123  90.1762411 124.1562087  56.1325156  90.2734881
 125.0945951  56.8365202  89.3165718 130.2970135  60.0272712  93.9453579
 129.8432462  59.1863622  94.0018769 129.6664102  60.6634111  94.2828359
 129.2403054  50.9564699  95.1754246 128.5025811  50.4442085  95.5064489
 129.4929828  50.5165080  94.3637523 128.7403074  61.8649209  94.8803397
 129.0326048  62.4254266  94.1615763 129.2501695  62.1577770  95.6356556
 129.3414682  43.7340951  95.7696016 129.6473559  42.8738314  95.4821931
 130.0667287  44.3258571  95.5695010 115.6339038  54.1371637  94.1577614
 115.4363438  53.5440998  93.4328680 115.0785702  53.8323847  94.8753552
 123.6135761  54.0294744  96.2772207 123.6684371  53.0768580  96.2014683
 122.8026963  54.1854183  96.7613505 124.7626955  57.9574867  87.5150490
 124.3246385  57.2410726  87.0556127 125.5037396  58.1850981  86.9535581
 121.5528121  52.6471803  94.0362586 120.7395987  52.9465974  94.4427778
 122.0487116  52.2527492  94.7537068 123.7036699  62.6429560  95.9696850
 123.6612878  62.8690407  95.0405382 124.6199398  62.4092935  96.1182651
 127.1502333  53.1113628 102.8677479 127.5051721  53.3385101 103.7271945
 127.7974464  53.4432005 102.2454735 132.8800070  56.2332064  93.5726808
 132.7417969  56.4233660  92.6447998 132.5236289  56.9951447  94.0294860
 121.0442196  50.2190159  99.6523821 121.6841575  50.0778918  98.9546784
 120.2119727  49.9324672  99.2762423 132.9069450  58.3008591  98.5838080
 133.3405956  58.2083880  99.4321134 133.6201030  58.2766091  97.9458096
 121.8202500  59.5192589  95.7658813 122.6143099  59.0242909  95.5641388
 121.1094192  58.9910452  95.4026519 126.6397345  61.9010685 100.1171181
 126.6934367  62.4701621 100.8848896 125.7712126  62.0712570  99.7525218
 118.1285264  53.6635671  91.8418566 117.1982852  53.6020127  92.0588528
 118.2242735  53.1411624  91.0455207 118.0470813  50.1890484  94.4296807
 118.3077630  51.1035817  94.3205968 118.8687985  49.7214926  94.5793420
 119.5195738  51.6028241 101.5995632 120.1918791  51.3945603 100.9508281
 118.6925524  51.4050327 101.1600864 133.7684999  58.3432291 101.1170965
 133.9620889  59.2478102 101.3630240 133.6685617  57.8839710 101.9509550
 125.4221310  48.2290182 103.6161293 124.7749225  48.9280132 103.5225769
 126.1922325  48.6626326 103.9837541 128.8300108  58.4939034 106.6911846
 128.6785614  58.2649586 105.7741930 128.8204787  59.4509636 106.7043191
 125.5985444  56.0670947 101.6758112 126.5277504  56.2182106 101.5027080
 125.1776474  56.1554968 100.8206759 124.3973776  60.0921611  99.4456650
 124.2584862  59.7240396 100.3182588 123.6088372  60.6069251  99.2740608
 124.9921928  65.1930708  90.7882187 125.1673684  64.7218751  91.6027809
 124.3054716  65.8196474  91.0163447 125.9478991  59.4703214  96.8345488
 125.6128824  59.4303984  97.7303138 125.4482937  58.8047930  96.3615898
 119.9223235  54.8770844 102.3598069 119.7843033  54.1451083 102.9609608
 120.8328159  54.7879744 102.0782257 128.8838183  56.8159248  87.1082548
 128.2667353  56.0906076  87.0115600 128.4154671  57.5768609  86.7649622
 122.5505536  54.5890803 101.8481749 123.2605154  53.9483996 101.8068367
 122.5074844  54.8403698 102.7707929 130.5392314  61.5258157 104.7688328
 130.4804861  60.8417377 104.1018911 130.9411833  62.2677147 104.3168954
 121.2634470  51.5756021 103.6677388 120.7271827  51.1246760 104.3198984
 120.6751178  51.7101930 102.9247852 119.5583013  68.3420071  97.5622047
 119.7979612  68.9738595  98.2401065 118.7152210  67.9908111  97.8487406
 120.6736729  51.0344673  86.2303852 119.7966195  50.9133473  85.8666098
 121.1494482  50.2430751  85.9782740 130.5409722  59.4897741 103.0002308
 129.6536501  59.1523662 103.1228706 131.1108273  58.7580772 103.2371073
 112.1938869  55.8221832  96.3245359 112.8809909  55.5083562  95.7366374
 112.0386998  56.7263197  96.0512610 116.9973591  50.7112029 100.7530383
 116.9131780  50.1037698 100.0180793 116.1756297  51.2021047 100.7539879
 124.0710875  64.1499193  99.9663551 123.9981047  64.9554164 100.4782855
 123.6288268  64.3491159  99.1411572 123.8600655  63.3870963  93.4766372
 123.0768177  63.9292643  93.5704597 124.5593400  63.9044943  93.8760613
 127.1697305  49.1965592  96.1200578 127.6666004  48.4435555  95.8001648
 126.3984286  49.2329909  95.5543787 135.0227062  54.9005958  97.7618869
 135.0116939  55.7830673  97.3912802 134.1544442  54.5477509  97.5673406
 126.5309559  64.0486027 102.1221709 127.2437531  64.6833492 102.0497611
 126.0399587  64.1449893 101.3061711 128.2527086  57.9537280  93.6939001
 127.3183364  58.0738742  93.5243705 128.4303754  57.0509746  93.4299011
 123.7532274  51.3382975  95.8472262 123.3830061  50.7854016  96.5353168
 124.2491366  50.7341109  95.2947262 131.6399637  53.7954599  94.2289035
 132.1060089  54.6282591  94.1549338 132.0907137  53.3299581  94.9334294
 121.5821472  61.7980470 102.9427280 122.2830932  62.4316953 103.0956674
 121.1116587  62.1395202 102.1822919 129.7075868  60.1398420  91.2275187
 129.9835712  60.0255015  92.1369061 128.8380367  59.7415905  91.1887360
 129.6116300  46.1635186  98.2679937 128.6979379  46.3939413  98.4362143
 130.0409401  46.2473630  99.1193969 129.3822758  54.3525078 100.7679831
 128.7294208  54.6000985 100.1132283 129.7603138  53.5389216 100.4342308
 126.3429932  64.3884771  94.8708001 126.5252327  63.5706427  95.3335753
 127.1662918  64.6052463  94.4332891 126.6772098  63.3152956  92.1323049
 127.2059864  62.8045411  91.5193211 126.9400317  62.9995486  92.9968582
 125.4310331  55.0944889 107.2545868 124.7550968  54.9939018 107.9248243
 126.2537965  54.9384103 107.7181865 117.1789190  61.3316825  99.8758383
 117.7642627  60.5860513 100.0086287 116.9814029  61.6420782 100.7595047
 120.0327845  64.3668073  94.8920825 119.3638221  64.8514201  94.4084865
 119.8940715  64.6137293  95.8064204 111.7706845  53.9022426  98.5962826
 111.8090945  53.3686016  99.3899944 111.2647138  53.3757631  97.9773803
 124.1733114  66.4011816 101.4903484 124.7251422  66.5643438 102.2552569
 124.5139308  66.9916254 100.8183509 119.1497607  48.7486966 102.0925368
 119.2138934  49.6101797 101.6802766 119.0864728  48.1360968 101.3597727
 118.6249880  50.8210099 105.7398403 119.2521919  50.4387176 106.3535927
 117.7677799  50.6024301 106.1054095 129.0243988  61.2273074 107.3452138
 129.5683892  61.8403032 106.8507093 128.4430833  61.7852652 107.8619151
 115.4015423  52.6286528  91.6716757 115.6968864  51.7197206  91.6183811
 114.5003458  52.6074267  91.3497760 127.3101501  64.3493792  98.4767166
 127.1852641  63.5483532  97.9678111 127.9680592  64.8439985  97.9881136
 118.9309670  50.7042524  97.6544306 118.2096255  51.3178492  97.5151779
 119.7202925  51.2400289  97.5760952 129.3736410  62.1502812 100.1046716
 128.4266745  62.0308163 100.0325043 129.7219183  61.2625310 100.1872977
 121.7335983  48.0396951 103.9284958 122.2570385  48.2859247 104.6911267
 121.5148316  48.8716986 103.5088095 117.1303264  50.3100626  91.7956083
 116.8015970  49.4298004  91.6131189 117.4842635  50.2548294  92.6832472
 126.3782843  61.9455528  96.3051068 126.2307805  61.0172236  96.4858638
 127.2036337  61.9675619  95.8208143 120.2445087  50.5973595  92.1631560
 120.5841160  51.1259517  91.4410169 120.6917208  50.9354001  92.9390127
 129.9816965  62.7684087  97.3915941 130.9063512  62.5626948  97.2540392
 129.8132268  62.5200488  98.3005282 122.9388528  48.9810646 101.6134628
 122.5985349  48.1818459 102.0155308 122.2327534  49.2812357 101.0411462
 123.5905000  46.0659958 100.0661951 124.4131069  45.5920437  99.9440842
 123.8343064  46.8450442 100.5660638 122.2313234  49.0948217  90.3624853
 122.9521597  49.4729470  89.8588570 121.6078539  49.8137094  90.4659831
 126.3744357  49.7993366  91.2983185 126.5907972  50.6818004  90.9972014
 125.8938425  49.4079579  90.5688827 121.1143579  52.7579079  97.8753930
 120.9688159  53.0719382  98.7678211 120.6368782  53.3763979  97.3224829
 122.9739962  49.7481627  97.9234820 122.9601530  48.8522720  97.5867117
 123.6912390  49.7552291  98.5573106 124.8266092  50.1818967  99.9687947
 124.5683870  51.1036038  99.9672277 124.2951133  49.7849402 100.6588411
 129.7712281  63.2869754  92.7478032 129.9449159  62.7216177  91.9951885
 130.2641172  64.0870649  92.5657522 115.5889241  55.2984423 100.8141591
 115.0442709  56.0744231 100.9461865 116.4668591  55.6455228 100.6560713
 122.3776858  48.6296007  93.1922390 122.4992769  47.7012654  93.3913277
 122.0878900  48.6434693  92.2800705 125.2468048  46.3150918  96.3289109
 125.2689745  46.3790251  95.3741089 125.6636107  45.4755426  96.5229616
 135.6251672  56.0506177  94.3668332 136.0682818  55.3013503  93.9687455
 134.7478183  56.0416314  93.9842064 130.7587454  62.6036519  89.8474931
 131.4538358  63.2243211  90.0662245 131.1010604  61.7531870  90.1227309
 116.3755263  54.4254320 103.7071748 115.6336999  54.5736955 104.2936378
 116.0548007  54.6862585 102.8438497 132.6578877  60.0536224  91.3762261
 133.1830201  60.3923497  90.6511581 132.5701229  59.1183240  91.1925396
 124.3198925  63.9670298 103.5052138 124.6286052  63.7219445 104.3774838
 125.1174407  64.1716936 103.0171008 124.3419537  66.1208208  95.7357515
 123.9024528  65.6284586  96.4290371 125.0927654  65.5781175  95.4949590
 116.8211876  62.3119748  95.7382143 117.6469896  62.0123520  95.3580786
 116.4705928  61.5427371  96.1871931 121.7893410  61.6646217  97.8079816
 121.1673419  61.0016922  97.5082044 122.4598277  61.6907349  97.1253464
 115.0220481  60.2306075  96.6971076 114.1852390  59.8028249  96.5155077
 114.9944127  60.4238518  97.6341867 121.8617937  50.1428005 107.4012322
 121.9106093  51.0190128 107.0190092 122.4040451  49.6005398 106.8283965
 132.3472783  60.6869128 106.6813459 131.5568326  60.6693267 106.1417959
 132.1106137  61.2257422 107.4362496 132.4670658  57.5361594 103.9946188
 132.5168663  57.3711602 104.9361711 132.3584581  56.6688853 103.6044069
 121.3506917  60.2150140  91.2838277 121.4995037  60.8985604  90.6304950
 122.1573360  60.1955230  91.7987733 129.7574420  53.5192522 105.3105495
 130.6584283  53.3798987 105.0189492 129.8322395  53.6846977 106.2503672
 124.0917226  50.8959377 104.1558681 123.2220535  51.1892943 103.8841269
 124.3276706  51.4799822 104.8765945 133.9688855  59.9558536 104.2388209
 133.6773663  60.3188516 105.0751670 133.3560986  59.2425544 104.0601541
 135.1684537  57.5211416  96.7590780 136.0031428  57.9601220  96.9228340
 135.3043666  57.0450069  95.9399025 132.2176043  55.0791150 102.7068267
 132.6930164  55.2718797 101.8987119 131.2941608  55.1350336 102.4611651
 119.1059549  56.2415318  92.2899346 118.8605591  55.3377648  92.4879556
 119.2755464  56.2432468  91.3478824 126.7956259  47.1138994 101.6724101
 127.3138203  47.8500021 101.3470590 126.4411392  47.4202987 102.5070860
 118.3755197  51.9743675  89.7885507 117.6824442  52.0488030  89.1325543
 118.1306949  51.2104019  90.3107024 127.0468854  43.5339277  97.1924998
 127.3270607  42.8662466  97.8185424 127.8319460  43.7268372  96.6799662
 124.8502322  62.7098270  88.7550024 124.2776289  63.3288458  88.3020496
 125.4235116  63.2597632  89.2889946 130.9177712  51.9556911 100.9396573
 131.8695135  52.0555008 100.9608797 130.7481162  51.1635179 101.4494657
 128.9392091  49.0412494 101.1255974 128.3442023  49.3217507 100.4302463
 128.6541788  49.5306395 101.8972715 128.0699582  62.9935421  89.8858606
 129.0030255  62.9280982  90.0891482 127.9822795  63.8291687  89.4273139
 130.6987598  62.3101291  86.8462554 130.6201230  61.9761155  87.7398312
 131.5197265  62.8023059  86.8454026 133.3965790  55.1763030 100.0538873
 133.3642110  54.2379031 100.2398556 134.0066413  55.2547067  99.3204698
 125.2349121  54.0459083  86.0966077 126.1808225  53.9165291  86.1654495
 124.8563365  53.3073745  86.5735505 133.5460278  51.9674074 100.0997156
 133.0299327  51.1832530  99.9127085 134.4300227  51.6392790 100.2643675
 131.2071005  45.7115089  96.0592969 131.0095826  45.4030177  96.9436300
 131.8170711  46.4376728  96.1890898 139.2142340  56.2379037  99.1944909
 139.9445728  55.9764325  99.7552613 138.6049285  55.5007759  99.2346977
 137.2957637  54.3786900  99.7919361 136.5690800  54.2442865  99.1835852
 136.8804924  54.6863728 100.5976079 125.1187813  58.0976829 107.5566734
 126.0390823  58.2755428 107.7506780 125.0837396  57.1532875 107.4046433
 123.4192038  51.9709060  86.0320962 122.5123493  51.6742172  86.1083676
 123.6968019  51.6738878  85.1655248 114.3369978  53.2915423  96.4820008
 114.0172762  52.4380731  96.1894382 113.7903406  53.5064001  97.2377976
 118.1149886  56.0077864 100.1989515 118.3335895  56.9394972 100.2177549
 118.5275659  55.6485838 100.9844319 125.0354103  46.5145949  92.1865203
 124.2254832  46.1693034  92.5620449 125.7238520  46.2053493  92.7752815
 126.9644652  45.5923996  93.8089500 127.5175690  46.0119450  94.4679523
 127.2014738  44.6659744  93.8512456 122.9877751  51.5811070 109.5892264
 122.8874478  52.5305427 109.5204355 122.7699293  51.2529309 108.7168334
 122.1890822  48.8295995  86.1732941 123.0509986  49.1550893  86.4328758
 122.3741166  48.0427491  85.6606007 114.2058238  56.9118335  98.4513130
 113.5121709  56.4972287  97.9383084 114.9531229  56.9538871  97.8546549
 130.3423459  47.7024521  93.3168164 129.7622128  48.3609325  92.9346217
 130.0759391  46.8801866  92.9055582 128.7927025  47.1029579  95.5189484
 129.2926804  47.2146114  94.7103803 129.4362633  46.7990632  96.1590293
 122.8509021  55.0108209 108.4057325 122.3676103  55.8108569 108.6121214
 122.9369960  55.0216154 107.4524769 116.1194981  56.8436588  96.3279145
 116.0965669  56.9424276  95.3761028 116.4295617  57.6901739  96.6496311
 118.7782358  58.9012743 100.4425759 119.7325612  58.8696686 100.3755691
 118.5794882  58.4403367 101.2575985 119.3681741  57.4713859 103.0096557
 120.1874630  57.9657938 103.0331394 119.6418548  56.5545828 102.9814124
 129.1248337  49.8624612  92.3724512 128.2374192  50.1474262  92.1544707
 129.5402326  49.7018375  91.5251789 132.4762873  49.8871133  96.0878852
 133.2523263  50.3767585  96.3603468 131.7511007  50.3129187  96.5450721
 134.9135432  50.5998752  97.1452792 135.5079922  50.3594488  96.4346100
 134.9862015  49.8805882  97.7726329 117.1332587  64.4432363  97.4595957
 116.9987055  63.6832764  96.8933955 116.7164650  65.1673263  96.9924746
 128.2691550  59.6269286  86.4672532 128.9727400  59.8319289  87.0830188
 127.5454199  60.1946048  86.7321616 129.0989361  55.3779148  92.5874803
 129.0424562  55.8347699  91.7482435 129.6517703  54.6169832  92.4097645
 132.9094166  51.1668879  93.4124922 132.6531101  50.7665515  94.2433130
 132.2847034  51.8812673  93.2875061 137.2206504  53.9064953  95.9196213
 136.6606062  53.9758142  96.6927775 136.6150008  53.7305937  95.1995710
 120.2901713  65.3401680  97.6714400 120.1734097  66.2847112  97.5693090
 119.4694159  65.0375241  98.0600199 130.1778248  60.0651816  88.5170992
 131.0123852  59.6333014  88.3348467 130.0162591  59.8933829  89.4447887
 129.8324140  56.5683929  89.8827332 129.7772944  56.4028200  88.9415776
 129.2070195  57.2759962  90.0389521 114.6216655  51.8051993 103.7088754
 115.2675518  51.2950947 104.1975979 114.4133806  52.5420675 104.2832179
 127.1470047  58.8732841 109.2080894 128.0161207  59.0473493 108.8467529
 126.6676799  59.6927258 109.0856624 123.1420265  46.0692038  89.4612650
 123.1298935  47.0133878  89.6180921 124.0343687  45.8862183  89.1672111
 121.3156227  65.9929942 100.8870328 122.2183474  66.0253552 101.2036823
 121.0893597  65.0630393 100.9016664 123.0709829  64.7460928  97.5480407
 122.1205460  64.7462790  97.4344779 123.3742315  63.9993663  97.0316441
 126.9572385  42.6634815  93.7158587 126.1904781  42.1093301  93.8615269
 127.3683090  42.7356683  94.5772739 118.9614146  48.9519610 107.8063768
 119.8245607  48.5956415 108.0167093 118.3879556  48.6133505 108.4939172
 138.8062523  70.5821467  98.6126169 139.4440933  70.4628214  97.9089509
 138.6883366  71.5302311  98.6714121 135.6152229  70.5348895  98.5487694
 135.2770741  70.4189959  97.6608229 136.4841997  70.1340060  98.5288700
 131.4739045  72.3884371  94.5384585 130.9103910  72.2974308  93.7700873
 131.3591440  71.5684276  95.0187077 136.0972012  71.6883747 104.5073899
 136.0860653  71.2936545 103.6354403 136.2592652  70.9549819 105.1007671
 129.0203477  73.8835563  97.3768805 129.8124769  73.5426387  96.9615105
 129.2600127  73.9930538  98.2970959 137.0538603  76.0555339  89.8499050
 136.4026583  76.6409419  89.4633064 137.8482966  76.5861534  89.9094087
 130.9794231  73.1444476  90.2486184 131.7525107  72.5973463  90.1099060
 131.3319629  74.0088725  90.4600645 132.8179273  74.4720858 103.4553083
 132.5269139  75.3766489 103.3399750 133.4536258  74.5137386 104.1697153
 133.7435480  71.8497707 100.0454443 134.3399052  71.6253729  99.3311406
 133.8010452  71.1082452 100.6479891 133.3160508  69.3037142  87.8804634
 133.5686029  68.7818663  87.1188097 132.3785068  69.1403288  87.9831318
 138.3603791  68.3072921  95.6879377 139.1466880  67.8892344  95.3369794
 138.6242496  69.2119013  95.8561026 138.5313869  73.7445771  90.3868034
 137.8959702  73.8180397  91.0988939 138.2011275  74.3339370  89.7087113
 133.0356797  71.2065248  90.0829009 132.9193055  70.5310152  90.7510093
 133.1459057  70.7197622  89.2661162 135.3788338  70.6675395  93.7875698
 135.0146545  70.1406016  94.4988620 136.2355454  70.2773864  93.6142184
 135.0193825  65.6965295  88.7837047 135.1868227  66.5645531  89.1507518
 134.8290994  65.8592577  87.8598336 137.7769158  74.1582274 100.4502877
 137.4769881  75.0607313 100.3418684 137.4320218  73.8914457 101.3024030
 131.2281640  70.6096071  96.4839581 130.3032136  70.4772285  96.6917273
 131.4766053  71.3890290  96.9809524 141.1766302  66.6764814  98.1300314
 140.2683179  66.6080222  97.8359075 141.1253898  67.1536759  98.9582140
 134.9983046  68.1522952  89.7683714 134.8782671  68.5980003  90.6069194
 134.3035634  68.5008270  89.2097252 128.5890451  70.2529344  97.3183371
 128.7182832  70.5063823  98.2322782 127.9087902  70.8457052  96.9988026
 132.7589938  80.9226594  93.4173845 132.6813968  81.8734419  93.4962325
 132.1551582  80.5772467  94.0748771 135.2507168  68.0954460 106.0735212
 134.4740502  68.6548380 106.0638076 135.8897731  68.5811243 106.5950082
 133.5053540  70.9039913 105.6353179 134.2468225  71.4424957 105.3588002
 132.7990526  71.5306202 105.7924730 138.9808880  73.0469053 104.2325340
 139.3892236  72.6051464 103.4879973 138.2586141  72.4721681 104.4859533
 135.3339950  67.9841660 101.6058897 136.1801145  68.4081074 101.7493546
 135.2738588  67.3275285 102.2997460 139.3037694  73.6070244  97.9877629
 138.6746557  73.7715958  97.2853697 138.9163357  74.0211854  98.7588593
 138.4839395  65.6446029 103.2640071 138.2400327  66.3988089 102.7274346
 138.7599326  66.0231376 104.0987318 140.4377858  72.1884641 101.9417336
 140.6494753  72.8316401 101.2651717 140.3907606  71.3546957 101.4739266
 138.0404087  64.8002462  98.8453908 137.1788566  65.0983715  99.1370646
 138.0666522  65.0172860  97.9134941 134.8565656  73.3444652  95.2527714
 135.3204002  73.6232355  94.4632337 134.5922454  72.4428097  95.0700805
 131.7489737  72.8916134  98.1907477 132.3191094  73.3203402  97.5524962
 132.3397849  72.6098718  98.8891663 133.7934542  69.4667805  92.0617279
 134.4958586  69.9188848  92.5291206 133.4615171  68.8251623  92.6897172
 132.2414904  68.0579561 106.4368489 131.6113564  68.7395842 106.6703885
 132.1350992  67.9462643 105.4921627 127.5359876  67.7251357  97.3634413
 126.7458930  67.9808886  96.8874523 128.0271124  68.5399695  97.4686453
 129.4874622  68.0895936  94.3217890 128.6905785  68.2014631  94.8401385
 129.2600214  68.4282589  93.4558780 135.3180289  74.6140640 102.2700404
 135.3824722  75.0761047 103.1058576 134.6091213  73.9838005 102.3982714
 125.8197579  67.9781848  99.7949404 126.0705618  68.8628858 100.0606980
 126.3557128  67.7986449  99.0224495 135.0328307  76.2808747  92.1379384
 134.8973982  77.1260283  92.5664232 135.5738119  76.4828025  91.3745318
 131.5195647  62.3600327 108.7993740 131.1262592  61.8066526 109.4741384
 132.3361787  62.6710905 109.1900257 128.4857704  73.7984185  92.7107310
 128.9982225  74.5927435  92.8612874 129.1380417  73.1010476  92.6440911
 130.2952589  76.9149941  94.7930063 130.4719217  77.8367906  94.6051047
 131.0909423  76.6008361  95.2224443 134.4363608  63.7758206 106.3913996
 135.1773321  64.3765359 106.3118459 134.6681530  63.0335844 105.8332039
 129.5804946  68.9614573 104.6692226 129.4658461  68.0599831 104.9699325
 128.7249463  69.2078270 104.3177042 136.6596783  76.9032314 106.2679727
 136.2160638  76.1168692 105.9500631 137.3213997  77.0911464 105.6023617
 131.4183905  78.4328115 100.7940405 131.9691330  78.3045179 100.0217399
 130.5795380  78.7323004 100.4435298 138.7578021  77.1835114 104.2961128
 138.7396497  78.0043995 103.8041397 139.6797941  77.0589189 104.5211269
 135.2151076  74.6979243 105.1384636 135.7479412  73.9367531 104.9083944
 134.6865157  74.4052895 105.8808791 138.3820771  59.8039309 100.6678278
 138.0385040  60.6940951 100.5917389 138.7499733  59.6140967  99.8047863
 126.4506621  72.1272839  93.4866880 127.2881843  72.5369848  93.2700588
 126.6284889  71.1872282  93.4567074 138.3471053  69.7947920  89.1750713
 137.8317677  70.5652525  89.4139100 138.0748362  69.1213056  89.7983775
 135.9318164  64.6397621  94.2335951 135.0759761  64.2504471  94.0541590
 136.3445116  64.7189582  93.3735737 137.4617311  62.1743964  98.6327511
 136.9582107  62.1374099  97.8195316 137.7547918  63.0836707  98.6924168
 133.7060197  62.2582694  97.6393693 134.5713194  62.0625503  97.2799582
 133.7737706  62.0293046  98.5663050 138.1357356  67.6675012  91.0010494
 137.8307492  67.9821161  91.8520637 139.0887799  67.7456432  91.0437827
 136.5803788  73.8265236  92.6503448 136.0525150  73.0917995  92.3376686
 136.0791291  74.6039912  92.4043417 131.3122516  64.4884902  95.0110060
 131.8866268  64.2660083  94.2783253 131.8993498  64.5573596  95.7638661
 140.3702093  70.3758629  95.8174436 140.8833975  71.0088621  96.3196146
 141.0203317  69.7759824  95.4517796 131.6392103  66.5189363  89.0305945
 130.8029415  66.8564049  89.3515220 131.4996873  66.3838343  88.0933082
 133.6145184  61.3626151  93.7385129 132.9609596  61.0475168  93.1141744
 133.5725658  60.7401891  94.4644952 134.7256388  71.6445446  85.6538421
 133.8183450  71.4134699  85.8529570 135.2227420  70.8483065  85.8412403
 137.6324467  80.3542953  88.5735107 136.9586166  80.6574650  89.1820065
 138.0190289  81.1572033  88.2240564 136.8482924  67.8508084  98.0632777
 135.9305485  68.0723031  97.9054465 137.2643068  67.9254395  97.2044484
 137.6317972  69.2499500  93.1935457 138.3789791  69.7620897  92.8842579
 137.9009561  68.9283553  94.0539851 135.9044622  71.7458041  90.1762411
 134.9955841  71.4617073  90.2734881 135.9339706  72.1657119  89.3165718
 141.1363889  75.3564630  93.9453579 140.6826216  74.5155540  94.0018769
 140.5057856  75.9926029  94.2828359 140.0796809  66.2856616  95.1754246
 139.3419566  65.7734002  95.5064489 140.3323582  65.8456998  94.3637523
 139.5796829  77.1941127  94.8803397 139.8719803  77.7546184  94.1615763
 140.0895449  77.4869688  95.6356556 140.1808436  59.0632868  95.7696016
 140.4867313  58.2030232  95.4821931 140.9061041  59.6550488  95.5695010
 126.4732792  69.4663555  94.1577614 126.2757192  68.8732915  93.4328680
 125.9179456  69.1615765  94.8753552 134.4529516  69.3586661  96.2772207
 134.5078126  68.4060498  96.2014683 133.6420718  69.5146100  96.7613505
 135.6020710  73.2866784  87.5150490 135.1640140  72.5702643  87.0556127
 136.3431151  73.5142899  86.9535581 132.3921876  67.9763721  94.0362586
 131.5789741  68.2757892  94.4427778 132.8880870  67.5819410  94.7537068
 134.5430454  77.9721478  95.9696850 134.5006633  78.1982324  95.0405382
 135.4593153  77.7384853  96.1182651 137.9896088  68.4405545 102.8677479
 138.3445475  68.6677019 103.7271945 138.6368219  68.7723922 102.2454735
 131.8835951  65.5482077  99.6523821 132.5235330  65.4070836  98.9546784
 131.0513481  65.2616590  99.2762423 132.6596255  74.8484507  95.7658813
 133.4536853  74.3534827  95.5641388 131.9487947  74.3202370  95.4026519
 137.4791099  77.2302602 100.1171181 137.5328121  77.7993539 100.8848896
 136.6105880  77.4004488  99.7525218 128.9679018  68.9927589  91.8418566
 128.0376606  68.9312044  92.0588528 129.0636490  68.4703541  91.0455207
 128.8864567  65.5182402  94.4296807 129.1471384  66.4327735  94.3205968
 129.7081739  65.0506844  94.5793420 130.3589492  66.9320159 101.5995632
 131.0312546  66.7237521 100.9508281 129.5319279  66.7342245 101.1600864
 136.2615064  63.5582100 103.6161293 135.6142979  64.2572049 103.5225769
 137.0316080  63.9918244 103.9837541 139.6693862  73.8230952 106.6911846
 139.5179369  73.5941503 105.7741930 139.6598542  74.7801553 106.7043191
 136.4379199  71.3962865 101.6758112 137.3671259  71.5474024 101.5027080
 136.0170229  71.4846885 100.8206759 135.2367531  75.4213529  99.4456650
 135.0978616  75.0532313 100.3182588 134.4482127  75.9361168  99.2740608
 135.8315682  80.5222625  90.7882187 136.0067438  80.0510669  91.6027809
 135.1448471  81.1488392  91.0163447 136.7872746  74.7995132  96.8345488
 136.4522578  74.7595902  97.7303138 136.2876691  74.1339848  96.3615898
 130.7616990  70.2062762 102.3598069 130.6236788  69.4743000 102.9609608
 131.6721913  70.1171662 102.0782257 139.7231937  72.1451166  87.1082548
 139.1061108  71.4197994  87.0115600 139.2548426  72.9060526  86.7649622
 133.3899290  69.9182721 101.8481749 134.0998909  69.2775913 101.8068367
 133.3468598  70.1695616 102.7707929 132.1028224  66.9047939 103.6677388
 131.5665581  66.4538677 104.3198984 131.5144933  67.0393848 102.9247852
 130.3976768  83.6711988  97.5622047 130.6373366  84.3030512  98.2401065
 129.5545964  83.3200028  97.8487406 131.5130483  66.3636590  86.2303852
 130.6359950  66.2425391  85.8666098 131.9888236  65.5722669  85.9782740
 123.0332623  71.1513750  96.3245359 123.7203663  70.8375480  95.7366374
 122.8780752  72.0555115  96.0512610 127.8367346  66.0403947 100.7530383
 127.7525534  65.4329616 100.0180793 127.0150052  66.5312965 100.7539879
 134.9104630  79.4791111  99.9663551 134.8374801  80.2846082 100.4782855
 134.4682023  79.6783076  99.1411572 134.6994409  78.7162881  93.4766372
 133.9161931  79.2584561  93.5704597 135.3987154  79.2336860  93.8760613
 138.0091059  64.5257510  96.1200578 138.5059759  63.7727472  95.8001648
 137.2378041  64.5621827  95.5543787 137.3703313  79.3777945 102.1221709
 138.0831285  80.0125409 102.0497611 136.8793342  79.4741811 101.3061711
 139.0920840  73.2829197  93.6939001 138.1577119  73.4030660  93.5243705
 139.2697509  72.3801664  93.4299011 134.5926028  66.6674893  95.8472262
 134.2223816  66.1145933  96.5353168 135.0885121  66.0633027  95.2947262
 132.4215227  77.1272388 102.9427280 133.1224686  77.7608871 103.0956674
 131.9510342  77.4687120 102.1822919 140.5469623  75.4690338  91.2275187
 140.8229466  75.3546932  92.1369061 139.6774121  75.0707823  91.1887360
 140.4510054  61.4927104  98.2679937 139.5373134  61.7231330  98.4362143
 140.8803156  61.5765548  99.1193969 140.2216513  69.6816996 100.7679831
 139.5687963  69.9292903 100.1132283 140.5996893  68.8681134 100.4342308
 137.1823687  79.7176689  94.8708001 137.3646081  78.8998345  95.3335753
 138.0056673  79.9344381  94.4332891 137.5165852  78.6444874  92.1323049
 138.0453618  78.1337328  91.5193211 137.7794072  78.3287404  92.9968582
 136.2704086  70.4236807 107.2545868 135.5944723  70.3230936 107.9248243
 137.0931720  70.2676020 107.7181865 128.0182945  76.6608743  99.8758383
 128.6036382  75.9152431 100.0086287 127.8207783  76.9712700 100.7595047
 130.8721600  79.6959991  94.8920825 130.2031975  80.1806118  94.4084865
 130.7334470  79.9429211  95.8064204 122.6100599  69.2314343  98.5962826
 122.6484699  68.6977934  99.3899944 122.1040892  68.7049549  97.9773803
 135.0126869  81.7303734 101.4903484 135.5645177  81.8935356 102.2552569
 135.3533062  82.3208172 100.8183509 129.9891362  64.0778884 102.0925368
 130.0532688  64.9393715 101.6802766 129.9258482  63.4652886 101.3597727
 129.4643634  66.1502016 105.7398403 130.0915673  65.7679094 106.3535927
 128.6071553  65.9316218 106.1054095 139.8637743  76.5564992 107.3452138
 140.4077647  77.1694950 106.8507093 139.2824588  77.1144570 107.8619151
 126.2409177  67.9578446  91.6716757 126.5362618  67.0489124  91.6183811
 125.3397213  67.9366185  91.3497760 138.1495256  79.6785710  98.4767166
 138.0246395  78.8775449  97.9678111 138.8074347  80.1731903  97.9881136
 129.7703424  66.0334442  97.6544306 129.0490010  66.6470410  97.5151779
 130.5596680  66.5692207  97.5760952 140.2130164  77.4794730 100.1046716
 139.2660500  77.3600081 100.0325043 140.5612937  76.5917228 100.1872977
 132.5729738  63.3688869 103.9284958 133.0964139  63.6151165 104.6911267
 132.3542071  64.2008903 103.5088095 127.9697019  65.6392543  91.7956083
 127.6409725  64.7589922  91.6131189 128.3236389  65.5840212  92.6832472
 137.2176598  77.2747446  96.3051068 137.0701560  76.3464153  96.4858638
 138.0430091  77.2967537  95.8208143 131.0838842  65.9265513  92.1631560
 131.4234914  66.4551434  91.4410169 131.5310962  66.2645919  92.9390127
 133.7782283  64.3102564 101.6134628 133.4379103  63.5110377 102.0155308
 133.0721289  64.6104275 101.0411462 134.4298754  61.3951876 100.0661951
 135.2524824  60.9212354  99.9440842 134.6736818  62.1742360 100.5660638
 133.0706989  64.4240135  90.3624853 133.7915351  64.8021387  89.8588570
 132.4472293  65.1429011  90.4659831 137.2138112  65.1285284  91.2983185
 137.4301726  66.0109921  90.9972014 136.7332179  64.7371497  90.5688827
 131.9537333  68.0870997  97.8753930 131.8081914  68.4011300  98.7678211
 131.4762537  68.7055897  97.3224829 133.8133716  65.0773545  97.9234820
 133.7995285  64.1814638  97.5867117 134.5306144  65.0844208  98.5573106
 135.6659847  65.5110885  99.9687947 135.4077625  66.4327956  99.9672277
 135.1344887  65.1141319 100.6588411 140.6106036  78.6161672  92.7478032
 140.7842913  78.0508095  91.9951885 141.1034927  79.4162567  92.5657522
 126.4282995  70.6276341 100.8141591 125.8836463  71.4036149 100.9461865
 127.3062345  70.9747146 100.6560713 133.2170612  63.9587925  93.1922390
 133.3386523  63.0304571  93.3913277 132.9272654  63.9726611  92.2800705
 136.0861802  61.6442835  96.3289109 136.1083499  61.7082169  95.3741089
 136.5029861  60.8047344  96.5229616 127.2149017  69.7546237 103.7071748
 126.4730753  69.9028873 104.2936378 126.8941762  70.0154503 102.8438497
 135.1592680  79.2962216 103.5052138 135.4679806  79.0511362 104.3774838
 135.9568162  79.5008854 103.0171008 135.1813292  81.4500125  95.7357515
 134.7418282  80.9576504  96.4290371 135.9321409  80.9073093  95.4949590
 127.6605631  77.6411666  95.7382143 128.4863651  77.3415438  95.3580786
 127.3099683  76.8719289  96.1871931 132.6287164  76.9938134  97.8079816
 132.0067173  76.3308839  97.5082044 133.2992031  77.0199266  97.1253464
 125.8614236  75.5597993  96.6971076 125.0246144  75.1320167  96.5155077
 125.8337881  75.7530436  97.6341867 132.7011692  65.4719922 107.4012322
 132.7499847  66.3482045 107.0190092 133.2434206  64.9297315 106.8283965
 132.1900671  75.5442058  91.2838277 132.3388791  76.2277522  90.6304950
 132.9967114  75.5247148  91.7987733 134.9310980  66.2251295 104.1558681
 134.0614289  66.5184861 103.8841269 135.1670460  66.8091740 104.8765945
 129.9453304  71.5707235  92.2899346 129.6999346  70.6669565  92.4879556
 130.1149219  71.5724386  91.3478824 137.6350014  62.4430912 101.6724101
 138.1531958  63.1791939 101.3470590 137.2805147  62.7494905 102.5070860
 129.2148952  67.3035593  89.7885507 128.5218196  67.3779948  89.1325543
 128.9700703  66.5395937  90.3107024 137.8862608  58.8631194  97.1924998
 138.1664362  58.1954383  97.8185424 138.6713215  59.0560290  96.6799662
 135.6896077  78.0390188  88.7550024 135.1170044  78.6580375  88.3020496
 136.2628870  78.5889550  89.2889946 139.7785846  64.3704411 101.1255974
 139.1835778  64.6509424 100.4302463 139.4935543  64.8598312 101.8972715
 138.9093336  78.3227338  89.8858606 139.8424009  78.2572900  90.0891482
 138.8216549  79.1583605  89.4273139 136.0742875  69.3751001  86.0966077
 137.0201980  69.2457209  86.1654495 135.6957120  68.6365663  86.5735505
 135.9581568  73.4268747 107.5566734 136.8784577  73.6047346 107.7506780
 135.9231151  72.4824792 107.4046433 134.2585792  67.3000977  86.0320962
 133.3517248  67.0034090  86.1083676 134.5361773  67.0030795  85.1655248
 125.1763733  68.6207341  96.4820008 124.8566517  67.7672649  96.1894382
 124.6297161  68.8355919  97.2377976 128.9543640  71.3369782 100.1989515
 129.1729650  72.2686890 100.2177549 129.3669414  70.9777756 100.9844319
 135.8747858  61.8437867  92.1865203 135.0648586  61.4984952  92.5620449
 136.5632275  61.5345411  92.7752815 137.8038406  60.9215914  93.8089500
 138.3569445  61.3411367  94.4679523 138.0408493  59.9951662  93.8512456
 133.8271505  66.9102987 109.5892264 133.7268232  67.8597344 109.5204355
 133.6093047  66.5821226 108.7168334 133.0284577  64.1587913  86.1732941
 133.8903741  64.4842811  86.4328758 133.2134921  63.3719408  85.6606007
 125.0451993  72.2410252  98.4513130 124.3515464  71.8264205  97.9383084
 125.7924984  72.2830789  97.8546549 141.1817213  63.0316439  93.3168164
 140.6015882  63.6901243  92.9346217 140.9153146  62.2093784  92.9055582
 139.6320780  62.4321497  95.5189484 140.1320558  62.5438031  94.7103803
 140.2756388  62.1282550  96.1590293 133.6902775  70.3400126 108.4057325
 133.2069857  71.1400486 108.6121214 133.7763715  70.3508071 107.4524769
 126.9588735  72.1728506  96.3279145 126.9359423  72.2716193  95.3761028
 127.2689372  73.0193657  96.6496311 129.6176113  74.2304661 100.4425759
 130.5719367  74.1988603 100.3755691 129.4188637  73.7695285 101.2575985
 130.2075495  72.8005777 103.0096557 131.0268384  73.2949856 103.0331394
 130.4812303  71.8837745 102.9814124 139.9642091  65.1916529  92.3724512
 139.0767946  65.4766180  92.1544707 140.3796080  65.0310293  91.5251789
 127.9726342  79.7724281  97.4595957 127.8380810  79.0124681  96.8933955
 127.5558404  80.4965180  96.9924746 139.1085305  74.9561204  86.4672532
 139.8121155  75.1611207  87.0830188 138.3847954  75.5237966  86.7321616
 139.9383115  70.7071065  92.5874803 139.8818316  71.1639617  91.7482435
 140.4911458  69.9461750  92.4097645 131.1295468  80.6693598  97.6714400
 131.0127852  81.6139030  97.5693090 130.3087914  80.3667159  98.0600199
 140.6717894  71.8975847  89.8827332 140.6166698  71.7320118  88.9415776
 140.0463950  72.6051879  90.0389521 125.4610409  67.1343911 103.7088754
 126.1069273  66.6242865 104.1975979 125.2527560  67.8712593 104.2832179
 137.9863802  74.2024758 109.2080894 138.8554961  74.3765411 108.8467529
 137.5070553  75.0219175 109.0856624 133.9814020  61.3983956  89.4612650
 133.9692690  62.3425795  89.6180921 134.8737442  61.2154101  89.1672111
 132.1549982  81.3221859 100.8870328 133.0577228  81.3545470 101.2036823
 131.9287352  80.3922310 100.9016664 133.9103584  80.0752846  97.5480407
 132.9599215  80.0754708  97.4344779 134.2136070  79.3285581  97.0316441
 137.7966139  57.9926732  93.7158587 137.0298535  57.4385219  93.8615269
 138.2076844  58.0648601  94.5772739 129.8007900  64.2811528 107.8063768
 130.6639362  63.9248333 108.0167093 129.2273311  63.9425423 108.4939172
 139.8597231  89.2127480  97.3768805 140.6518523  88.8718305  96.9615105
 140.0993881  89.3222456  98.2970959 139.4284205  85.5821262  97.3183371
 139.5576586  85.8355741  98.2322782 138.7481657  86.1748970  96.9988026
 138.3753631  83.0543275  97.3634413 137.5852685  83.3100803  96.8874523
 138.8664878  83.8691613  97.4686453 140.3268376  83.4187854  94.3217890
 139.5299539  83.5306548  94.8401385 140.0993968  83.7574506  93.4558780
 136.6591334  83.3073765  99.7949404 136.9099372  84.1920775 100.0606980
 137.1950882  83.1278367  99.0224495 139.3251459  89.1276103  92.7107310
 139.8375979  89.9219353  92.8612874 139.9774172  88.4302393  92.6440911
 140.4198700  84.2906491 104.6692226 140.3052215  83.3891748 104.9699325
 139.5643218  84.5370188 104.3177042 137.2900376  87.4564757  93.4866880
 138.1275598  87.8661766  93.2700588 137.4678643  86.5164199  93.4567074
 137.3126547  84.7955472  94.1577614 137.1150947  84.2024833  93.4328680
 136.7573211  84.4907683  94.8753552 139.8072772  84.3219506  91.8418566
 138.8770361  84.2603962  92.0588528 139.9030244  83.7995459  91.0455207
 139.7258322  80.8474319  94.4296807 139.9865139  81.7619652  94.3205968
 140.5475494  80.3798762  94.5793420 133.8726378  86.4805668  96.3245359
 134.5597418  86.1667398  95.7366374 133.7174507  87.3847032  96.0512610
 138.6761100  81.3695864 100.7530383 138.5919289  80.7621534 100.0180793
 137.8543806  81.8604883 100.7539879 138.8576699  91.9900661  99.8758383
 139.4430136  91.2444349 100.0086287 138.6601538  92.3004618 100.7595047
 133.4494354  84.5606261  98.5962826 133.4878453  84.0269852  99.3899944
 132.9434647  84.0341467  97.9773803 140.8285116  79.4070802 102.0925368
 140.8926443  80.2685632 101.6802766 140.7652237  78.7944803 101.3597727
 140.3037389  81.4793934 105.7398403 140.9309428  81.0971011 106.3535927
 139.4465308  81.2608136 106.1054095 137.0802932  83.2870363  91.6716757
 137.3756373  82.3781042  91.6183811 136.1790967  83.2658103  91.3497760
 138.8090773  80.9684461  91.7956083 138.4803479  80.0881840  91.6131189
 139.1630144  80.9132130  92.6832472 137.2676750  85.9568259 100.8141591
 136.7230218  86.7328067 100.9461865 138.1456100  86.3039063 100.6560713
 138.0542772  85.0838155 103.7071748 137.3124508  85.2320790 104.2936378
 137.7335516  85.3446421 102.8438497 138.4999385  92.9703584  95.7382143
 139.3257405  92.6707356  95.3580786 138.1493437  92.2011206  96.1871931
 136.7007990  90.8889910  96.6971076 135.8639899  90.4612085  96.5155077
 136.6731636  91.0822354  97.6341867 140.7847058  86.8999153  92.2899346
 140.5393100  85.9961483  92.4879556 140.9542973  86.9016303  91.3478824
 140.0542706  82.6327511  89.7885507 139.3611951  82.7071866  89.1325543
 139.8094458  81.8687854  90.3107024 136.0157487  83.9499258  96.4820008
 135.6960271  83.0964567  96.1894382 135.4690915  84.1647837  97.2377976
 139.7937395  86.6661699 100.1989515 140.0123404  87.5978807 100.2177549
 140.2063168  86.3069674 100.9844319 135.8845747  87.5702170  98.4513130
 135.1909218  87.1556123  97.9383084 136.6318738  87.6122706  97.8546549
 137.7982490  87.5020424  96.3279145 137.7753178  87.6008111  95.3761028
 138.1083126  88.3485574  96.6496311 138.8120096  95.1016198  97.4595957
 138.6774564  94.3416599  96.8933955 138.3952159  95.8257098  96.9924746
 136.3004164  82.4635829 103.7088754 136.9463027  81.9534783 104.1975979
 136.0921315  83.2004510 104.2832179 100.2408676  11.9412964  80.1419151
 100.1632706  12.8920789  80.2207632  99.6370319  11.5958836  80.7994078
 102.5147045   7.2995117  78.8624691 102.3792720   8.1446652  79.2909539
 103.0556857   7.5014394  78.0990625  97.7771327   7.9336311  81.5175369
  97.9537955   8.8554276  81.3296353  98.5728160   7.6194730  81.9469749
  98.9002642   9.4514485  87.5185712  99.4510067   9.3231548  86.7462706
  98.0614118   9.7509374  87.1680605 105.1143205  11.3729323  75.2980414
 104.4404904  11.6761019  75.9065372 105.5009027  12.1758403  74.9485871
 102.0249192   8.9907848  82.6942157 101.9825370   9.2168694  81.7650689
 102.9411890   8.7571222  82.8427958 104.9609837   8.2488972  86.8416487
 105.0146859   8.8179908  87.6094203 104.0924618   8.4190857  86.4770524
 103.3134420  11.5408995  77.5127493 103.4886176  11.0697038  78.3273116
 102.6267208  12.1674761  77.7408754  97.8795506  14.6898358  84.2867353
  98.1192104  15.3216882  84.9646372  97.0364702  14.3386398  84.5732713
 102.3923367  10.4977480  86.6908857 102.3193539  11.3032452  87.2028162
 101.9500761  10.6969446  85.8656879 102.1813147   9.7349250  80.2011679
 101.3980669  10.2770930  80.2949903 102.8805892  10.2523230  80.6005920
 104.8522051  10.3964314  88.8467016 105.5650023  11.0311779  88.7742918
 104.3612080  10.4928180  88.0307018  99.9033964   8.1458758  89.6672587
 100.6043424   8.7795241  89.8201981  99.4329079   8.4873489  88.9068226
 104.6642424  10.7363058  81.5953308 104.8464819   9.9184714  82.0581060
 105.4875410  10.9530751  81.1578198 104.9984590   9.6631243  78.8568356
 105.5272356   9.1523698  78.2438518 105.2612809   9.3473774  79.7213889
  95.5001683   7.6795113  86.6003690  96.0855119   6.9338801  86.7331594
  95.3026521   7.9899069  87.4840353  98.3540338  10.7146360  81.6166132
  97.6850713  11.1992488  81.1330172  98.2153207  10.9615581  82.5309510
 102.4945606  12.7490104  88.2148790 103.0463914  12.9121725  88.9797876
 102.8351800  13.3394541  87.5428815 105.6313994  10.6972079  85.2012472
 105.5065133   9.8961819  84.6923418 106.2893085  11.1918273  84.7126442
 102.6411418  10.3148585  90.2297445 102.9498544  10.0697732  91.1020144
 103.4386900  10.5195224  89.7416315 102.6632030  12.4686495  82.4602821
 102.2237020  11.9762874  83.1535678 103.4140147  11.9259463  82.2194896
  95.1424369   8.6598036  82.4627449  95.9682389   8.3601808  82.0826093
  94.7918421   7.8905658  82.9117238 100.1105902   8.0124504  84.5325123
  99.4885911   7.3495209  84.2327351 100.7810769   8.0385636  83.8498771
  93.3432974   6.5784362  83.4216383  92.5064882   6.1506537  83.2400384
  93.3156619   6.7716806  84.3587174  99.6719409   6.5628427  78.0083583
  99.8207529   7.2463892  77.3550256 100.4785852   6.5433517  78.5233039
 103.1714814   9.0576558  75.4795331 102.5988781   9.6766745  75.0265803
 103.7447608   9.6075919  76.0135253 106.3912074   9.3413708  76.6103913
 107.3242747   9.2759270  76.8136789 106.3035287  10.1769975  76.1518446
  95.4545080  10.7910650  84.1841264  95.3199547  10.0311051  83.6179262
  95.0377142  11.5151550  83.7170053  98.6114205  11.6879967  84.3959706
  98.4946590  12.6325400  84.2938397  97.7906652  11.3853529  84.7845506
  99.6368720  12.3408229  87.6115635 100.5395966  12.3731839  87.9282130
  99.4106090  11.4108680  87.6261971 101.3922322  11.0939216  84.2725713
 100.4417953  11.0941077  84.1590086 101.6954808  10.3471950  83.7561748
 117.1275015  16.9299754  85.3371476 117.7653425  16.8106501  84.6334816
 117.0095858  17.8780598  85.3959428 113.9364721  16.8827182  85.2733001
 113.5983233  16.7668247  84.3853535 114.8054490  16.4818347  85.2534007
 109.7951537  18.7362658  81.2629891 109.2316402  18.6452595  80.4946179
 109.6803932  17.9162563  81.7432384 114.4184504  18.0362034  91.2319206
 114.4073145  17.6414832  90.3599710 114.5805144  17.3028106  91.8252977
 107.3415969  20.2313850  84.1014112 108.1337261  19.8904675  83.6860411
 107.5812619  20.3408825  85.0216265 115.3751096  22.4033626  76.5744356
 114.7239076  22.9887707  76.1878370 116.1695459  22.9339821  76.6339394
 109.3006723  19.4922763  76.9731491 110.0737599  18.9451750  76.8344367
 109.6532122  20.3567013  77.1845952 111.1391765  20.8199146  90.1798390
 110.8481631  21.7244776  90.0645056 111.7748750  20.8615673  90.8942460
 112.0647972  18.1975994  86.7699750 112.6611545  17.9732016  86.0556713
 112.1222944  17.4560740  87.3725198 111.6373001  15.6515429  74.6049941
 111.8898521  15.1296951  73.8433404 110.6997560  15.4881575  74.7076624
 116.6816284  14.6551208  82.4124684 117.4679373  14.2370631  82.0615101
 116.9454988  15.5597300  82.5806332 116.8526361  20.0924058  77.1113341
 116.2172194  20.1658685  77.8234245 116.5223767  20.6817657  76.4332420
 111.3569289  17.5543535  76.8074316 111.2405548  16.8788439  77.4755400
 111.4671549  17.0675909  75.9906469 113.7000830  17.0153682  80.5121005
 113.3359038  16.4884303  81.2233926 114.5567946  16.6252152  80.3387490
 113.3406317  12.0443582  75.5082353 113.5080720  12.9123819  75.8752824
 113.1503486  12.2070864  74.5843643 116.0981651  20.5060561  87.1748184
 115.7982374  21.4085600  87.0663991 115.7532710  20.2392744  88.0269337
 109.5494132  16.9574358  83.2084888 108.6244628  16.8250572  83.4162580
 109.7978545  17.7368577  83.7054831 113.3195538  14.5001240  76.4929020
 113.1995163  14.9458290  77.3314500 112.6248127  14.8486557  75.9342558
 106.9102943  16.6007631  84.0428677 107.0395324  16.8542110  84.9568089
 106.2300394  17.1935339  83.7233332 111.0802430  27.2704881  80.1419151
 111.0026460  28.2212707  80.2207632 110.4764074  26.9250754  80.7994078
 113.5719660  14.4432747  92.7980518 112.7952994  15.0026667  92.7883383
 114.2110223  14.9289530  93.3195388 119.0180604  14.9722713  77.3209354
 119.9298461  15.2050100  77.1457052 118.5090251  15.5559757  76.7584433
 111.8266032  17.2518200  92.3598485 112.5680717  17.7903244  92.0833309
 111.1203018  17.8784489  92.5170037 117.3021372  19.3947341  90.9570647
 117.7104728  18.9529751  90.2125279 116.5798634  18.8199968  91.2104840
 113.6552442  14.3319947  88.3304204 114.5013637  14.7559361  88.4738853
 113.5951080  13.6753572  89.0242767 117.6250187  19.9548531  84.7122936
 116.9959049  20.1194245  84.0099004 117.2375849  20.3690141  85.4833900
 121.5039419  20.8902969  82.0667299 120.8190457  21.2701871  81.5164333
 121.5883268  21.4998296  82.7999247 118.7590350  18.5362928  88.6662643
 118.9707245  19.1794688  87.9897024 118.7120098  17.7025245  88.1984573
 113.1778149  19.6922939  81.9773021 113.6416494  19.9710642  81.1877643
 112.9134947  18.7906384  81.7946111 110.0702230  19.2394421  84.9152784
 110.6403587  19.6681689  84.2770269 110.6610341  18.9577006  85.6136970
 112.1147035  15.8146092  78.7862586 112.8171078  16.2667135  79.2536512
 111.7827663  15.1729911  79.4142479 110.5627396  14.4057848  93.1613795
 109.9326057  15.0874129  93.3949192 110.4563484  14.2940930  92.2166934
 105.8572369  14.0729644  84.0879719 105.0671423  14.3287173  83.6119830
 106.3483616  14.8877982  84.1931760 119.8736178  21.4134884  86.8385000
 120.6953622  21.0115071  86.5567682 119.8698581  21.3103118  87.7901116
 107.8087114  14.4374224  81.0463196 107.0118277  14.5492918  81.5646692
 107.5812706  14.7760876  80.1804087 113.6392782  20.9618927  88.9945711
 113.7037214  21.4239334  89.8303883 112.9303705  20.3316292  89.1228021
 104.1410072  14.3260135  86.5194710 104.3918110  15.2107145  86.7852286
 104.6769620  14.1464736  85.7469802 127.9642171  17.7573632  83.1869972
 127.2105880  17.1881030  83.0313976 128.0989712  17.7236297  84.1340606
 113.3540799  22.6287034  78.8624691 113.2186474  23.4738570  79.2909539
 113.8950612  22.8306312  78.0990625 106.8070197  20.1462472  79.4352616
 107.3194717  20.9405723  79.5858181 107.4592909  19.4488763  79.3686218
 108.6165081  23.2628229  81.5175369 108.7931710  24.1846193  81.3296353
 109.4121915  22.9486648  81.9469749 107.9017438  15.3092861  91.3937533
 107.7870953  14.4078118  91.6944632 107.0461956  15.5556557  91.0422349
 114.9809276  23.2510601  92.9925033 114.5373130  22.4646979  92.6745938
 115.6426489  23.4389751  92.3268924 109.7396397  24.7806402  87.5185712
 110.2903822  24.6523466  86.7462706 108.9007873  25.0801291  87.1680605
 117.0790514  23.5313401  91.0206434 117.0608989  24.3522282  90.5286704
 118.0010434  23.4067476  91.2456576 113.5363568  21.0457530  91.8629943
 114.0691905  20.2845818  91.6329251 113.0077649  20.7531182  92.6054097
 104.7719113  18.4751127  80.2112187 105.6094335  18.8848135  79.9945894
 104.9497381  17.5350569  80.1812381 116.6683546  16.1426207  75.8996020
 116.1530169  16.9130812  76.1384407 116.3960854  15.4691344  76.5229081
 121.6417820  18.8958562  77.8349193 120.8647262  18.5569722  77.3904355
 122.3209301  18.9011185  77.1604158 116.4569849  14.0153299  77.7255801
 116.1519984  14.3299449  78.5765944 117.4100291  14.0934719  77.7683134
 114.9016281  20.1743523  79.3748755 114.3737642  19.4396282  79.0621992
 114.4003783  20.9518199  79.1288723 119.8809127  18.3692543  84.4915801
 119.2232801  19.0591805  84.5795930 120.6849526  18.7588975  84.8349788
 109.6335008  10.8363189  81.7355366 110.2078760  10.6138371  81.0028559
 110.2205991  10.9051884  82.4883968 118.6914585  16.7236916  82.5419743
 119.2046467  17.3566908  83.0441453 119.3415809  16.1238111  82.1763103
 109.9604595  12.8667650  75.7551252 109.1241908  13.2042337  76.0760526
 109.8209365  12.7316630  74.8178389 113.0468881  17.9923733  72.3783728
 112.1395942  17.7612986  72.5774877 113.5439913  17.1961352  72.5657709
 115.9536960  26.7021240  75.2980414 115.2798658  27.0052937  75.9065372
 116.3402782  27.5050321  74.9485871 115.1695416  14.1986372  84.7878083
 114.2517978  14.4201319  84.6299771 115.5855560  14.2732682  83.9289791
 115.9530464  15.5977787  79.9180764 116.7002283  16.1099184  79.6087886
 116.2222054  15.2761840  80.7785157 114.2257114  18.0936328  76.9007718
 113.3168333  17.8095361  76.9980188 114.2552198  18.5135406  76.0411025
 119.4576382  21.7042917  80.6698886 119.0038709  20.8633827  80.7264076
 118.8270348  22.3404316  81.0073666 117.9009321  23.5419414  81.6048704
 118.1932295  24.1024471  80.8861069 118.4107941  23.8347975  82.3601863
 104.7945285  15.8141842  80.8822920 104.5969684  15.2211203  80.1573987
 104.2391949  15.5094052  81.5998859 112.7742008  15.7064949  83.0017513
 112.8290618  14.7538785  82.9259990 111.9633210  15.8624388  83.4858812
 113.9233202  19.6345072  74.2395797 113.4852632  18.9180931  73.7801434
 114.6643643  19.8621186  73.6780888 110.7134368  14.3242008  80.7607892
 109.9002234  14.6236179  81.1673084 111.2093362  13.9297697  81.4782374
 112.8642946  24.3199765  82.6942157 112.8219125  24.5460611  81.7650689
 113.7805645  24.0863140  82.8427958 116.3108580  14.7883833  89.5922786
 116.6657968  15.0155306  90.4517252 116.9580711  15.1202210  88.9700041
 122.0406317  17.9102269  80.2972115 121.9024215  18.1003865  79.3693304
 121.6842536  18.6721651  80.7540166 110.2048443  11.8960364  86.3769127
 110.8447822  11.7549123  85.6792090 109.3725973  11.6094877  86.0007729
 122.0675696  19.9778796  85.3083387 122.5012203  19.8854085  86.1566441
 122.7807277  19.9536296  84.6703403 110.9808747  21.1962794  82.4904120
 111.7749345  20.7013114  82.2886695 110.2700439  20.6680657  82.1271825
 115.8003591  23.5780890  86.8416487 115.8540614  24.1471826  87.6094203
 114.9318373  23.7482775  86.4770524 107.2891510  15.3405876  78.5663872
 106.3589098  15.2790331  78.7833834 107.3848982  14.8181829  77.7700514
 107.2077059  11.8660689  81.1542114 107.4683877  12.7806022  81.0451274
 108.0294232  11.3985131  81.3038727 108.6801985  13.2798446  88.3240938
 109.3525038  13.0715808  87.6753587 107.8531771  13.0820532  87.8846171
 122.9291246  20.0202496  87.8416272 123.1227136  20.9248307  88.0875547
 122.8291864  19.5609915  88.6754857 117.9906355  20.1709239  93.4157153
 117.8391861  19.9419791  92.4987236 117.9811034  21.1279840  93.4288498
 114.7591691  17.7441152  88.4003419 115.6883751  17.8952311  88.2272386
 114.3382721  17.8325173  87.5452066 113.5580023  21.7691816  86.1701957
 113.4191108  21.4010601  87.0427895 112.7694619  22.2839456  85.9985915
 114.1528175  26.8700913  77.5127493 114.3279930  26.3988956  78.3273116
 113.4660963  27.4966679  77.7408754 115.1085238  21.1473419  83.5590794
 114.7735071  21.1074189  84.4548444 114.6089184  20.4818135  83.0861205
 109.0829482  16.5541049  89.0843376 108.9449280  15.8221288  89.6854915
 109.9934405  16.4649949  88.8027563 118.0444430  18.4929453  73.8327854
 117.4273600  17.7676281  73.7360907 117.5760918  19.2538814  73.4894928
 111.7111783  16.2661008  88.5727055 112.4211401  15.6254200  88.5313674
 111.6681091  16.5173903  89.4953236 119.6998561  23.2028362  91.4933635
 119.6411107  22.5187582  90.8264218 120.1018080  23.9447352  91.0414260
 110.4240717  13.2526226  90.3922695 109.8878074  12.8016965  91.0444291
 109.8357425  13.3872135  89.6493159 108.7189260  30.0190275  84.2867353
 108.9585858  30.6508800  84.9646372 107.8758457  29.6678315  84.5732713
 109.8342976  12.7114878  72.9549158 108.9572442  12.5903678  72.5911405
 110.3100729  11.9200956  72.7028047 119.7015969  21.1667946  89.7247614
 118.8142747  20.8293867  89.8474013 120.2714520  20.4350977  89.9616380
 101.3545116  17.4992037  83.0490666 102.0416155  17.1853767  82.4611681
 101.1993244  18.4033402  82.7757917 106.1579838  12.3882234  87.4775689
 106.0738027  11.7807903  86.7426099 105.3362544  12.8791252  87.4785186
 113.2317122  25.8269398  86.6908857 113.1587293  26.6324369  87.2028162
 112.7894515  26.0261364  85.8656879 113.0206902  25.0641168  80.2011679
 112.2374423  25.6062848  80.2949903 113.7199647  25.5815148  80.6005920
 124.1833309  16.5776163  84.4864176 124.1723185  17.4600878  84.1158109
 123.3150688  16.2247714  84.2918713 115.6915805  25.7256232  88.8467016
 116.4043778  26.3603697  88.7742918 115.2005834  25.8220098  88.0307018
 117.4133332  19.6307485  80.4184308 116.4789611  19.7508947  80.2489012
 117.5910001  18.7279951  80.1544318 112.9138520  13.0153180  82.5717569
 112.5436308  12.4624221  83.2598474 113.4097613  12.4111314  82.0192569
 120.8005884  15.4724804  80.9534342 121.2666336  16.3052795  80.8794645
 121.2513384  15.0069785  81.6579600 110.7427719  23.4750675  89.6672587
 111.4437178  24.1087158  89.8201981 110.2722834  23.8165407  88.9068226
 118.8682115  21.8168625  77.9520494 119.1441959  21.7025220  78.8614368
 117.9986614  21.4186110  77.9132667 118.5429005  16.0295283  87.4925137
 117.8900455  16.2771190  86.8377590 118.9209385  15.2159421  87.1587615
 115.5036179  26.0654976  81.5953308 115.6858573  25.2476632  82.0581060
 116.3269165  26.2822668  81.1578198 115.8378344  24.9923161  78.8568356
 116.3666111  24.4815616  78.2438518 116.1006564  24.6765691  79.7213889
 114.5916578  16.7715094  93.9791174 113.9157215  16.6709223  94.6493550
 115.4144212  16.6154308  94.4427172 106.3395437  23.0087030  86.6003690
 106.9248874  22.2630718  86.7331594 106.1420275  23.3190987  87.4840353
 109.1934092  26.0438278  81.6166132 108.5244468  26.5284405  81.1330172
 109.0546962  26.2907498  82.5309510 100.9313092  15.5792631  85.3208133
 100.9697191  15.0456221  86.1145251 100.4253385  15.0527836  84.7019110
 113.3339361  28.0782021  88.2148790 113.8857669  28.2413643  88.9797876
 113.6745554  28.6686459  87.5428815 108.3103854  10.4257171  88.8170675
 108.3745181  11.2872002  88.4048073 108.2470974   9.8131173  88.0843034
 107.7856127  12.4980304  92.4643709 108.4128165  12.1157381  93.0781234
 106.9284045  12.2794506  92.8299402 118.1850235  22.9043279  94.0697445
 118.7290139  23.5173237  93.5752400 117.6037080  23.4622857  94.5864458
 104.5621669  14.3056733  78.3962064 104.8575110  13.3967411  78.3429118
 103.6609705  14.2844472  78.0743066 116.4707748  26.0263997  85.2012472
 116.3458888  25.2253737  84.6923418 117.1286839  26.5210190  84.7126442
 108.0915916  12.3812729  84.3789613 107.3702502  12.9948697  84.2397086
 108.8809172  12.9170494  84.3006259 118.5342657  23.8273017  86.8292023
 117.5872992  23.7078368  86.7570349 118.8825430  22.9395515  86.9118284
 106.2909511  11.9870830  78.5201389 105.9622217  11.1068209  78.3376495
 106.6448882  11.9318499  79.4077778 115.5389090  23.6225733  83.0296375
 115.3914052  22.6942441  83.2103945 116.3642583  23.6445824  82.5453450
 109.4051334  12.2743800  78.8876867 109.7447407  12.8029721  78.1655475
 109.8523455  12.6124206  79.6635433 119.1423212  24.4454292  84.1161248
 120.0669759  24.2397153  83.9785699 118.9738515  24.1970693  85.0250589
 111.3919481  10.7718422  77.0870160 112.1127844  11.1499675  76.5833877
 110.7684785  11.4907299  77.1905138 110.2749826  14.4349284  84.5999237
 110.1294406  14.7489587  85.4923518 109.7975029  15.0534184  84.0470135
 113.9872339  11.8589172  86.6933254 113.7290117  12.7806243  86.6917584
 113.4557379  11.4619607  87.3833718 118.9318528  24.9639959  79.4723339
 119.1055405  24.3986382  78.7197191 119.4247419  25.7640854  79.2902829
 104.7495488  16.9754628  87.5386898 104.2048956  17.7514436  87.6707172
 105.6274838  17.3225433  87.3806019 124.7857919  17.7276382  81.0913639
 125.2289065  16.9783707  80.6932762 123.9084429  17.7186519  80.7087371
 119.9193700  24.2806724  76.5720237 120.6144605  24.9013416  76.7907552
 120.2616850  23.4302075  76.8472615 105.5361510  16.1024525  90.4317055
 104.7943246  16.2507160  91.0181685 105.2154254  16.3632790  89.5683804
 121.8185123  21.7306429  78.1007568 122.3436448  22.0693702  77.3756888
 121.7307476  20.7953445  77.9170703 113.4805172  25.6440503  90.2297445
 113.7892299  25.3989650  91.1020144 114.2780654  25.8487141  89.7416315
 113.5025784  27.7978413  82.4602821 113.0630775  27.3054791  83.1535678
 114.2533901  27.2551380  82.2194896 105.9818123  23.9889953  82.4627449
 106.8076143  23.6893725  82.0826093 105.6312175  23.2197576  82.9117238
 110.9499656  23.3416422  84.5325123 110.3279666  22.6787127  84.2327351
 111.6204523  23.3677554  83.8498771 104.1826728  21.9076280  83.4216383
 103.3458637  21.4798454  83.2400384 104.1550374  22.1008723  84.3587174
 111.0224184  11.8198210  94.1257629 111.0712339  12.6960332  93.7435399
 111.5646698  11.2775603  93.5529272 121.5079030  22.3639333  93.4058766
 120.7174573  22.3463472  92.8663265 121.2712384  22.9027627  94.1607803
 121.6276905  19.2131799  90.7191495 121.6774910  19.0481807  91.6607017
 121.5190828  18.3459058  90.3289375 110.5113163  21.8920345  78.0083583
 110.6601284  22.5755809  77.3550256 111.3179607  21.8725435  78.5233039
 118.9180667  15.1962727  92.0350801 119.8190530  15.0569192  91.7434799
 118.9928641  15.3617182  92.9748979 113.2523472  12.5729582  90.8803988
 112.3826782  12.8663148  90.6086576 113.4882953  13.1570027  91.6011251
 123.1295101  21.6328741  90.9633516 122.8379910  21.9958721  91.7996977
 122.5167233  20.9195749  90.7846848 124.3290784  19.1981621  83.4836086
 125.1637675  19.6371425  83.6473647 124.4649913  18.7220274  82.6644332
 121.3782290  16.7561355  89.4313574 121.8536411  16.9489002  88.6232425
 120.4547855  16.8120541  89.1856958 108.2665796  17.9185523  79.0144652
 108.0211838  17.0147853  79.2124862 108.4361711  17.9202673  78.0724130
 107.5361444  13.6513880  76.5130814 106.8430689  13.7258235  75.8570850
 107.2913196  12.8874224  77.0352331 114.0108569  24.3868475  75.4795331
 113.4382536  25.0058663  75.0265803 114.5841362  24.9367837  76.0135253
 117.2305829  24.6705626  76.6103913 118.1636502  24.6051187  76.8136789
 117.1429041  25.5061892  76.1518446 119.8593845  23.9871496  73.5707861
 119.7807477  23.6531359  74.4643619 120.6803512  24.4793264  73.5699333
 122.5572036  16.8533235  86.7784179 122.5248357  15.9149236  86.9643863
 123.1672660  16.9317272  86.0450004 114.3955367  15.7229288  72.8211383
 115.3414472  15.5935496  72.8899801 114.0169612  14.9843950  73.2980812
 128.3748586  17.9149242  85.9190216 129.1051975  17.6534530  86.4797919
 127.7655532  17.1777964  85.9592284 126.4563883  16.0557105  86.5164667
 125.7297047  15.9213070  85.9081159 126.0411170  16.3633933  87.3221385
 114.2794060  19.7747034  94.2812040 115.1997069  19.9525633  94.4752087
 114.2443643  18.8303080  94.1291740 112.5798284  13.6479265  72.7566269
 111.6729740  13.3512377  72.8328982 112.8574265  13.3509083  71.8900555
 103.4976225  14.9685628  83.2065315 103.1779009  14.1150936  82.9139689
 102.9509653  15.1834206  83.9623282 107.2756132  17.6848069  86.9234821
 107.4942142  18.6165177  86.9422855 107.6881906  17.3256043  87.7089625
 112.1483998  13.2581275  96.3137570 112.0480725  14.2075632  96.2449662
 111.9305540  12.9299514  95.4413641 103.3664485  18.5888539  85.1758437
 102.6727956  18.1742492  84.6628391 104.1137476  18.6309076  84.5791855
 112.0115268  16.6878414  95.1302632 111.5282349  17.4878774  95.3366521
 112.0976207  16.6986358  94.1770076 105.2801227  18.5206793  83.0524451
 105.2571915  18.6194481  82.1006335 105.5901864  19.3671944  83.3741618
 107.9388605  20.5782948  87.1671066 108.8931859  20.5466891  87.1000997
 107.7401129  20.1173572  87.9821292 108.5287987  19.1484064  89.7341864
 109.3480876  19.6428143  89.7576701 108.8024795  18.2316032  89.7059431
 106.2938834  26.1202568  84.1841264 106.1593302  25.3602969  83.6179262
 105.8770896  26.8443468  83.7170053 117.4297797  21.3039491  73.1917839
 118.1333647  21.5089494  73.8075495 116.7060446  21.8716253  73.4566923
 118.2595607  17.0549353  79.3120109 118.2030809  17.5117904  78.4727742
 118.8123950  16.2940037  79.1342952 109.4507960  27.0171885  84.3959706
 109.3340344  27.9617317  84.2938397 108.6300406  26.7145446  84.7845506
 119.3384494  21.7422020  75.2416299 120.1730098  21.3103219  75.0593774
 119.1768837  21.5704034  76.1693194 118.9930387  18.2454134  76.6072638
 118.9379190  18.0798405  75.6661082 118.3676442  18.9530167  76.7634828
 103.7822902  13.4822198  90.4334061 104.4281765  12.9721152  90.9221286
 103.5740053  14.2190880  91.0077486 116.3076294  20.5503046  95.9326201
 117.1767453  20.7243698  95.5712836 115.8283045  21.3697462  95.8101930
 110.4762474  27.6700147  87.6115635 111.3789721  27.7023757  87.9282130
 110.2499844  26.7400598  87.6261971 112.2316076  26.4231133  84.2725713
 111.2811707  26.4232995  84.1590086 112.5348562  25.6763868  83.7561748
 108.1220393  10.6289815  94.5309075 108.9851854  10.2726620  94.7412399
 107.5485803  10.2903710  95.2184479 127.9668770  32.2591672  85.3371476
 128.6047179  32.1398419  84.6334816 127.8489612  33.2072516  85.3959428
 124.7758476  32.2119100  85.2733001 124.4376987  32.0960164  84.3853535
 125.6448244  31.8110265  85.2534007 120.6345292  34.0654576  81.2629891
 120.0710157  33.9744513  80.4946179 120.5197687  33.2454481  81.7432384
 125.2578259  33.3653951  91.2319206 125.2466900  32.9706750  90.3599710
 125.4198898  32.6320024  91.8252977 118.1809723  35.5605768  84.1014112
 118.9731015  35.2196592  83.6860411 118.4206374  35.6700743  85.0216265
 126.2144850  37.7325544  76.5744356 125.5632830  38.3179624  76.1878370
 127.0089213  38.2631739  76.6339394 120.1400477  34.8214681  76.9731491
 120.9131353  34.2743668  76.8344367 120.4925876  35.6858930  77.1845952
 121.9785520  36.1491063  90.1798390 121.6875386  37.0536694  90.0645056
 122.6142504  36.1907591  90.8942460 122.9041727  33.5267912  86.7699750
 123.5005299  33.3023934  86.0556713 122.9616698  32.7852657  87.3725198
 122.4766755  30.9807347  74.6049941 122.7292276  30.4588868  73.8433404
 121.5391314  30.8173493  74.7076624 127.5210038  29.9843125  82.4124684
 128.3073127  29.5662549  82.0615101 127.7848742  30.8889218  82.5806332
 127.6920115  35.4215976  77.1113341 127.0565948  35.4950602  77.8234245
 127.3617522  36.0109575  76.4332420 132.9218465  29.9218359  83.3157662
 133.6543637  29.3517575  83.5495492 132.1657821  29.5339959  83.7564168
 122.1963044  32.8835453  76.8074316 122.0799302  32.2080356  77.4755400
 122.3065304  32.3967827  75.9906469 124.5394585  32.3445600  80.5121005
 124.1752792  31.8176221  81.2233926 125.3961701  31.9544069  80.3387490
 130.4443885  23.6339933  87.7752271 130.1127210  24.5035344  87.5513486
 129.8489499  23.3176217  88.4546301 124.1800072  27.3735500  75.5082353
 124.3474474  28.2415736  75.8752824 123.9897241  27.5362782  74.5843643
 126.9375405  35.8352479  87.1748184 126.6376128  36.7377518  87.0663991
 126.5926465  35.5684662  88.0269337 120.3887887  32.2866276  83.2084888
 119.4638383  32.1542490  83.4162580 120.6372300  33.0660495  83.7054831
 130.3372549  28.3535019  84.8545621 129.4289426  28.2850427  84.5604382
 130.2860145  28.8306964  85.6827447 124.1589293  29.8293157  76.4929020
 124.0388918  30.2750208  77.3314500 123.4641881  30.1778475  75.9342558
 117.7496698  31.9299549  84.0428677 117.8789079  32.1834028  84.9568089
 117.0694149  32.5227257  83.7233332 121.9196185  42.5996799  80.1419151
 121.8420215  43.5504624  80.2207632 121.3157828  42.2542672  80.7994078
 124.4113415  29.7724665  92.7980518 123.6346749  30.3318585  92.7883383
 125.0503978  30.2581448  93.3195388 132.2034195  26.5551457  86.6323495
 131.5608575  26.8483990  85.9863290 131.6989124  26.4404378  87.4376692
 129.8574359  30.3014631  77.3209354 130.7692215  30.5342017  77.1457052
 129.3484006  30.8851675  76.7584433 122.6659787  32.5810118  92.3598485
 123.4074471  33.1195162  92.0833309 121.9596772  33.2076407  92.5170037
 128.1415127  34.7239258  90.9570647 128.5498483  34.2821669  90.2125279
 127.4192388  34.1491886  91.2104840 124.4946197  29.6611865  88.3304204
 125.3407392  30.0851279  88.4738853 124.4344834  29.0045489  89.0242767
 128.4643941  35.2840449  84.7122936 127.8352804  35.4486163  84.0099004
 128.0769603  35.6982059  85.4833900 132.3433173  36.2194887  82.0667299
 131.6584211  36.5993788  81.5164333 132.4277022  36.8290213  82.7999247
 127.6445642  27.3216233  89.9885377 127.4006574  28.0758294  89.4519653
 127.9205572  27.7001581  90.8232624 129.5984105  33.8654846  88.6662643
 129.8101000  34.5086606  87.9897024 129.5513853  33.0317162  88.1984573
 127.2010334  26.4772666  85.5699215 126.3394813  26.7753920  85.8615953
 127.2272768  26.6943065  84.6380248 124.0171903  35.0214857  81.9773021
 124.4810249  35.3002560  81.1877643 123.7528701  34.1198302  81.7946111
 120.9095984  34.5686339  84.9152784 121.4797341  34.9973607  84.2770269
 121.5004096  34.2868923  85.6136970 122.9540789  31.1438009  78.7862586
 123.6564832  31.5959053  79.2536512 122.6221418  30.5021828  79.4142479
 121.4021151  29.7349766  93.1613795 120.7719811  30.4166047  93.3949192
 121.2957239  29.6232848  92.2166934 116.6966123  29.4021562  84.0879719
 115.9065177  29.6579091  83.6119830 117.1877370  30.2169900  84.1931760
 130.7129933  36.7426801  86.8385000 131.5347376  36.3406989  86.5567682
 130.7092336  36.6395035  87.7901116 118.6480868  29.7666141  81.0463196
 117.8512032  29.8784836  81.5646692 118.4206461  30.1052794  80.1804087
 124.4786536  36.2910845  88.9945711 124.5430969  36.7531252  89.8303883
 123.7697460  35.6608209  89.1228021 114.9803826  29.6552053  86.5194710
 115.2311864  30.5399062  86.7852286 115.5163374  29.4756654  85.7469802
 138.8035926  33.0865550  83.1869972 138.0499634  32.5172948  83.0313976
 138.9383467  33.0528214  84.1340606 124.1934554  37.9578952  78.8624691
 124.0580229  38.8030488  79.2909539 124.7344366  38.1598230  78.0990625
 120.6801893  24.0370532  95.5239046 120.2868839  23.4836730  96.1986691
 121.4968034  24.3481110  95.9145564 117.6463951  35.4754390  79.4352616
 118.1588472  36.2697640  79.5858181 118.2986664  34.7780681  79.3686218
 119.4558836  38.5920146  81.5175369 119.6325464  39.5138111  81.3296353
 120.2515669  38.2778566  81.9469749 123.5969854  25.4528411  93.1159303
 124.3379568  26.0535564  93.0363765 123.8287777  24.7106049  92.5577345
 118.7411192  30.6384778  91.3937533 118.6264708  29.7370035  91.6944632
 117.8855710  30.8848475  91.0422349 125.8203030  38.5802519  92.9925033
 125.3766884  37.7938897  92.6745938 126.4820244  38.7681669  92.3268924
 120.5790151  40.1098320  87.5185712 121.1297576  39.9815384  86.7462706
 119.7401627  40.4093209  87.1680605 127.9184268  38.8605318  91.0206434
 127.9002744  39.6814200  90.5286704 128.8404188  38.7359394  91.2456576
 124.3757322  36.3749448  91.8629943 124.9085659  35.6137736  91.6329251
 123.8471403  36.0823100  92.6054097 127.5427017  21.4809514  87.3923585
 127.1991287  22.3711156  87.3162695 127.9105980  21.2911172  86.5293170
 115.6112868  33.8043044  80.2112187 116.4488090  34.2140053  79.9945894
 115.7891136  32.8642487  80.1812381 127.5077300  31.4718125  75.8996020
 126.9923923  32.2422730  76.1384407 127.2354608  30.7983261  76.5229081
 125.0924411  26.3167826  80.9581258 124.2366007  25.9274676  80.7786897
 125.5051363  26.3959787  80.0981044 126.6223558  23.8514169  85.3572818
 126.1188353  23.8144304  84.5440623 126.9154165  24.7606912  85.4169475
 122.8666444  23.9352899  84.3639000 123.7319440  23.7395707  84.0044889
 122.9343952  23.7063251  85.2908356 132.4811574  34.2250480  77.8349193
 131.7041017  33.8861639  77.3904355 133.1603055  34.2303103  77.1604158
 127.2963603  29.3445217  77.7255801 126.9913739  29.6591366  78.5765944
 128.2494045  29.4226637  77.7683134 125.7410035  35.5035440  79.3748755
 125.2131397  34.7688200  79.0621992 125.2397538  36.2810117  79.1288723
 130.7202881  33.6984461  84.4915801 130.0626556  34.3883722  84.5795930
 131.5243280  34.0880893  84.8349788 120.4728763  26.1655107  81.7355366
 121.0472515  25.9430288  81.0028559 121.0599745  26.2343801  82.4883968
 129.5308340  32.0528834  82.5419743 130.0440222  32.6858825  83.0441453
 130.1809564  31.4530029  82.1763103 120.7998350  28.1959568  75.7551252
 119.9635662  28.5334254  76.0760526 120.6603119  28.0608548  74.8178389
 122.7751430  23.0396356  80.4630436 122.1215843  22.7245373  79.8387051
 122.7331905  22.4172096  81.1890259 123.8862635  33.3215651  72.3783728
 122.9789697  33.0904904  72.5774877 124.3833667  32.5253270  72.5657709
 126.7930714  42.0313158  75.2980414 126.1192413  42.3344855  75.9065372
 127.1796536  42.8342238  74.9485871 126.0089171  29.5278289  84.7878083
 125.0911732  29.7493236  84.6299771 126.4249314  29.6024600  83.9289791
 126.7924218  30.9269705  79.9180764 127.5396037  31.4391102  79.6087886
 127.0615808  30.6053758  80.7785157 125.0650869  33.4228246  76.9007718
 124.1562088  33.1387278  76.9980188 125.0945952  33.8427324  76.0411025
 130.2970136  37.0334835  80.6698886 129.8432463  36.1925745  80.7264076
 129.6664103  37.6696233  81.0073666 129.2403056  27.9626821  81.8999553
 128.5025812  27.4504207  82.2309796 129.4929829  27.5227203  81.0882830
 128.7403075  38.8711332  81.6048704 129.0326050  39.4316389  80.8861069
 129.2501696  39.1639893  82.3601863 129.3414683  20.7403073  82.4941322
 129.6473560  19.8800437  82.2067237 130.0667288  21.3320693  82.2940316
 115.6339039  31.1433760  80.8822920 115.4363439  30.5503120  80.1573987
 115.0785703  30.8385970  81.5998859 123.6135763  31.0356866  83.0017513
 123.6684372  30.0830703  82.9259990 122.8026965  31.1916305  83.4858812
 124.7626956  34.9636989  74.2395797 124.3246386  34.2472848  73.7801434
 125.5037397  35.1913104  73.6780888 121.5528123  29.6533926  80.7607892
 120.7395988  29.9528096  81.1673084 122.0487117  29.2589615  81.4782374
 123.7036701  39.6491683  82.6942157 123.6612879  39.8752529  81.7650689
 124.6199399  39.4155057  82.8427958 127.1502334  30.1175750  89.5922786
 127.5051722  30.3447224  90.4517252 127.7974466  30.4494127  88.9700041
 132.8800071  33.2394186  80.2972115 132.7417970  33.4295782  79.3693304
 132.5236290  34.0013569  80.7540166 121.0442197  27.2252281  86.3769127
 121.6841577  27.0841041  85.6792090 120.2119728  26.9386795  86.0007729
 132.9069451  35.3070713  85.3083387 133.3405958  35.2146002  86.1566441
 133.6201032  35.2828214  84.6703403 121.8202501  36.5254712  82.4904120
 122.6143100  36.0305032  82.2886695 121.1094194  35.9972575  82.1271825
 126.6397346  38.9072807  86.8416487 126.6934368  39.4763744  87.6094203
 125.7712127  39.0774692  86.4770524 118.1285265  30.6697794  78.5663872
 117.1982853  30.6082249  78.7833834 118.2242737  30.1473746  77.7700514
 118.0470814  27.1952606  81.1542114 118.3077631  28.1097940  81.0451274
 118.8687986  26.7277049  81.3038727 119.5195739  28.6090364  88.3240938
 120.1918793  28.4007726  87.6753587 118.6925526  28.4112450  87.8846171
 133.7685000  35.3494414  87.8416272 133.9620891  36.2540224  88.0875547
 133.6685619  34.8901833  88.6754857 125.4221311  25.2352305  90.3406599
 124.7749226  25.9342254  90.2471076 126.1922327  25.6688448  90.7082848
 128.8300109  35.5001157  93.4157153 128.6785616  35.2711708  92.4987236
 128.8204789  36.4571758  93.4288498 125.5985446  33.0733069  88.4003419
 126.5277506  33.2244229  88.2272386 125.1776476  33.1617090  87.5452066
 124.3973777  37.0983734  86.1701957 124.2584863  36.7302518  87.0427895
 123.6088374  37.6131373  85.9985915 124.9921929  42.1992830  77.5127493
 125.1673685  41.7280874  78.3273116 124.3054717  42.8258597  77.7408754
 125.9478992  36.4765337  83.5590794 125.6128825  36.4366107  84.4548444
 125.4482938  35.8110052  83.0861205 119.9223236  31.8832967  89.0843376
 119.7843034  31.1513205  89.6854915 120.8328160  31.7941867  88.8027563
 128.8838184  33.8221371  73.8327854 128.2667355  33.0968199  73.7360907
 128.4154673  34.5830731  73.4894928 122.5505537  31.5952926  88.5727055
 123.2605156  30.9546118  88.5313674 122.5074845  31.8465821  89.4953236
 130.5392316  38.5320279  91.4933635 130.4804862  37.8479499  90.8264218
 130.9411834  39.2739269  91.0414260 121.2634471  28.5818144  90.3922695
 120.7271828  28.1308882  91.0444291 120.6751179  28.7164053  89.6493159
 119.5583015  45.3482193  84.2867353 119.7979613  45.9800717  84.9646372
 118.7152211  44.9970233  84.5732713 120.6736730  28.0406795  72.9549158
 119.7966196  27.9195596  72.5911405 121.1494483  27.2492874  72.7028047
 130.5409723  36.4959863  89.7247614 129.6536502  36.1585785  89.8474013
 131.1108274  35.7642894  89.9616380 112.1938870  32.8283955  83.0490666
 112.8809910  32.5145685  82.4611681 112.0386999  33.7325320  82.7757917
 116.9973592  27.7174151  87.4775689 116.9131781  27.1099821  86.7426099
 116.1756299  28.2083170  87.4785186 124.0710876  41.1561316  86.6908857
 123.9981048  41.9616287  87.2028162 123.6288270  41.3553281  85.8656879
 123.8600656  40.3933086  80.2011679 123.0768178  40.9354766  80.2949903
 124.5593401  40.9107065  80.6005920 127.1697306  26.2027715  82.8445884
 127.6666006  25.4497677  82.5246955 126.3984288  26.2392032  82.2789094
 135.0227064  31.9068081  84.4864176 135.0116940  32.7892796  84.1158109
 134.1544443  31.5539631  84.2918713 126.5309560  41.0548150  88.8467016
 127.2437532  41.6895614  88.7742918 126.0399589  41.1512016  88.0307018
 128.2527087  34.9599402  80.4184308 127.3183366  35.0800865  80.2489012
 128.4303755  34.0571869  80.1544318 123.7532275  28.3445098  82.5717569
 123.3830062  27.7916138  83.2598474 124.2491367  27.7403231  82.0192569
 131.6399638  30.8016722  80.9534342 132.1060090  31.6344713  80.8794645
 132.0907139  30.3361703  81.6579600 121.5821473  38.8042593  89.6672587
 122.2830933  39.4379076  89.8201981 121.1116588  39.1457325  88.9068226
 129.7075869  37.1460543  77.9520494 129.9835713  37.0317137  78.8614368
 128.8380368  36.7478028  77.9132667 129.6116301  23.1697309  84.9925243
 128.6979381  23.4001535  85.1607450 130.0409402  23.2535753  85.8439276
 129.3822759  31.3587200  87.4925137 128.7294210  31.6063108  86.8377590
 129.7603139  30.5451339  87.1587615 126.3429933  41.3946894  81.5953308
 126.5252328  40.5768550  82.0581060 127.1662919  41.6114586  81.1578198
 126.6772099  40.3215079  78.8568356 127.2059865  39.8107533  78.2438518
 126.9400318  40.0057609  79.7213889 125.4310332  32.1007012  93.9791174
 124.7550969  32.0001141  94.6493550 126.2537966  31.9446225  94.4427172
 117.1789192  38.3378948  86.6003690 117.7642628  37.5922636  86.7331594
 116.9814030  38.6482905  87.4840353 120.0327847  41.3730195  81.6166132
 119.3638222  41.8576323  81.1330172 119.8940716  41.6199416  82.5309510
 111.7706846  30.9084548  85.3208133 111.8090946  30.3748139  86.1145251
 111.2647139  30.3819754  84.7019110 124.1733115  43.4073939  88.2148790
 124.7251423  43.5705560  88.9797876 124.5139309  43.9978377  87.5428815
 119.1497609  25.7549089  88.8170675 119.2138935  26.6163920  88.4048073
 119.0864729  25.1423090  88.0843034 118.6249881  27.8272221  92.4643709
 119.2521920  27.4449299  93.0781234 117.7677800  27.6086423  92.8299402
 129.0243990  38.2335197  94.0697445 129.5683894  38.8465155  93.5752400
 128.4430835  38.7914775  94.5864458 115.4015424  29.6348650  78.3962064
 115.6968865  28.7259329  78.3429118 114.5003460  29.6136390  78.0743066
 127.3101503  41.3555915  85.2012472 127.1852642  40.5545654  84.6923418
 127.9680594  41.8502108  84.7126442 118.9309671  27.7104647  84.3789613
 118.2096257  28.3240615  84.2397086 119.7202927  28.2462412  84.3006259
 129.3736411  39.1564935  86.8292023 128.4266747  39.0370286  86.7570349
 129.7219184  38.2687433  86.9118284 121.7335984  25.0459074  90.6530264
 122.2570386  25.2921370  91.4156574 121.5148318  25.8779108  90.2333402
 117.1303265  27.3162748  78.5201389 116.8015972  26.4360127  78.3376495
 117.4842636  27.2610417  79.4077778 126.3782844  38.9517651  83.0296375
 126.2307807  38.0234358  83.2103945 127.2036338  38.9737742  82.5453450
 120.2445089  27.6035718  78.8876867 120.5841161  28.1321639  78.1655475
 120.6917209  27.9416124  79.6635433 129.9816966  39.7746210  84.1161248
 130.9063514  39.5689071  83.9785699 129.8132270  39.5262611  85.0250589
 122.9388529  25.9872769  88.3379935 122.5985350  25.1880582  88.7400615
 122.2327536  26.2874479  87.7656768 123.5905001  23.0722081  86.7907258
 124.4131071  22.5982559  86.6686148 123.8343065  23.8512565  87.2905944
 122.2313236  26.1010339  77.0870160 122.9521598  26.4791592  76.5833877
 121.6078540  26.8199216  77.1905138 126.3744359  26.8055488  78.0228492
 126.5907973  27.6880126  77.7217320 125.8938426  26.4141702  77.2934134
 121.1143580  29.7641202  84.5999237 120.9688161  30.0781505  85.4923518
 120.6368784  30.3826102  84.0470135 122.9739963  26.7543750  84.6480126
 122.9601532  25.8584843  84.3112424 123.6912391  26.7614413  85.2818412
 124.8266094  27.1881090  86.6933254 124.5683871  28.1098161  86.6917584
 124.2951134  26.7911524  87.3833718 129.7712282  40.2931877  79.4723339
 129.9449160  39.7278299  78.7197191 130.2641174  41.0932772  79.2902829
 115.5889242  32.3046546  87.5386898 115.0442710  33.0806354  87.6707172
 116.4668592  32.6517351  87.3806019 122.3776859  25.6358130  79.9167696
 122.4992770  24.7074776  80.1158584 122.0878901  25.6496816  79.0046012
 125.2468049  23.3213040  83.0534416 125.2689746  23.3852373  82.0986396
 125.6636108  22.4817549  83.2474922 135.6251674  33.0568300  81.0913639
 136.0682820  32.3075625  80.6932762 134.7478184  33.0478436  80.7087371
 130.7587455  39.6098641  76.5720237 131.4538359  40.2305334  76.7907552
 131.1010605  38.7593993  76.8472615 116.3755264  31.4316442  90.4317055
 115.6337000  31.5799078  91.0181685 116.0548008  31.6924708  89.5683804
 132.6578878  37.0598347  78.1007568 133.1830202  37.3985620  77.3756888
 132.5701231  36.1245362  77.9170703 124.3198927  40.9732421  90.2297445
 124.6286053  40.7281567  91.1020144 125.1174409  41.1779059  89.7416315
 124.3419539  43.1270330  82.4602821 123.9024529  42.6346709  83.1535678
 125.0927656  42.5843298  82.2194896 116.8211878  39.3181871  82.4627449
 117.6469898  39.0185643  82.0826093 116.4705930  38.5489494  82.9117238
 121.7893411  38.6708339  84.5325123 121.1673420  38.0079044  84.2327351
 122.4598278  38.6969471  83.8498771 115.0220483  37.2368198  83.4216383
 114.1852391  36.8090372  83.2400384 114.9944128  37.4300641  84.3587174
 121.8617938  27.1490127  94.1257629 121.9106094  28.0252250  93.7435399
 122.4040453  26.6067520  93.5529272 132.3472784  37.6931251  93.4058766
 131.5568328  37.6755389  92.8663265 132.1106139  38.2319544  94.1607803
 132.4670659  34.5423717  90.7191495 132.5168664  34.3773724  91.6607017
 132.3584582  33.6750976  90.3289375 121.3506918  37.2212263  78.0083583
 121.4995038  37.9047727  77.3550256 122.1573361  37.2017353  78.5233039
 129.7574421  30.5254645  92.0350801 130.6584284  30.3861110  91.7434799
 129.8322396  30.6909100  92.9748979 124.0917227  27.9021500  90.8803988
 123.2220536  28.1955066  90.6086576 124.3276707  28.4861945  91.6011251
 133.9688856  36.9620658  90.9633516 133.6773664  37.3250639  91.7996977
 133.3560987  36.2487667  90.7846848 135.1684538  34.5273538  83.4836086
 136.0031430  34.9663342  83.6473647 135.3043667  34.0512191  82.6644332
 132.2176044  32.0853273  89.4313574 132.6930166  32.2780919  88.6232425
 131.2941610  32.1412459  89.1856958 119.1059551  33.2477440  79.0144652
 118.8605593  32.3439770  79.2124862 119.2755465  33.2494591  78.0724130
 126.7956261  24.1201117  88.3969408 127.3138204  24.8562144  88.0715897
 126.4411393  24.4265110  89.2316167 118.3755198  28.9805798  76.5130814
 117.6824443  29.0550153  75.8570850 118.1306950  28.2166141  77.0352331
 127.0468855  20.5401399  83.9170305 127.3270609  19.8724588  84.5430731
 127.8319462  20.7330495  83.4044968 124.8502323  39.7160393  75.4795331
 124.2776290  40.3350580  75.0265803 125.4235117  40.2659755  76.0135253
 130.9177713  28.9619033  87.6641880 131.8695136  29.0617131  87.6854104
 130.7481164  28.1697302  88.1739964 128.9392093  26.0474616  87.8501281
 128.3442025  26.3279629  87.1547769 128.6541789  26.5368517  88.6218022
 128.0699583  39.9997543  76.6103913 129.0030256  39.9343105  76.8136789
 127.9822796  40.8353810  76.1518446 130.6987600  39.3163414  73.5707861
 130.6201231  38.9823277  74.4643619 131.5197267  39.8085181  73.5699333
 133.3965791  32.1825153  86.7784179 133.3642111  31.2441154  86.9643863
 134.0066415  32.2609190  86.0450004 125.2349122  31.0521206  72.8211383
 126.1808227  30.9227414  72.8899801 124.8563367  30.3135868  73.2980812
 133.5460279  28.9736196  86.8242462 133.0299328  28.1894653  86.6372391
 134.4300228  28.6454913  86.9888982 131.2071006  22.7177212  82.7838275
 131.0095827  22.4092300  83.6681607 131.8170712  23.4438851  82.9136205
 139.2142341  33.2441160  85.9190216 139.9445729  32.9826448  86.4797919
 138.6049286  32.5069882  85.9592284 137.2957638  31.3849022  86.5164667
 136.5690801  31.2504987  85.9081159 136.8804925  31.6925851  87.3221385
 125.1187814  35.1038952  94.2812040 126.0390824  35.2817551  94.4752087
 125.0837397  34.1594997  94.1291740 123.4192039  28.9771182  72.7566269
 122.5123494  28.6804295  72.8328982 123.6968020  28.6801000  71.8900555
 114.3369979  30.2977546  83.2065315 114.0172764  29.4442854  82.9139689
 113.7903408  30.5126124  83.9623282 118.1149887  33.0139987  86.9234821
 118.3335897  33.9457094  86.9422855 118.5275661  32.6547961  87.7089625
 125.0354105  23.5208072  78.9110510 124.2254833  23.1755157  79.2865756
 125.7238522  23.2115616  79.4998121 126.9644653  22.5986119  80.5334807
 127.5175692  23.0181572  81.1924830 127.2014739  21.6721867  80.5757763
 122.9877752  28.5873192  96.3137570 122.8874479  29.5367549  96.2449662
 122.7699294  28.2591431  95.4413641 122.1890824  25.8358117  72.8978248
 123.0509988  26.1613016  73.1574065 122.3741168  25.0489613  72.3851314
 114.2058239  33.9180457  85.1758437 113.5121711  33.5034410  84.6628391
 114.9531230  33.9600994  84.5791855 130.3423460  24.7086644  80.0413471
 129.7622129  25.3671448  79.6591523 130.0759393  23.8863989  79.6300888
 128.7927026  24.1091702  82.2434791 129.2926805  24.2208236  81.4349110
 129.4362634  23.8052754  82.8835600 122.8509022  32.0170331  95.1302632
 122.3676104  32.8170691  95.3366521 122.9369961  32.0278276  94.1770076
 116.1194982  33.8498711  83.0524451 116.0965670  33.9486398  82.1006335
 116.4295618  34.6963862  83.3741618 118.7782360  35.9074866  87.1671066
 119.7325613  35.8758808  87.1000997 118.5794883  35.4465490  87.9821292
 119.3681742  34.4775982  89.7341864 120.1874631  34.9720061  89.7576701
 119.6418550  33.5607950  89.7059431 129.1248338  26.8686734  79.0969819
 128.2374193  27.1536385  78.8790014 129.5402327  26.7080498  78.2497096
 132.4762874  26.8933255  82.8124158 133.2523264  27.3829708  83.0848775
 131.7511008  27.3191309  83.2696028 134.9135433  27.6060874  83.8698099
 135.5079924  27.3656610  83.1591407 134.9862017  26.8868005  84.4971635
 117.1332589  41.4494485  84.1841264 116.9987056  40.6894886  83.6179262
 116.7164651  42.1735385  83.7170053 128.2691552  36.6331409  73.1917839
 128.9727402  36.8381411  73.8075495 127.5454200  37.2008171  73.4566923
 129.0989362  32.3841270  79.3120109 129.0424563  32.8409822  78.4727742
 129.6517704  31.6231955  79.1342952 132.9094168  28.1731002  80.1370229
 132.6531102  27.7727638  80.9678436 132.2847036  28.8874796  80.0120368
 137.2206506  30.9127075  82.6441520 136.6606064  30.9820265  83.4173082
 136.6150009  30.7368060  81.9241016 120.2901714  42.3463802  84.3959706
 120.1734099  43.2909235  84.2938397 119.4694161  42.0437364  84.7845506
 130.1778249  37.0713938  75.2416299 131.0123853  36.6395137  75.0593774
 130.0162592  36.8995952  76.1693194 129.8324141  33.5746051  76.6072638
 129.7772945  33.4090323  75.6661082 129.2070196  34.2822084  76.7634828
 114.6216656  28.8114116  90.4334061 115.2675520  28.3013070  90.9221286
 114.4133807  29.5482797  91.0077486 127.1470048  35.8794963  95.9326201
 128.0161208  36.0535616  95.5712836 126.6676800  36.6989380  95.8101930
 123.1420267  23.0754160  76.1857957 123.1298936  24.0196000  76.3426228
 124.0343688  22.8924306  75.8917418 121.3156229  42.9992064  87.6115635
 122.2183475  43.0315675  87.9282130 121.0893599  42.0692515  87.6261971
 123.0709831  41.7523051  84.2725713 122.1205462  41.7524912  84.1590086
 123.3742317  41.0055785  83.7561748 126.9572386  19.6696937  80.4403894
 126.1904782  19.1155424  80.5860576 127.3683091  19.7418806  81.3018045
 118.9614147  25.9581733  94.5309075 119.8245609  25.6018538  94.7412399
 118.3879558  25.6195628  95.2184479 138.8062524  47.5883589  85.3371476
 139.4440934  47.4690337  84.6334816 138.6883367  48.5364433  85.3959428
 135.6152230  47.5411017  85.2733001 135.2770742  47.4252082  84.3853535
 136.4841999  47.1402182  85.2534007 131.4739046  49.3946494  81.2629891
 130.9103911  49.3036431  80.4946179 131.3591441  48.5746398  81.7432384
 136.0972013  48.6945869  91.2319206 136.0860654  48.2998667  90.3599710
 136.2592653  47.9611942  91.8252977 129.0203478  50.8897685  84.1014112
 129.8124770  50.5488510  83.6860411 129.2600128  50.9992660  85.0216265
 137.0538605  53.0617461  76.5744356 136.4026584  53.6471542  76.1878370
 137.8482968  53.5923656  76.6339394 130.9794232  50.1506599  76.9731491
 131.7525108  49.6035586  76.8344367 131.3319631  51.0150848  77.1845952
 132.8179274  51.4782981  90.1798390 132.5269140  52.3828612  90.0645056
 133.4536259  51.5199509  90.8942460 133.7435481  48.8559829  86.7699750
 134.3399054  48.6315852  86.0556713 133.8010453  48.1144575  87.3725198
 133.3160510  46.3099265  74.6049941 133.5686030  45.7880786  73.8433404
 132.3785069  46.1465410  74.7076624 138.3603793  45.3135043  82.4124684
 139.1466882  44.8954466  82.0615101 138.6242497  46.2181135  82.5806332
 138.5313870  50.7507893  77.1113341 137.8959703  50.8242520  77.8234245
 138.2011276  51.3401492  76.4332420 133.0356798  48.2127371  76.8074316
 132.9193057  47.5372274  77.4755400 133.1459058  47.7259745  75.9906469
 135.3788339  47.6737518  80.5121005 135.0146547  47.1468139  81.2233926
 136.2355455  47.2835987  80.3387490 135.0193826  42.7027418  75.5082353
 135.1868229  43.5707654  75.8752824 134.8290995  42.8654699  74.5843643
 137.7769160  51.1644396  87.1748184 137.4769883  52.0669435  87.0663991
 137.4320219  50.8976580  88.0269337 131.2281641  47.6158193  83.2084888
 130.3032137  47.4834407  83.4162580 131.4766054  48.3952413  83.7054831
 141.1766303  43.6826937  84.8545621 140.2683181  43.6142345  84.5604382
 141.1253899  44.1598882  85.6827447 134.9983047  45.1585075  76.4929020
 134.8782672  45.6042126  77.3314500 134.3035636  45.5070393  75.9342558
 128.5890452  47.2591467  84.0428677 128.7182833  47.5125946  84.9568089
 127.9087903  47.8519175  83.7233332 132.7589939  57.9288717  80.1419151
 132.6813969  58.8796542  80.2207632 132.1551583  57.5834589  80.7994078
 135.2507169  45.1016582  92.7980518 134.4740503  45.6610502  92.7883383
 135.8897732  45.5873365  93.3195388 133.5053541  47.9102036  92.3598485
 134.2468226  48.4487080  92.0833309 132.7990527  48.5368324  92.5170037
 138.9808881  50.0531176  90.9570647 139.3892237  49.6113587  90.2125279
 138.2586143  49.4783804  91.2104840 135.3339951  44.9903783  88.3304204
 136.1801146  45.4143196  88.4738853 135.2738589  44.3337407  89.0242767
 139.3037696  50.6132367  84.7122936 138.6746558  50.7778081  84.0099004
 138.9163358  51.0273976  85.4833900 138.4839396  42.6508151  89.9885377
 138.2400328  43.4050212  89.4519653 138.7599327  43.0293499  90.8232624
 140.4377859  49.1946764  88.6662643 140.6494754  49.8378523  87.9897024
 140.3907607  48.3609080  88.1984573 138.0404088  41.8064584  85.5699215
 137.1788567  42.1045838  85.8615953 138.0666523  42.0234983  84.6380248
 134.8565658  50.3506775  81.9773021 135.3204003  50.6294478  81.1877643
 134.5922456  49.4490219  81.7946111 131.7489739  49.8978256  84.9152784
 132.3191096  50.3265525  84.2770269 132.3397850  49.6160841  85.6136970
 133.7934544  46.4729927  78.7862586 134.4958587  46.9250971  79.2536512
 133.4615172  45.8313746  79.4142479 132.2414905  45.0641684  93.1613795
 131.6113566  45.7457965  93.3949192 132.1350993  44.9524765  92.2166934
 127.5359878  44.7313480  84.0879719 126.7458932  44.9871008  83.6119830
 128.0271125  45.5461818  84.1931760 129.4874623  45.0958059  81.0463196
 128.6905786  45.2076753  81.5646692 129.2600215  45.4344711  80.1804087
 135.3180291  51.6202762  88.9945711 135.3824723  52.0823169  89.8303883
 134.6091214  50.9900127  89.1228021 125.8197581  44.9843970  86.5194710
 126.0705619  45.8690980  86.7852286 126.3557129  44.8048572  85.7469802
 135.0328308  53.2870870  78.8624691 134.8973983  54.1322405  79.2909539
 135.5738121  53.4890147  78.0990625 131.5195648  39.3662450  95.5239046
 131.1262593  38.8128648  96.1986691 132.3361788  39.6773028  95.9145564
 128.4857706  50.8046308  79.4352616 128.9982226  51.5989558  79.5858181
 129.1380418  50.1072598  79.3686218 130.2952590  53.9212064  81.5175369
 130.4719219  54.8430029  81.3296353 131.0909424  53.6070483  81.9469749
 134.4363609  40.7820329  93.1159303 135.1773322  41.3827482  93.0363765
 134.6681532  40.0397966  92.5577345 129.5804947  45.9676696  91.3937533
 129.4658462  45.0661953  91.6944632 128.7249465  46.2140393  91.0422349
 136.6596785  53.9094436  92.9925033 136.2160639  53.1230815  92.6745938
 137.3213998  54.0973587  92.3268924 131.4183906  55.4390238  87.5185712
 131.9691331  55.3107301  86.7462706 130.5795382  55.7385127  87.1680605
 138.7578023  54.1897236  91.0206434 138.7396498  55.0106117  90.5286704
 139.6797943  54.0651311  91.2456576 135.2151077  51.7041366  91.8629943
 135.7479414  50.9429654  91.6329251 134.6865158  51.4115017  92.6054097
 138.3820772  36.8101432  87.3923585 138.0385041  37.7003073  87.3162695
 138.7499734  36.6203089  86.5293170 126.4506622  49.1334962  80.2112187
 127.2881844  49.5431970  79.9945894 126.6284890  48.1934404  80.1812381
 138.3471055  46.8010043  75.8996020 137.8317678  47.5714647  76.1384407
 138.0748363  46.1275179  76.5229081 135.9318166  41.6459743  80.9581258
 135.0759762  41.2566594  80.7786897 136.3445117  41.7251704  80.0981044
 137.4617312  39.1806087  85.3572818 136.9582108  39.1436222  84.5440623
 137.7547919  40.0898829  85.4169475 133.7060198  39.2644816  84.3639000
 134.5713195  39.0687625  84.0044889 133.7737707  39.0355168  85.2908356
 138.1357358  44.6737135  77.7255801 137.8307493  44.9883284  78.5765944
 139.0887800  44.7518555  77.7683134 136.5803790  50.8327358  79.3748755
 136.0525151  50.0980118  79.0621992 136.0791292  51.6102034  79.1288723
 131.3122517  41.4947024  81.7355366 131.8866269  41.2722206  81.0028559
 131.8993500  41.5635719  82.4883968 140.3702094  47.3820751  82.5419743
 140.8833976  48.0150743  83.0441453 141.0203318  46.7821947  82.1763103
 131.6392104  43.5251485  75.7551252 130.8029417  43.8626172  76.0760526
 131.4996874  43.3900465  74.8178389 133.6145185  38.3688273  80.4630436
 132.9609597  38.0537290  79.8387051 133.5725659  37.7464014  81.1890259
 134.7256390  48.6507568  72.3783728 133.8183451  48.4196822  72.5774877
 135.2227422  47.8545188  72.5657709 137.6324469  57.3605076  75.2980414
 136.9586167  57.6636772  75.9065372 138.0190291  58.1634156  74.9485871
 136.8482925  44.8570207  84.7878083 135.9305487  45.0785154  84.6299771
 137.2643069  44.9316517  83.9289791 137.6317973  46.2561623  79.9180764
 138.3789792  46.7683020  79.6087886 137.9009563  45.9345675  80.7785157
 135.9044623  48.7520163  76.9007718 134.9955842  48.4679196  76.9980188
 135.9339707  49.1719242  76.0411025 141.1363891  52.3626753  80.6698886
 140.6826218  51.5217663  80.7264076 140.5057857  52.9988151  81.0073666
 140.0796810  43.2918739  81.8999553 139.3419567  42.7796125  82.2309796
 140.3323584  42.8519120  81.0882830 139.5796830  54.2003249  81.6048704
 139.8719804  54.7608307  80.8861069 140.0895450  54.4931810  82.3601863
 140.1808437  36.0694991  82.4941322 140.4867314  35.2092354  82.2067237
 140.9061042  36.6612611  82.2940316 126.4732794  46.4725677  80.8822920
 126.2757193  45.8795038  80.1573987 125.9179458  46.1677888  81.5998859
 134.4529517  46.3648784  83.0017513 134.5078127  45.4122620  82.9259990
 133.6420719  46.5208223  83.4858812 135.6020711  50.2928907  74.2395797
 135.1640141  49.5764766  73.7801434 136.3431152  50.5205022  73.6780888
 132.3921877  44.9825844  80.7607892 131.5789743  45.2820014  81.1673084
 132.8880871  44.5881532  81.4782374 134.5430455  54.9783601  82.6942157
 134.5006634  55.2044447  81.7650689 135.4593154  54.7446975  82.8427958
 137.9896089  45.4467668  89.5922786 138.3445477  45.6739141  90.4517252
 138.6368220  45.7786045  88.9700041 131.8835952  42.5544199  86.3769127
 132.5235331  42.4132958  85.6792090 131.0513482  42.2678713  86.0007729
 132.6596256  51.8546630  82.4904120 133.4536854  51.3596950  82.2886695
 131.9487948  51.3264493  82.1271825 137.4791100  54.2364725  86.8416487
 137.5328123  54.8055661  87.6094203 136.6105882  54.4066610  86.4770524
 128.9679019  45.9989711  78.5663872 128.0376607  45.9374167  78.7833834
 129.0636491  45.4765664  77.7700514 128.8864568  42.5244524  81.1542114
 129.1471386  43.4389857  81.0451274 129.7081741  42.0568967  81.3038727
 130.3589494  43.9382281  88.3240938 131.0312547  43.7299643  87.6753587
 129.5319280  43.7404367  87.8846171 136.2615066  40.5644222  90.3406599
 135.6142981  41.2634172  90.2471076 137.0316081  40.9980366  90.7082848
 139.6693864  50.8293074  93.4157153 139.5179370  50.6003626  92.4987236
 139.6598543  51.7863676  93.4288498 136.4379200  48.4024987  88.4003419
 137.3671260  48.5536147  88.2272386 136.0170230  48.4909008  87.5452066
 135.2367532  52.4275652  86.1701957 135.0978617  52.0594436  87.0427895
 134.4482128  52.9423291  85.9985915 135.8315684  57.5284748  77.5127493
 136.0067439  57.0572791  78.3273116 135.1448472  58.1550514  77.7408754
 136.7872747  51.8057254  83.5590794 136.4522580  51.7658024  84.4548444
 136.2876693  51.1401970  83.0861205 130.7616991  47.2124884  89.0843376
 130.6236789  46.4805123  89.6854915 131.6721914  47.1233784  88.8027563
 139.7231939  49.1513289  73.8327854 139.1061109  48.4260117  73.7360907
 139.2548427  49.9122649  73.4894928 133.3899292  46.9244844  88.5727055
 134.0998910  46.2838036  88.5313674 133.3468600  47.1757738  89.4953236
 132.1028226  43.9110061  90.3922695 131.5665583  43.4600800  91.0444291
 131.5144934  44.0455970  89.6493159 130.3976769  60.6774111  84.2867353
 130.6373367  61.3092635  84.9646372 129.5545966  60.3262151  84.5732713
 131.5130484  43.3698713  72.9549158 130.6359951  43.2487514  72.5911405
 131.9888238  42.5784791  72.7028047 123.0332625  48.1575873  83.0490666
 123.7203664  47.8437603  82.4611681 122.8780753  49.0617237  82.7757917
 127.8367347  43.0466069  87.4775689 127.7525536  42.4391739  86.7426099
 127.0150053  43.5375087  87.4785186 134.9104631  56.4853233  86.6908857
 134.8374802  57.2908205  87.2028162 134.4682024  56.6845199  85.8656879
 134.6994411  55.7225003  80.2011679 133.9161932  56.2646683  80.2949903
 135.3987156  56.2398983  80.6005920 138.0091061  41.5319633  82.8445884
 138.5059760  40.7789595  82.5246955 137.2378042  41.5683949  82.2789094
 137.3703314  56.3840067  88.8467016 138.0831287  57.0187532  88.7742918
 136.8793343  56.4803933  88.0307018 139.0920841  50.2891320  80.4184308
 138.1577120  50.4092782  80.2489012 139.2697510  49.3863787  80.1544318
 134.5926029  43.6737016  82.5717569 134.2223817  43.1208056  83.2598474
 135.0885122  43.0695149  82.0192569 132.4215228  54.1334511  89.6672587
 133.1224687  54.7670994  89.8201981 131.9510343  54.4749242  88.9068226
 140.5469624  52.4752460  77.9520494 140.8229468  52.3609055  78.8614368
 139.6774123  52.0769945  77.9132667 140.4510055  38.4989226  84.9925243
 139.5373135  38.7293453  85.1607450 140.8803157  38.5827670  85.8439276
 140.2216514  46.6879118  87.4925137 139.5687964  46.9355026  86.8377590
 140.5996894  45.8743256  87.1587615 137.1823688  56.7238811  81.5953308
 137.3646082  55.9060467  82.0581060 138.0056674  56.9406504  81.1578198
 137.5165853  55.6506996  78.8568356 138.0453620  55.1399451  78.2438518
 137.7794073  55.3349527  79.7213889 136.2704087  47.4298929  93.9791174
 135.5944724  47.3293059  94.6493550 137.0931721  47.2738143  94.4427172
 128.0182946  53.6670866  86.6003690 128.6036383  52.9214554  86.7331594
 127.8207784  53.9774822  87.4840353 130.8721601  56.7022113  81.6166132
 130.2031977  57.1868241  81.1330172 130.7334471  56.9491334  82.5309510
 122.6100601  46.2376466  85.3208133 122.6484700  45.7040057  86.1145251
 122.1040894  45.7111671  84.7019110 135.0126870  58.7365857  88.2148790
 135.5645178  58.8997478  88.9797876 135.3533063  59.3270294  87.5428815
 129.9891363  41.0841006  88.8170675 130.0532690  41.9455837  88.4048073
 129.9258483  40.4715008  88.0843034 129.4643636  43.1564139  92.4643709
 130.0915674  42.7741216  93.0781234 128.6071554  42.9378341  92.8299402
 139.8637744  53.5627114  94.0697445 140.4077648  54.1757072  93.5752400
 139.2824589  54.1206693  94.5864458 126.2409178  44.9640568  78.3962064
 126.5362619  44.0551247  78.3429118 125.3397214  44.9428308  78.0743066
 138.1495257  56.6847832  85.2012472 138.0246397  55.8837572  84.6923418
 138.8074348  57.1794026  84.7126442 129.7703425  43.0396565  84.3789613
 129.0490011  43.6532532  84.2397086 130.5596681  43.5754330  84.3006259
 140.2130165  54.4856852  86.8292023 139.2660501  54.3662203  86.7570349
 140.5612939  53.5979350  86.9118284 132.5729739  40.3750991  90.6530264
 133.0964141  40.6213288  91.4156574 132.3542072  41.2071026  90.2333402
 127.9697020  42.6454666  78.5201389 127.6409726  41.7652045  78.3376495
 128.3236391  42.5902334  79.4077778 137.2176599  54.2809568  83.0296375
 137.0701561  53.3526276  83.2103945 138.0430092  54.3029659  82.5453450
 131.0838843  42.9327636  78.8876867 131.4234916  43.4613557  78.1655475
 131.5310964  43.2708042  79.6635433 133.7782284  41.3164686  88.3379935
 133.4379104  40.5172499  88.7400615 133.0721290  41.6166397  87.7656768
 134.4298756  38.4013999  86.7907258 135.2524825  37.9274477  86.6686148
 134.6736819  39.1804482  87.2905944 133.0706990  41.4302257  77.0870160
 133.7915353  41.8083510  76.5833877 132.4472294  42.1491134  77.1905138
 137.2138113  42.1347406  78.0228492 137.4301727  43.0172044  77.7217320
 136.7332180  41.7433620  77.2934134 131.9537334  45.0933119  84.5999237
 131.8081915  45.4073422  85.4923518 131.4762538  45.7118020  84.0470135
 133.8133717  42.0835667  84.6480126 133.7995286  41.1876761  84.3112424
 134.5306145  42.0906331  85.2818412 135.6659848  42.5173008  86.6933254
 135.4077626  43.4390078  86.6917584 135.1344888  42.1203442  87.3833718
 140.6106037  55.6223795  79.4723339 140.7842914  55.0570217  78.7197191
 141.1034928  56.4224690  79.2902829 126.4282997  47.6338464  87.5386898
 125.8836465  48.4098272  87.6707172 127.3062347  47.9809268  87.3806019
 133.2170613  40.9650048  79.9167696 133.3386524  40.0366694  80.1158584
 132.9272656  40.9788734  79.0046012 136.0861804  38.6504958  83.0534416
 136.1083501  38.7144291  82.0986396 136.5029863  37.8109467  83.2474922
 127.2149019  46.7608360  90.4317055 126.4730755  46.9090995  91.0181685
 126.8941763  47.0216626  89.5683804 135.1592681  56.3024338  90.2297445
 135.4679808  56.0573485  91.1020144 135.9568163  56.5070977  89.7416315
 135.1813293  58.4562248  82.4602821 134.7418283  57.9638627  83.1535678
 135.9321410  57.9135216  82.2194896 127.6605632  54.6473789  82.4627449
 128.4863652  54.3477561  82.0826093 127.3099684  53.8781411  82.9117238
 132.6287165  54.0000257  84.5325123 132.0067175  53.3370962  84.2327351
 133.2992032  54.0261389  83.8498771 125.8614237  52.5660115  83.4216383
 125.0246146  52.1382290  83.2400384 125.8337883  52.7592559  84.3587174
 132.7011693  42.4782045  94.1257629 132.7499848  43.3544168  93.7435399
 133.2434207  41.9359438  93.5529272 132.1900672  52.5504180  78.0083583
 132.3388793  53.2339645  77.3550256 132.9967116  52.5309270  78.5233039
 134.9310981  43.2313417  90.8803988 134.0614291  43.5246983  90.6086576
 135.1670462  43.8153862  91.6011251 129.9453305  48.5769358  79.0144652
 129.6999347  47.6731688  79.2124862 130.1149220  48.5786508  78.0724130
 137.6350015  39.4493034  88.3969408 138.1531959  40.1854061  88.0715897
 137.2805148  39.7557028  89.2316167 129.2148953  44.3097716  76.5130814
 128.5218198  44.3842071  75.8570850 128.9700705  43.5458059  77.0352331
 137.8862609  35.8693317  83.9170305 138.1664363  35.2016506  84.5430731
 138.6713216  36.0622412  83.4044968 135.6896078  55.0452311  75.4795331
 135.1170045  55.6642498  75.0265803 136.2628871  55.5951672  76.0135253
 139.7785847  41.3766534  87.8501281 139.1835779  41.6571547  87.1547769
 139.4935544  41.8660435  88.6218022 138.9093338  55.3289461  76.6103913
 139.8424011  55.2635023  76.8136789 138.8216550  56.1645728  76.1518446
 136.0742876  46.3813124  72.8211383 137.0201981  46.2519332  72.8899801
 135.6957121  45.6427785  73.2980812 135.9581569  50.4330870  94.2812040
 136.8784578  50.6109469  94.4752087 135.9231152  49.4886915  94.1291740
 134.2585793  44.3063100  72.7566269 133.3517249  44.0096213  72.8328982
 134.5361774  44.0092918  71.8900555 125.1763734  45.6269463  83.2065315
 124.8566518  44.7734772  82.9139689 124.6297162  45.8418041  83.9623282
 128.9543641  48.3431904  86.9234821 129.1729651  49.2749012  86.9422855
 129.3669415  47.9839879  87.7089625 135.8747859  38.8499990  78.9110510
 135.0648587  38.5047075  79.2865756 136.5632276  38.5407533  79.4998121
 137.8038407  37.9278036  80.5334807 138.3569446  38.3473490  81.1924830
 138.0408494  37.0013785  80.5757763 133.8271507  43.9165110  96.3137570
 133.7268234  44.8659467  96.2449662 133.6093049  43.5883349  95.4413641
 133.0284578  41.1650035  72.8978248 133.8903742  41.4904933  73.1574065
 133.2134922  40.3781531  72.3851314 125.0451994  49.2472375  85.1758437
 124.3515465  48.8326328  84.6628391 125.7924985  49.2892911  84.5791855
 141.1817215  40.0378562  80.0413471 140.6015884  40.6963366  79.6591523
 140.9153147  39.2155906  79.6300888 139.6320781  39.4383619  82.2434791
 140.1320559  39.5500154  81.4349110 140.2756389  39.1344672  82.8835600
 133.6902777  47.3462249  95.1302632 133.2069858  48.1462609  95.3366521
 133.7763716  47.3570194  94.1770076 126.9588736  49.1790629  83.0524451
 126.9359424  49.2778316  82.1006335 127.2689373  50.0255779  83.3741618
 129.6176114  51.2366784  87.1671066 130.5719368  51.2050726  87.1000997
 129.4188638  50.7757407  87.9821292 130.2075496  49.8067900  89.7341864
 131.0268385  50.3011978  89.7576701 130.4812304  48.8899868  89.7059431
 139.9642093  42.1978652  79.0969819 139.0767948  42.4828303  78.8790014
 140.3796082  42.0372415  78.2497096 127.9726343  56.7786403  84.1841264
 127.8380811  56.0186804  83.6179262 127.5558405  57.5027303  83.7170053
 139.1085306  51.9623327  73.1917839 139.8121156  52.1673329  73.8075495
 138.3847955  52.5300089  73.4566923 139.9383116  47.7133188  79.3120109
 139.8818318  48.1701739  78.4727742 140.4911459  46.9523873  79.1342952
 131.1295469  57.6755720  84.3959706 131.0127853  58.6201153  84.2938397
 130.3087915  57.3729282  84.7845506 140.6717896  48.9037969  76.6072638
 140.6166699  48.7382241  75.6661082 140.0463951  49.6114002  76.7634828
 125.4610411  44.1406034  90.4334061 126.1069274  43.6304988  90.9221286
 125.2527562  44.8774715  91.0077486 137.9863803  51.2086881  95.9326201
 138.8554962  51.3827533  95.5712836 137.5070554  52.0281298  95.8101930
 133.9814021  38.4046078  76.1857957 133.9692691  39.3487918  76.3426228
 134.8737443  38.2216224  75.8917418 132.1549983  58.3283982  87.6115635
 133.0577230  58.3607592  87.9282130 131.9287353  57.3984433  87.6261971
 133.9103585  57.0814969  84.2725713 132.9599216  57.0816830  84.1590086
 134.2136071  56.3347703  83.7561748 137.7966141  34.9988855  80.4403894
 137.0298536  34.4447341  80.5860576 138.2076845  35.0710724  81.3018045
 129.8007902  41.2873651  94.5309075 130.6639363  40.9310455  94.7412399
 129.2273312  40.9487545  95.2184479 139.8597232  66.2189603  84.1014112
 140.6518524  65.8780428  83.6860411 140.0993883  66.3284578  85.0216265
 139.4284207  62.5883384  84.0428677 139.5576588  62.8417863  84.9568089
 138.7481658  63.1811092  83.7233332 138.3753632  60.0605397  84.0879719
 137.5852686  60.3162926  83.6119830 138.8664879  60.8753735  84.1931760
 140.3268377  60.4249977  81.0463196 139.5299541  60.5368671  81.5646692
 140.0993970  60.7636629  80.1804087 136.6591335  60.3135888  86.5194710
 136.9099373  61.1982898  86.7852286 137.1950883  60.1340489  85.7469802
 139.3251460  66.1338225  79.4352616 139.8375981  66.9281476  79.5858181
 139.9774173  65.4364516  79.3686218 140.4198701  61.2968614  91.3937533
 140.3052217  60.3953871  91.6944632 139.5643219  61.5432310  91.0422349
 137.2900377  64.4626880  80.2112187 138.1275599  64.8723888  79.9945894
 137.4678645  63.5226322  80.1812381 137.3126548  61.8017595  80.8822920
 137.1150948  61.2086956  80.1573987 136.7573212  61.4969805  81.5998859
 139.8072774  61.3281629  78.5663872 138.8770362  61.2666084  78.7833834
 139.9030246  60.8057582  77.7700514 139.7258323  57.8536442  81.1542114
 139.9865140  58.7681775  81.0451274 140.5475495  57.3860884  81.3038727
 133.8726379  63.4867790  83.0490666 134.5597419  63.1729520  82.4611681
 133.7174508  64.3909155  82.7757917 138.6761101  58.3757987  87.4775689
 138.5919290  57.7683656  86.7426099 137.8543808  58.8667005  87.4785186
 138.8576701  68.9962783  86.6003690 139.4430137  68.2506471  86.7331594
 138.6601539  69.3066740  87.4840353 133.4494355  61.5668384  85.3208133
 133.4878455  61.0331974  86.1145251 132.9434648  61.0403589  84.7019110
 140.8285118  56.4132924  88.8170675 140.8926444  57.2747755  88.4048073
 140.7652238  55.8006926  88.0843034 140.3037390  58.4856057  92.4643709
 140.9309429  58.1033134  93.0781234 139.4465309  58.2670259  92.8299402
 137.0802933  60.2932486  78.3962064 137.3756374  59.3843164  78.3429118
 136.1790969  60.2720225  78.0743066 138.8090774  57.9746583  78.5201389
 138.4803481  57.0943962  78.3376495 139.1630145  57.9194252  79.4077778
 137.2676751  62.9630381  87.5386898 136.7230219  63.7390189  87.6707172
 138.1456101  63.3101186  87.3806019 138.0542773  62.0900278  90.4317055
 137.3124509  62.2382913  91.0181685 137.7335517  62.3508543  89.5683804
 138.4999387  69.9765706  82.4627449 139.3257407  69.6769478  82.0826093
 138.1493439  69.2073329  82.9117238 136.7007992  67.8952033  83.4216383
 135.8639900  67.4674207  83.2400384 136.6731637  68.0884476  84.3587174
 140.7847060  63.9061276  79.0144652 140.5393102  63.0023606  79.2124862
 140.9542974  63.9078426  78.0724130 140.0542707  59.6389633  76.5130814
 139.3611952  59.7133988  75.8570850 139.8094459  58.8749977  77.0352331
 136.0157488  60.9561381  83.2065315 135.6960273  60.1026689  82.9139689
 135.4690916  61.1709959  83.9623282 139.7937396  63.6723822  86.9234821
 140.0123406  64.6040930  86.9422855 140.2063170  63.3131796  87.7089625
 135.8845748  64.5764292  85.1758437 135.1909220  64.1618245  84.6628391
 136.6318739  64.6184829  84.5791855 137.7982491  64.5082546  83.0524451
 137.7753179  64.6070234  82.1006335 138.1083127  65.3547697  83.3741618
 138.8120098  72.1078321  84.1841264 138.6774565  71.3478722  83.6179262
 138.3952160  72.8319221  83.7170053 136.3004165  59.4697951  90.4334061
 136.9463029  58.9596905  90.9221286 136.0921316  60.2066633  91.0077486
 121.9196186  19.6058922  66.8664458 121.8420216  20.5566747  66.9452939
 121.3157830  19.2604794  67.5239384 124.1934555  14.9641075  65.5869998
 124.0580230  15.8092610  66.0154846 124.7344368  15.1660352  64.8235932
 119.4558837  15.5982269  68.2420676 119.6325465  16.5200234  68.0541660
 120.2515671  15.2840688  68.6715056 120.5790153  17.1160443  74.2431018
 121.1297578  16.9877506  73.4708012 119.7401628  17.4155332  73.8925911
 126.7930715  19.0375281  62.0225721 126.1192414  19.3406977  62.6310679
 127.1796537  19.8404361  61.6731178 123.7036702  16.6553805  69.4187464
 123.6612881  16.8814652  68.4895996 124.6199401  16.4217180  69.5673265
 126.6397347  15.9134930  73.5661794 126.6934369  16.4825866  74.3339510
 125.7712128  16.0836815  73.2015831 124.9921931  19.2054953  64.2372800
 125.1673686  18.7342996  65.0518423 124.3054719  19.8320719  64.4654061
 119.5583016  22.3544316  71.0112660 119.7979614  22.9862840  71.6891679
 118.7152212  22.0032356  71.2978019 124.0710878  18.1623438  73.4154164
 123.9981049  18.9678410  73.9273469 123.6288271  18.3615404  72.5902185
 123.8600657  17.3995208  66.9256986 123.0768179  17.9416888  67.0195210
 124.5593402  17.9169188  67.3251227 126.5309561  18.0610272  75.5712323
 127.2437533  18.6957737  75.4988224 126.0399590  18.1574138  74.7552325
 121.5821475  15.8104716  76.3917894 122.2830934  16.4441199  76.5447288
 121.1116590  16.1519447  75.6313533 126.3429935  18.4009016  68.3198614
 126.5252329  17.5830672  68.7826366 127.1662921  18.6176709  67.8823504
 126.6772100  17.3277201  65.5813663 127.2059866  16.8169656  64.9683825
 126.9400320  17.0119732  66.4459196 117.1789193  15.3441071  73.3248996
 117.7642630  14.5984759  73.4576900 116.9814031  15.6545027  74.2085660
 120.0327848  18.3792318  68.3411439 119.3638223  18.8638446  67.8575479
 119.8940718  18.6261539  69.2554817 124.1733117  20.4136062  74.9394097
 124.7251425  20.5767683  75.7043182 124.5139310  21.0040499  74.2674122
 127.3101504  18.3618037  71.9257779 127.1852643  17.5607777  71.4168725
 127.9680595  18.8564230  71.4371749 124.3198928  17.9794543  76.9542751
 124.6286054  17.7343690  77.8265451 125.1174410  18.1841182  76.4661622
 124.3419540  20.1332453  69.1848128 123.9024530  19.6408832  69.8780985
 125.0927657  19.5905420  68.9440203 116.8211879  16.3243994  69.1872756
 117.6469899  16.0247766  68.8071399 116.4705931  15.5551616  69.6362545
 121.7893412  15.6770462  71.2570430 121.1673421  15.0141167  70.9572657
 122.4598279  15.7031594  70.5744077 115.0220484  14.2430320  70.1461690
 114.1852392  13.8152494  69.9645691 114.9944129  14.4362763  71.0832481
 121.3506919  14.2274385  64.7328890 121.4995039  14.9109850  64.0795563
 122.1573362  14.2079475  65.2478346 124.8502325  16.7222516  62.2040637
 124.2776292  17.3412703  61.7511109 125.4235118  17.2721877  62.7380559
 128.0699584  17.0059666  63.3349220 129.0030257  16.9405227  63.5382095
 127.9822797  17.8415933  62.8763752 117.1332590  18.4556608  70.9086570
 116.9987058  17.6957009  70.3424568 116.7164652  19.1797508  70.4415359
 120.2901716  19.3525925  71.1205013 120.1734100  20.2971358  71.0183703
 119.4694162  19.0499487  71.5090812 121.3156230  20.0054187  74.3360941
 122.2183476  20.0377797  74.6527436 121.0893600  19.0754638  74.3507277
 123.0709832  18.7585173  70.9971020 122.1205463  18.7587035  70.8835392
 123.3742318  18.0117908  70.4807055 138.8062525  24.5945712  72.0616782
 139.4440935  24.4752459  71.3580123 138.6883368  25.5426556  72.1204735
 135.6152232  24.5473140  71.9978307 135.2770743  24.4314205  71.1098842
 136.4842000  24.1464305  71.9779313 131.4739047  26.4008616  67.9875198
 130.9103912  26.3098553  67.2191486 131.3591442  25.5808521  68.4677691
 136.0972015  25.7007992  77.9564513 136.0860655  25.3060790  77.0845016
 136.2592654  24.9674064  78.5498284 129.0203479  27.8959808  70.8259419
 129.8124771  27.5550633  70.4105718 129.2600129  28.0054783  71.7461572
 137.0538606  30.0679584  63.2989663 136.4026586  30.6533665  62.9123677
 137.8482969  30.5985779  63.3584700 130.9794233  27.1568721  63.6976797
 131.7525109  26.6097708  63.5589673 131.3319632  28.0212971  63.9091259
 132.8179276  28.4845104  76.9043697 132.5269142  29.3890734  76.7890363
 133.4536260  28.5261631  77.6187766 133.7435483  25.8621952  73.4945056
 134.3399055  25.6377974  72.7802019 133.8010454  25.1206698  74.0970504
 133.3160511  23.3161387  61.3295247 133.5686032  22.7942909  60.5678710
 132.3785070  23.1527533  61.4321931 138.3603794  22.3197166  69.1369990
 139.1466883  21.9016589  68.7860408 138.6242498  23.2243258  69.3051639
 138.5313871  27.7570016  63.8358647 137.8959704  27.8304643  64.5479552
 138.2011278  28.3463615  63.1577727 133.0356800  25.2189493  63.5319622
 132.9193058  24.5434397  64.2000707 133.1459060  24.7321867  62.7151775
 135.3788341  24.6799640  67.2366311 135.0146548  24.1530261  67.9479233
 136.2355457  24.2898109  67.0632797 135.0193828  19.7089540  62.2327660
 135.1868230  20.5769777  62.5998131 134.8290997  19.8716822  61.3088949
 137.7769161  28.1706519  73.8993490 137.4769884  29.0731558  73.7909298
 137.4320220  27.9038702  74.7514643 131.2281642  24.6220316  69.9330195
 130.3032139  24.4896530  70.1407887 131.4766055  25.4014535  70.4300137
 134.9983048  22.1647198  63.2174327 134.8782674  22.6104248  64.0559807
 134.3035637  22.5132515  62.6587865 128.5890453  24.2653589  70.7673984
 128.7182834  24.5188068  71.6813396 127.9087905  24.8581297  70.4478639
 132.7589941  34.9350839  66.8664458 132.6813970  35.8858664  66.9452939
 132.1551584  34.5896712  67.5239384 135.2507170  22.1078705  79.5225825
 134.4740504  22.6672625  79.5128690 135.8897733  22.5935488  80.0440695
 133.5053543  24.9164158  79.0843792 134.2468227  25.4549202  78.8078616
 132.7990528  25.5430447  79.2415344 138.9808882  27.0593299  77.6815953
 139.3892238  26.6175709  76.9370586 138.2586144  26.4845926  77.9350146
 135.3339952  21.9965905  75.0549510 136.1801148  22.4205319  75.1984159
 135.2738590  21.3399530  75.7488073 139.3037697  27.6194489  71.4368242
 138.6746559  27.7840203  70.7344310 138.9163359  28.0336099  72.2079206
 140.4377860  26.2008886  75.3907950 140.6494756  26.8440646  74.7142331
 140.3907609  25.3671203  74.9229880 134.8565659  27.3568897  68.7018327
 135.3204004  27.6356600  67.9122950 134.5922457  26.4552342  68.5191418
 131.7489740  26.9040379  71.6398091 132.3191097  27.3327647  71.0015575
 132.3397852  26.6222964  72.3382276 133.7934545  23.4792050  65.5107893
 134.4958588  23.9313093  65.9781819 133.4615173  22.8375869  66.1387786
 132.2414906  22.0703806  79.8859102 131.6113567  22.7520087  80.1194499
 132.1350994  21.9586888  78.9412240 127.5359879  21.7375602  70.8125026
 126.7458933  21.9933131  70.3365137 128.0271126  22.5523940  70.9177067
 129.4874624  22.1020182  67.7708503 128.6905787  22.2138876  68.2891998
 129.2600216  22.4406834  66.9049393 135.3180292  28.6264885  75.7191017
 135.3824724  29.0885292  76.5549189 134.6091216  27.9962250  75.8473327
 125.8197582  21.9906093  73.2440017 126.0705620  22.8753103  73.5097593
 126.3557130  21.8110694  72.4715109 135.0328309  30.2932992  65.5869998
 134.8973984  31.1384528  66.0154846 135.5738122  30.4952270  64.8235932
 128.4857707  27.8108430  66.1597923 128.9982227  28.6051681  66.3103488
 129.1380420  27.1134721  66.0931524 130.2952592  30.9274187  68.2420676
 130.4719220  31.8492151  68.0541660 131.0909425  30.6132606  68.6715056
 129.5804948  22.9738819  78.1182839 129.4658463  22.0724076  78.4189938
 128.7249466  23.2202515  77.7667656 136.6596786  30.9156559  79.7170340
 136.2160640  30.1292937  79.3991244 137.3213999  31.1035709  79.0514231
 131.4183907  32.4452360  74.2431018 131.9691332  32.3169424  73.4708012
 130.5795383  32.7447249  73.8925911 138.7578024  31.1959359  77.7451741
 138.7396499  32.0168240  77.2532010 139.6797944  31.0713434  77.9701882
 135.2151078  28.7103488  78.5875249 135.7479415  27.9491776  78.3574557
 134.6865159  28.4177140  79.3299404 126.4506624  26.1397085  66.9357493
 127.2881846  26.5494093  66.7191201 126.6284891  25.1996527  66.9057687
 138.3471056  23.8072165  62.6241326 137.8317679  24.5776770  62.8629714
 138.0748364  23.1337301  63.2474388 138.1357359  21.6799257  64.4501108
 137.8307495  21.9945407  65.3011251 139.0887801  21.7580677  64.4928441
 136.5803791  27.8389481  66.0994061 136.0525152  27.1042240  65.7867299
 136.0791294  28.6164157  65.8534030 131.3122518  18.5009147  68.4600673
 131.8866270  18.2784329  67.7273866 131.8993501  18.5697842  69.2129274
 140.3702096  24.3882874  69.2665050 140.8833977  25.0212866  69.7686759
 141.0203320  23.7884069  68.9008410 131.6392106  20.5313608  62.4796558
 130.8029418  20.8688295  62.8005833 131.4996875  20.3962588  61.5423695
 134.7256391  25.6569691  59.1029035 133.8183453  25.4258944  59.3020184
 135.2227423  24.8607310  59.2903016 137.6324470  34.3667198  62.0225721
 136.9586169  34.6698895  62.6310679 138.0190292  35.1696279  61.6731178
 136.8482926  21.8632329  71.5123390 135.9305488  22.0847276  71.3545078
 137.2643070  21.9378640  70.6535097 137.6317974  23.2623745  66.6426070
 138.3789793  23.7745142  66.3333192 137.9009564  22.9407798  67.5030464
 135.9044624  25.7582286  63.6253025 134.9955844  25.4741319  63.7225494
 135.9339708  26.1781364  62.7656331 141.1363892  29.3688875  67.3944192
 140.6826219  28.5279785  67.4509383 140.5057859  30.0050274  67.7318972
 139.5796831  31.2065372  68.3294010 139.8719805  31.7670429  67.6106376
 140.0895452  31.4993933  69.0847169 126.4732795  23.4787800  67.6068227
 126.2757195  22.8857161  66.8819293 125.9179459  23.1740010  68.3244166
 134.4529518  23.3710906  69.7262820 134.5078128  22.4184743  69.6505297
 133.6420720  23.5270346  70.2104118 135.6020712  27.2991030  60.9641103
 135.1640142  26.5826888  60.5046741 136.3431153  27.5267144  60.4026195
 132.3921878  21.9887966  67.4853199 131.5789744  22.2882137  67.8918391
 132.8880873  21.5943655  68.2027681 134.5430456  31.9845723  69.4187464
 134.5006635  32.2106569  68.4895996 135.4593155  31.7509098  69.5673265
 137.9896090  22.4529791  76.3168093 138.3445478  22.6801264  77.1762558
 138.6368221  22.7848167  75.6945348 131.8835953  19.5606322  73.1014434
 132.5235332  19.4195081  72.4037397 131.0513484  19.2740835  72.7253036
 132.6596257  28.8608752  69.2149426 133.4536856  28.3659072  69.0132001
 131.9487949  28.3326615  68.8517132 137.4791102  31.2426848  73.5661794
 137.5328124  31.8117784  74.3339510 136.6105883  31.4128733  73.2015831
 128.9679021  23.0051834  65.2909179 128.0376609  22.9436289  65.5079141
 129.0636493  22.4827787  64.4945820 128.8864570  19.5306647  67.8787421
 129.1471387  20.4451980  67.7696581 129.7081742  19.0631089  68.0284033
 130.3589495  20.9444404  75.0486245 131.0312548  20.7361766  74.3998894
 129.5319281  20.7466490  74.6091477 139.6693865  27.8355197  80.1402459
 139.5179371  27.6065749  79.2232543 139.6598544  28.7925798  80.1533804
 136.4379201  25.4087110  75.1248726 137.3671261  25.5598269  74.9517693
 136.0170231  25.4971131  74.2697372 135.2367533  29.4337774  72.8947263
 135.0978619  29.0656559  73.7673201 134.4482129  29.9485414  72.7231221
 135.8315685  34.5346871  64.2372800 136.0067441  34.0634914  65.0518423
 135.1448473  35.1612637  64.4654061 136.7872748  28.8119377  70.2836101
 136.4522581  28.7720147  71.1793751 136.2876694  28.1464093  69.8106511
 130.7616992  24.2187007  75.8088682 130.6236790  23.4867246  76.4100221
 131.6721916  24.1295907  75.5272870 139.7231940  26.1575411  60.5573161
 139.1061110  25.4322239  60.4606213 139.2548428  26.9184771  60.2140235
 133.3899293  23.9306966  75.2972362 134.0998911  23.2900158  75.2558980
 133.3468601  24.1819861  76.2198543 132.1028227  20.9172184  77.1168001
 131.5665584  20.4662923  77.7689598 131.5144935  21.0518093  76.3738466
 130.3976770  37.6836233  71.0112660 130.6373369  38.3154758  71.6891679
 129.5545967  37.3324273  71.2978019 131.5130486  20.3760835  59.6794465
 130.6359952  20.2549636  59.3156712 131.9888239  19.5846914  59.4273354
 123.0332626  25.1637995  69.7735972 123.7203666  24.8499725  69.1856988
 122.8780755  26.0679360  69.5003224 127.8367348  20.0528192  74.2020996
 127.7525537  19.4453861  73.4671406 127.0150054  20.5437210  74.2030492
 134.9104632  33.4915356  73.4154164 134.8374804  34.2970327  73.9273469
 134.4682025  33.6907322  72.5902185 134.6994412  32.7287126  66.9256986
 133.9161934  33.2708806  67.0195210 135.3987157  33.2461105  67.3251227
 137.3703316  33.3902190  75.5712323 138.0831288  34.0249655  75.4988224
 136.8793344  33.4866056  74.7552325 139.0920843  27.2953443  67.1429614
 138.1577121  27.4154905  66.9734319 139.2697511  26.3925909  66.8789624
 134.5926031  20.6799138  69.2962876 134.2223818  20.1270179  69.9843781
 135.0885123  20.0757272  68.7437876 132.4215229  31.1396633  76.3917894
 133.1224689  31.7733116  76.5447288 131.9510344  31.4811365  75.6313533
 140.5469625  29.4814583  64.6765801 140.8229469  29.3671178  65.5859675
 139.6774124  29.0832068  64.6377974 140.2216515  23.6941241  74.2170444
 139.5687965  23.9417148  73.5622897 140.5996895  22.8805379  73.8832921
 137.1823689  33.7300934  68.3198614 137.3646084  32.9122590  68.7826366
 138.0056675  33.9468626  67.8823504 137.5165855  32.6569119  65.5813663
 138.0453621  32.1461574  64.9683825 137.7794074  32.3411649  66.4459196
 136.2704088  24.4361052  80.7036481 135.5944725  24.3355181  81.3738856
 137.0931722  24.2800266  81.1672478 128.0182947  30.6732988  73.3248996
 128.6036384  29.9276676  73.4576900 127.8207786  30.9836945  74.2085660
 130.8721602  33.7084236  68.3411439 130.2031978  34.1930363  67.8575479
 130.7334472  33.9553456  69.2554817 122.6100602  23.2438589  72.0453439
 122.6484702  22.7102179  72.8390557 122.1040895  22.7173794  71.4264417
 135.0126871  35.7427979  74.9394097 135.5645179  35.9059601  75.7043182
 135.3533065  36.3332417  74.2674122 129.9891364  18.0903129  75.5415982
 130.0532691  18.9517960  75.1293379 129.9258485  17.4777131  74.8088340
 129.4643637  20.1626262  79.1889016 130.0915676  19.7803339  79.8026540
 128.6071556  19.9440464  79.5544708 139.8637745  30.5689237  80.7942751
 140.4077649  31.1819195  80.2997706 139.2824590  31.1268815  81.3109764
 126.2409180  21.9702691  65.1207371 126.5362621  21.0613369  65.0674424
 125.3397215  21.9490430  64.7988373 138.1495258  33.6909955  71.9257779
 138.0246398  32.8899695  71.4168725 138.8074349  34.1856148  71.4371749
 129.7703427  20.0458687  71.1034919 129.0490012  20.6594655  70.9642393
 130.5596682  20.5816452  71.0251565 140.2130167  31.4918975  73.5537329
 139.2660502  31.3724326  73.4815656 140.5612940  30.6041473  73.6363591
 127.9697021  19.6516788  65.2446696 127.6409727  18.7714167  65.0621802
 128.3236392  19.5964457  66.1323085 137.2176600  31.2871691  69.7541681
 137.0701562  30.3588399  69.9349251 138.0430094  31.3091782  69.2698757
 131.0838844  19.9389758  65.6122174 131.4234917  20.4675679  64.8900782
 131.5310965  20.2770164  66.3880740 133.0706991  18.4364380  63.8115466
 133.7915354  18.8145633  63.3079183 132.4472296  19.1553257  63.9150444
 131.9537336  22.0995242  71.3244543 131.8081916  22.4135545  72.2168825
 131.4762539  22.7180142  70.7715442 135.6659849  19.5235130  73.4178560
 135.4077627  20.4452201  73.4162891 135.1344890  19.1265565  74.1079024
 140.6106038  32.6285917  66.1968646 140.7842916  32.0632340  65.4442498
 141.1034929  33.4286812  66.0148136 126.4282998  24.6400586  74.2632204
 125.8836466  25.4160394  74.3952479 127.3062348  24.9871391  74.1051326
 127.2149020  23.7670483  77.1562361 126.4730756  23.9153118  77.7426992
 126.8941764  24.0278748  76.2929111 135.1592682  33.3086461  76.9542751
 135.4679809  33.0635608  77.8265451 135.9568164  33.5133099  76.4661622
 135.1813294  35.4624370  69.1848128 134.7418285  34.9700749  69.8780985
 135.9321411  34.9197338  68.9440203 127.6605633  31.6535911  69.1872756
 128.4863653  31.3539683  68.8071399 127.3099685  30.8843534  69.6362545
 132.6287167  31.0062380  71.2570430 132.0067176  30.3433085  70.9572657
 133.2992034  31.0323511  70.5744077 125.8614238  29.5722238  70.1461690
 125.0246147  29.1444412  69.9645691 125.8337884  29.7654681  71.0832481
 132.7011694  19.4844168  80.8502936 132.7499850  20.3606290  80.4680705
 133.2434208  18.9421561  80.2774579 132.1900674  29.5566303  64.7328890
 132.3388794  30.2401767  64.0795563 132.9967117  29.5371393  65.2478346
 134.9310983  20.2375540  77.6049294 134.0614292  20.5309106  77.3331883
 135.1670463  20.8215985  78.3256558 129.9453306  25.5831481  65.7389959
 129.6999348  24.6793811  65.9370169 130.1149221  25.5848631  64.7969437
 129.2148954  21.3159838  63.2376120 128.5218199  21.3904193  62.5816156
 128.9700706  20.5520182  63.7597637 135.6896079  32.0514433  62.2040637
 135.1170046  32.6704620  61.7511109 136.2628873  32.6013795  62.7380559
 138.9093339  32.3351583  63.3349220 139.8424012  32.2697145  63.5382095
 138.8216552  33.1707850  62.8763752 136.0742878  23.3875246  59.5456690
 137.0201982  23.2581454  59.6145108 135.6957122  22.6489908  60.0226118
 135.9581570  27.4392992  81.0057347 136.8784580  27.6171591  81.1997393
 135.9231153  26.4949038  80.8537046 134.2585795  21.3125223  59.4811575
 133.3517250  21.0158335  59.5574289 134.5361776  21.0155041  58.6145861
 125.1763735  22.6331586  69.9310622 124.8566519  21.7796894  69.6384996
 124.6297163  22.8480164  70.6868589 128.9543643  25.3494027  73.6480128
 129.1729652  26.2811135  73.6668162 129.3669416  24.9902001  74.4334932
 133.8271508  20.9227233  83.0382877 133.7268235  21.8721590  82.9694968
 133.6093050  20.5945472  82.1658947 125.0451995  26.2534497  71.9003743
 124.3515467  25.8388450  71.3873698 125.7924986  26.2955034  71.3037162
 133.6902778  24.3524372  81.8547939 133.2069860  25.1524732  82.0611828
 133.7763717  24.3632316  80.9015383 126.9588738  26.1852751  69.7769758
 126.9359426  26.2840438  68.8251641 127.2689374  27.0317902  70.0986924
 129.6176115  28.2428906  73.8916372 130.5719369  28.2112849  73.8246304
 129.4188639  27.7819530  74.7066598 130.2075498  26.8130022  76.4587170
 131.0268387  27.3074101  76.4822007 130.4812305  25.8961990  76.4304738
 127.9726344  33.7848526  70.9086570 127.8380812  33.0248927  70.3424568
 127.5558407  34.5089426  70.4415359 139.1085307  28.9685449  59.9163146
 139.8121157  29.1735452  60.5320801 138.3847956  29.5362211  60.1812229
 139.9383118  24.7195311  66.0365416 139.8818319  25.1763862  65.1973048
 140.4911460  23.9585995  65.8588259 131.1295470  34.6817843  71.1205013
 131.0127854  35.6263275  71.0183703 130.3087916  34.3791404  71.5090812
 140.6717897  25.9100092  63.3317945 140.6166701  25.7444363  62.3906389
 140.0463952  26.6176125  63.4880135 125.4610412  21.1468156  77.1579367
 126.1069275  20.6367110  77.6466592 125.2527563  21.8836838  77.7322792
 137.9863804  28.2149004  82.6571508 138.8554964  28.3889656  82.2958143
 137.5070556  29.0343420  82.5347237 132.1549984  35.3346105  74.3360941
 133.0577231  35.3669715  74.6527436 131.9287354  34.4046556  74.3507277
 133.9103586  34.0877091  70.9971020 132.9599217  34.0878953  70.8835392
 134.2136072  33.3409826  70.4807055 129.8007903  18.2935773  81.2554381
 130.6639364  17.9372578  81.4657706 129.2273314  17.9549668  81.9429786
 139.8597234  43.2251726  70.8259419 140.6518526  42.8842550  70.4105718
 140.0993884  43.3346701  71.7461572 139.4284208  39.5945507  70.7673984
 139.5576589  39.8479986  71.6813396 138.7481659  40.1873215  70.4478639
 138.3753633  37.0667520  70.8125026 137.5852687  37.3225049  70.3365137
 138.8664881  37.8815858  70.9177067 140.3268379  37.4312099  67.7708503
 139.5299542  37.5430794  68.2891998 140.0993971  37.7698752  66.9049393
 136.6591336  37.3198010  73.2440017 136.9099375  38.2045020  73.5097593
 137.1950885  37.1402612  72.4715109 139.3251461  43.1400348  66.1597923
 139.8375982  43.9343598  66.3103488 139.9774174  42.4426638  66.0931524
 140.4198703  38.3030736  78.1182839 140.3052218  37.4015993  78.4189938
 139.5643220  38.5494433  77.7667656 137.2900378  41.4689002  66.9357493
 138.1275600  41.8786011  66.7191201 137.4678646  40.5288445  66.9057687
 137.3126549  38.8079718  67.6068227 137.1150949  38.2149078  66.8819293
 136.7573213  38.5031928  68.3244166 139.8072775  38.3343752  65.2909179
 138.8770363  38.2728207  65.5079141 139.9030247  37.8119704  64.4945820
 139.7258324  34.8598564  67.8787421 139.9865141  35.7743898  67.7696581
 140.5475496  34.3923007  68.0284033 133.8726380  40.4929913  69.7735972
 134.5597420  40.1791643  69.1856988 133.7174509  41.3971278  69.5003224
 138.6761103  35.3820109  74.2020996 138.5919291  34.7745779  73.4671406
 137.8543809  35.8729128  74.2030492 138.8576702  46.0024906  73.3248996
 139.4430139  45.2568594  73.4576900 138.6601540  46.3128863  74.2085660
 133.4494357  38.5730506  72.0453439 133.4878456  38.0394097  72.8390557
 132.9434649  38.0465712  71.4264417 140.8285119  33.4195047  75.5415982
 140.8926445  34.2809878  75.1293379 140.7652239  32.8069048  74.8088340
 140.3037391  35.4918179  79.1889016 140.9309430  35.1095257  79.8026540
 139.4465310  35.2732381  79.5544708 137.0802934  37.2994608  65.1207371
 137.3756375  36.3905287  65.0674424 136.1790970  37.2782348  64.7988373
 138.8090776  34.9808706  65.2446696 138.4803482  34.1006085  65.0621802
 139.1630146  34.9256375  66.1323085 137.2676752  39.9692504  74.2632204
 136.7230220  40.7452312  74.3952479 138.1456102  40.3163309  74.1051326
 138.0542774  39.0962400  77.1562361 137.3124510  39.2445036  77.7426992
 137.7335519  39.3570666  76.2929111 138.4999388  46.9827829  69.1872756
 139.3257408  46.6831601  68.8071399 138.1493440  46.2135451  69.6362545
 136.7007993  44.9014155  70.1461690 135.8639901  44.4736330  69.9645691
 136.6731638  45.0946599  71.0832481 140.7847061  40.9123398  65.7389959
 140.5393103  40.0085728  65.9370169 140.9542976  40.9140549  64.7969437
 140.0542709  36.6451756  63.2376120 139.3611953  36.7196111  62.5816156
 139.8094460  35.8812099  63.7597637 136.0157490  37.9623504  69.9310622
 135.6960274  37.1088812  69.6384996 135.4690918  38.1772082  70.6868589
 139.7937397  40.6785945  73.6480128 140.0123407  41.6103052  73.6668162
 140.2063171  40.3193919  74.4334932 135.8845750  41.5826415  71.9003743
 135.1909221  41.1680368  71.3873698 136.6318741  41.6246952  71.3037162
 137.7982492  41.5144669  69.7769758 137.7753180  41.6132356  68.8251641
 138.1083129  42.3609820  70.0986924 138.8120099  49.1140443  70.9086570
 138.6774567  48.3540844  70.3424568 138.3952161  49.8381343  70.4415359
 136.3004166  36.4760074  77.1579367 136.9463030  35.9659028  77.6466592
 136.0921317  37.2128755  77.7322792 138.8576703  23.0087029  60.0494303
 139.4430140  22.2630717  60.1822207 138.6601541  23.3190985  60.9330967
 138.4999389  23.9889952  55.9118063 139.3257409  23.6893723  55.5316706
 138.1493441  23.2197574  56.3607851 136.7007994  21.9076278  56.8706996
 135.8639903  21.4798452  56.6890997 136.6731640  22.1008721  57.8077787
 138.8120100  26.1202566  57.6331877 138.6774568  25.3602967  57.0669875
 138.3952162  26.8443466  57.1660666  39.4994808  76.0555342 142.9517820
  38.8482788  76.6409423 142.5651834  40.2939171  76.5861537 143.0112858
  35.7616713  69.3037146 140.9823404  36.0142234  68.7818667 140.2206867
  34.8241272  69.1403291 141.0850088  40.9770073  73.7445774 143.4886804
  40.3415906  73.8180401 144.2007709  40.6467480  74.3339373 142.8105884
  35.2046143  80.9226598 146.5192615  35.1270172  81.8734423 146.5981096
  34.6007786  80.5772470 147.1767541  43.1424317  68.6244429 143.6982818
  44.0542173  68.8571816 143.5230515  42.6333964  69.2081473 143.1357897
  45.6283131  74.5424685 148.4440763  44.9434169  74.9223587 147.8937796
  45.7126980  75.1520012 149.1772711  37.4784512  76.2808751 145.2398155
  37.3430186  77.1260286 145.6683003  38.0194324  76.4828028 144.4764089
  40.7927258  69.7947924 142.2769483  40.2773881  70.5652528 142.5157871
  40.5204566  69.1213060 142.9002545  45.7661532  72.5480278 144.2122657
  44.9890975  72.2091438 143.7677819  46.4453013  72.5532901 143.5377622
  37.1712593  71.6445449 138.7557192  36.2639655  71.4134703 138.9548341
  37.6683625  70.8483069 138.9431173  40.0780672  80.3542957 141.6753878
  39.4042371  80.6574653 142.2838836  40.4646494  81.1572037 141.3259335
  38.3500826  71.7458044 143.2781182  37.4412046  71.4617077 143.3753651
  38.3795910  72.1657123 142.4184489  43.5820094  75.3564634 147.0472349
  43.1282421  74.5155544 147.1037540  42.9514061  75.9926032 147.3847129
  42.0253033  77.1941130 147.9822167  42.3176007  77.7546188 147.2634533
  42.5351654  77.4869691 148.7375327  38.0476914  73.2866788 140.6169260
  37.6096344  72.5702647 140.1574898  38.7887355  73.5142903 140.0554352
  46.1650029  71.5623985 146.6745579  46.0267928  71.7525581 145.7466768
  45.8086248  72.3243368 147.1313630  38.2771887  80.5222629 143.8900957
  38.4523643  80.0510672 144.7046580  37.5904675  81.1488395 144.1182218
  42.1688142  72.1451170 140.2101318  41.5517313  71.4197998 140.1134371
  41.7004630  72.9060530 139.8668392  37.1450614  78.7162884 146.5785143
  36.3618136  79.2584564 146.6723367  37.8443359  79.2336864 146.9779384
  42.9925827  75.4690341 144.3293958  43.2685671  75.3546936 145.2387832
  42.1230326  75.0707826 144.2906131  39.6279891  79.7176692 147.9726771
  39.8102286  78.8998348 148.4354524  40.4512877  79.9344385 147.5351661
  39.9622057  78.6444877 145.2341820  40.4909823  78.1337332 144.6211982
  40.2250276  78.3287408 146.0987353  43.0562240  78.6161676 145.8496803
  43.2299118  78.0508098 145.0970655  43.5491131  79.4162571 145.6676293
  48.9101631  71.3798099 147.4687102  49.3532777  70.6305424 147.0706226
  48.0328142  71.3708235 147.0860834  44.0437413  77.9328440 142.9493701
  44.7388317  78.5535133 143.1681016  44.3860563  77.0823791 143.2246079
  45.9428836  75.3828146 144.4781032  46.4680160  75.7215418 143.7530352
  45.8551188  74.4475161 144.2944166  34.6356876  75.5442061 144.3857047
  34.7844996  76.2277526 143.7323720  35.4423319  75.5247151 144.9006503
  38.1352281  78.0390192 141.8568795  37.5626248  78.6580379 141.4039266
  38.7085075  78.5889553 142.3908717  41.3549541  78.3227342 142.9877377
  42.2880214  78.2572904 143.1910252  41.2672754  79.1583609 142.5291910
  43.9837558  77.6393212 139.9481324  43.9051189  77.3053076 140.8417082
  44.8047224  78.1314980 139.9472797  38.5199080  69.3751004 139.1984847
  39.4658184  69.2457213 139.2673265  38.1413325  68.6365666 139.6754275
  36.7041997  67.3000981 139.1339732  35.7973452  67.0034094 139.2102446
  36.9817978  67.0030799 138.2674019  41.5541509  74.9561208 139.5691303
  42.2577359  75.1611210 140.1848958  40.8304158  75.5237969 139.8340386
  43.4628207  75.3943737 141.6189763  44.2973811  74.9624935 141.4367238
  43.3012550  75.2225750 142.5466657  43.1174099  71.8975850 142.9846102
  43.0622903  71.7320122 142.0434546  42.4920154  72.6051883 143.1408292
  52.0912482  85.9113388 151.7144940  52.7290892  85.7920135 151.0108280
  51.9733325  86.8594232 151.7732892  48.9002188  85.8640816 151.6506464
  48.5620700  85.7481881 150.7626999  49.7691956  85.4631981 151.6307470
  44.7589004  87.7176292 147.6403355  44.1953869  87.6266229 146.8719643
  44.6441399  86.8976197 148.1205848  42.3053436  89.2127484 150.4787576
  43.0974728  88.8718309 150.0633875  42.5450086  89.3222459 151.3989729
  50.3388563  91.3847260 142.9517820  49.6876542  91.9701341 142.5651834
  51.1332925  91.9153455 143.0112858  44.2644190  88.4736397 143.3504954
  45.0375066  87.9265384 143.2117830  44.6169589  89.3380647 143.5619416
  47.0285439  87.1789628 153.1473213  47.6249011  86.9545650 152.4330176
  47.0860411  86.4374374 153.7498661  46.6010467  84.6329063 140.9823404
  46.8535988  84.1110585 140.2206867  45.6635027  84.4695209 141.0850088
  51.6453750  83.6364842 148.7898148  52.4316840  83.2184265 148.4388565
  51.9092455  84.5410934 148.9579796  51.8163828  89.0737692 143.4886804
  51.1809661  89.1472319 144.2007709  51.4861234  89.6631291 142.8105884
  57.0462177  83.5740075 149.6931126  57.7787349  83.0039292 149.9268956
  56.2901533  83.1861675 150.1337632  46.3206756  86.5357169 143.1847779
  46.2043014  85.8602073 143.8528864  46.4309016  86.0489543 142.3679932
  48.6638297  85.9967316 146.8894469  48.2996504  85.4697937 147.6007390
  49.5205413  85.6065786 146.7160954  48.3043784  81.0257216 141.8855817
  48.4718186  81.8937453 142.2526288  48.1140953  81.1884498 140.9617106
  51.0619117  89.4874195 153.5521647  50.7619840  90.3899234 153.4437455
  50.7170177  89.2206378 154.4042800  44.5131599  85.9387992 149.5858352
  43.5882095  85.8064206 149.7936044  44.7616012  86.7182211 150.0828294
  54.4616261  82.0056735 151.2319085  53.5533138  81.9372144 150.9377846
  54.4103857  82.4828680 152.0600910  48.2833005  83.4814874 142.8702484
  48.1632630  83.9271924 143.7087964  47.5885593  83.8300191 142.3116022
  41.8740410  85.5821265 150.4202141  42.0032791  85.8355744 151.3341553
  41.1937861  86.1748973 150.1006796  46.0439897  96.2518515 146.5192615
  45.9663927  97.2026340 146.5981096  45.4401541  95.9064388 147.1767541
  56.3277908  80.2073174 153.0096959  55.6852288  80.5005707 152.3636753
  55.8232836  80.0926094 153.8150155  53.9818071  83.9536347 143.6982818
  54.8935927  84.1863734 143.5230515  53.4727718  84.5373391 143.1357897
  52.5887653  88.9362165 151.0896399  51.9596516  89.1007879 150.3872467
  52.2013316  89.3503775 151.8607363  56.4676885  89.8716603 148.4440763
  55.7827924  90.2515504 147.8937796  56.5520735  90.4811930 149.1772711
  51.3254046  80.1294383 151.9472679  50.4638525  80.4275636 152.2389416
  51.3516481  80.3464782 151.0153711  48.1415615  88.6736573 148.3546485
  48.6053961  88.9524276 147.5651107  47.8772413  87.7720018 148.1719575
  45.0339696  88.2208055 151.2926248  45.6041053  88.6495323 150.6543732
  45.6247808  87.9390640 151.9910433  47.0784501  84.7959726 145.1636050
  47.7808545  85.2480769 145.6309976  46.7465130  84.1543545 145.7915943
  40.8209835  83.0543278 150.4653183  40.0308889  83.3100807 149.9893294
  41.3121083  83.8691616 150.5705224  42.7724581  83.4187858 147.4236660
  41.9755744  83.5306552 147.9420156  42.5450173  83.7574510 146.5577550
  62.9279638  86.7387266 149.5643436  62.1743346  86.1694664 149.4087440
  63.0627179  86.7049931 150.5114070  48.3178266  91.6100668 145.2398155
  48.1823941  92.4552204 145.6683003  48.8588079  91.8119946 144.4764089
  41.7707663  89.1276106 145.8126080  42.2832184  89.9219357 145.9631645
  42.4230376  88.4302397 145.7459681  43.5802548  92.2441863 147.8948833
  43.7569176  93.1659827 147.7069817  44.3759382  91.9300282 148.3243213
  39.7356580  87.4564761 146.5885650  40.5731802  87.8661769 146.3719358
  39.9134848  86.5164203 146.5585844  51.6321012  85.1239841 142.2769483
  51.1167636  85.8944446 142.5157871  51.3598321  84.4504978 142.9002545
  49.2168123  79.9689542 147.3354722  48.3609720  79.5796393 147.1560361
  49.6295075  80.0481503 146.4754507  50.7467270  77.5035885 151.7346282
  50.2432066  77.4666021 150.9214087  51.0397877  78.4128628 151.7942938
  56.6055286  87.8772196 144.2122657  55.8284729  87.5383355 143.7677819
  57.2846767  87.8824819 143.5377622  51.4207315  82.9966933 144.1029265
  51.1157451  83.3113083 144.9539408  52.3737758  83.0748353 144.1456598
  49.8653747  89.1557157 145.7522219  49.3375109  88.4209916 145.4395456
  49.3641250  89.9331833 145.5062187  54.8446593  87.3506177 150.8689265
  54.1870268  88.0405439 150.9569394  55.6486993  87.7402609 151.2123251
  44.5972475  79.8176823 148.1128830  45.1716227  79.5952005 147.3802023
  45.1843457  79.8865518 148.8657431  53.6552052  85.7050550 148.9193207
  54.1683934  86.3380542 149.4214916  54.3053276  85.1051745 148.5536567
  44.9242062  81.8481284 142.1324715  44.0879374  82.1855971 142.4533990
  44.7846832  81.7130264 141.1951852  46.8995143  76.6918072 146.8403900
  46.2459555  76.3767089 146.2160514  46.8575617  76.0693812 147.5663722
  48.0106348  86.9737367 138.7557192  47.1033409  86.7426620 138.9548341
  48.5077380  86.1774986 138.9431173  50.9174426  95.6834874 141.6753878
  50.2436125  95.9866571 142.2838836  51.3040248  96.4863955 141.3259335
  50.1332883  83.1800005 151.1651547  49.2155444  83.4014952 151.0073235
  50.5493027  83.2546316 150.3063255  50.9167931  84.5791421 146.2954227
  51.6639750  85.0912818 145.9861349  51.1859520  84.2575474 147.1558621
  49.1894581  87.0749962 143.2781182  48.2805800  86.7908995 143.3753651
  49.2189665  87.4949040 142.4184489  54.4213848  90.6856551 147.0472349
  53.9676175  89.8447461 147.1037540  53.7907815  91.3217950 147.3847129
  53.3646768  81.6148537 148.2773017  52.6269525  81.1025924 148.6083259
  53.6173541  81.1748919 147.4656294  52.8646788  92.5233048 147.9822167
  53.1569762  93.0838105 147.2634533  53.3745408  92.8161609 148.7375327
  53.4658395  74.3924789 148.8714786  53.7717272  73.5322153 148.5840701
  54.1911000  74.9842410 148.6713780  39.7582751  84.7955476 147.2596384
  39.5607151  84.2024837 146.5347450  39.2029415  84.4907686 147.9772323
  47.7379475  84.6878582 149.3790977  47.7928085  83.7352419 149.3033454
  46.9270677  84.8438022 149.8632275  48.8870669  88.6158706 140.6169260
  48.4490099  87.8994564 140.1574898  49.6281110  88.8434820 140.0554352
  45.6771835  83.3055642 147.1381356  44.8639700  83.6049813 147.5446548
  46.1730829  82.9111331 147.8555838  47.8280413  93.3013399 149.0715621
  47.7856592  93.5274245 148.1424153  48.7443112  93.0676774 149.2201422
  57.0043784  86.8915903 146.6745579  56.8661682  87.0817499 145.7466768
  56.6480002  87.6535285 147.1313630  45.9446214  90.1776428 148.8677583
  46.7386812  89.6826748 148.6660158  45.2337906  89.6494291 148.5045289
  42.2528977  84.3219510 144.9437336  41.3226565  84.2603965 145.1607298
  42.3486449  83.7995463 144.1473977  42.1714526  80.8474323 147.5315578
  42.4321343  81.7619656 147.4224738  42.9931698  80.3798765 147.6812191
  49.7229158  86.7254786 154.7776883  50.6521218  86.8765945 154.6045850
  49.3020188  86.8138807 153.9225529  48.5217490  90.7505450 152.5475420
  48.3828575  90.3824235 153.4201359  47.7332086  91.2653090 152.3759378
  49.1165642  95.8514547 143.8900957  49.2917397  95.3802590 144.7046580
  48.4298430  96.4780313 144.1182218  50.0722705  90.1287053 149.9364258
  49.7372537  90.0887823 150.8321908  49.5726650  89.4631769 149.4634668
  53.0081896  87.4743087 140.2101318  52.3911067  86.7489915 140.1134371
  52.5398385  88.2352447 139.8668392  44.7980442  81.6928512 139.3322622
  43.9209909  81.5717312 138.9684869  45.2738195  80.9014590 139.0801511
  47.9844368  94.0454802 146.5785143  47.2011890  94.5876482 146.6723367
  48.6837113  94.5628782 146.9779384  51.2941018  79.8549431 149.2219348
  51.7909718  79.1019394 148.9020418  50.5228000  79.8913748 148.6562557
  59.1470776  85.5589797 150.8637640  59.1360652  86.4414512 150.4931573
  58.2788155  85.2061348 150.6692177  52.3770799  88.6121119 146.7957771
  51.4427078  88.7322581 146.6262476  52.5547468  87.7093585 146.5317781
  47.8775987  81.9966814 148.9491033  47.5073775  81.4437855 149.6371938
  48.3735080  81.3924948 148.3966033  55.7643350  84.4538438 147.3307806
  56.2303803  85.2866429 147.2568108  56.2150851  83.9883419 148.0353064
  53.8319582  90.7982259 144.3293958  54.1079425  90.6838854 145.2387832
  52.9624080  90.3999744 144.2906131  53.7360013  76.8219025 151.3698707
  52.8223093  77.0523252 151.5380914  54.1653115  76.9057469 152.2212739
  53.5066472  85.0108917 153.8698601  52.8537922  85.2584824 153.2151054
  53.8846852  84.1973055 153.5361078  50.4673646  95.0468610 147.9726771
  50.6496040  94.2290266 148.4354524  51.2906632  95.2636302 147.5351661
  50.8015811  93.9736795 145.2341820  51.3303578  93.4629250 144.6211982
  51.0644031  93.6579325 146.0987353  44.1571559  95.0251912 147.9939596
  43.4881934  95.5098039 147.5103636  44.0184429  95.2721132 148.9082974
  39.5259136  83.2870367 144.7735528  39.8212577  82.3781045 144.7202582
  38.6247172  83.2658106 144.4516530  43.0553383  81.3626363 150.7563076
  42.3339969  81.9762331 150.6170550  43.8446639  81.8984128 150.6779722
  41.2546978  80.9684464 144.8974853  40.9259684  80.0881843 144.7149959
  41.6086348  80.9132133 145.7851242  50.5026557  92.6039367 149.4069839
  50.3551519  91.6756075 149.5877409  51.3280050  92.6259458 148.9226914
  44.3688801  81.2557434 145.2650331  44.7084873  81.7843355 144.5428939
  44.8160921  81.5937840 146.0408897  46.3556948  79.7532056 143.4643623
  47.0765311  80.1313309 142.9607340  45.7322252  80.4720933 143.5678601
  50.4988071  80.4577205 144.4001956  50.7151685  81.3401843 144.0990784
  50.0182138  80.0663418 143.6707598  45.2387292  83.4162918 150.9772700
  45.0931873  83.7303221 151.8696982  44.7612496  84.0347818 150.4243599
  47.0983675  80.4065466 151.0253590  47.0845244  79.5106559 150.6885888
  47.8156103  80.4136130 151.6591876  53.8955995  93.9453593 145.8496803
  54.0692872  93.3800016 145.0970655  54.3884886  94.7454488 145.6676293
  46.5020571  79.2879846 146.2941160  46.6236482  78.3596492 146.4932048
  46.2122613  79.3018532 145.3819475  49.3711761  76.9734757 149.4307880
  49.3933458  77.0374090 148.4759859  49.7879820  76.1339265 149.6248386
  59.7495386  86.7090016 147.4687102  60.1926532  85.9597341 147.0706226
  58.8721896  86.7000153 147.0860834  54.8831167  93.2620358 142.9493701
  55.5782072  93.8827050 143.1681016  55.2254317  92.4115709 143.2246079
  56.7822590  90.7120063 144.4781032  57.3073914  91.0507336 143.7530352
  56.6944943  89.7767079 144.2944166  48.4663251  96.7792047 148.8376285
  48.0268241  96.2868425 149.5309142  49.2171368  96.2365014 148.5968360
  45.9137123  92.3230056 150.9098587  45.2917132  91.6600761 150.6100814
  46.5841990  92.3491188 150.2272234  45.4750630  90.8733979 144.3857047
  45.6238750  91.5569443 143.7323720  46.2817074  90.8539069 144.9006503
  59.2928250  88.1795255 149.8609550  60.1275142  88.6185059 150.0247110
  59.4287379  87.7033908 149.0417796  43.2303263  86.8999157 145.3918116
  42.9849305  85.9961487 145.5898326  43.3999178  86.9016307 144.4497594
  42.4998911  82.6327514 142.8904278  41.8068156  82.7071869 142.2344313
  42.2550662  81.8687858 143.4125794  48.9746036  93.3682109 141.8568795
  48.4020003  93.9872297 141.4039266  49.5478829  93.9181471 142.3908717
  55.0421425  82.6140749 154.0415343  55.9938848  82.7138847 154.0627567
  54.8724876  81.8219018 154.5513428  53.0635805  79.6996333 154.2274744
  52.4685737  79.9801345 153.5321233  52.7785502  80.1890234 154.9991485
  52.1943295  93.6519260 142.9877377  53.1273969  93.5864821 143.1910252
  52.1066508  94.4875526 142.5291910  54.8231312  92.9685130 139.9481324
  54.7444944  92.6344993 140.8417082  55.6440979  93.4606898 139.9472797
  57.5209503  85.8346869 153.1557643  57.4885823  84.8962870 153.3417327
  58.1310127  85.9130906 152.4223468  49.3592834  84.7042922 139.1984847
  50.3051939  84.5749130 139.2673265  48.9807079  83.9657584 139.6754275
  57.6703992  82.6257913 153.2015926  57.1543040  81.8416369 153.0145855
  58.5543940  82.2976629 153.3662446  55.3314719  76.3698928 149.1611739
  55.1339540  76.0614016 150.0455071  55.9414424  77.0960567 149.2909669
  47.5435751  82.6292899 139.1339732  46.6367207  82.3326011 139.2102446
  47.8211732  82.3322717 138.2674019  38.4613692  83.9499262 149.5838779
  38.1416476  83.0964570 149.2913153  37.9147120  84.1647840 150.3396746
  49.1597817  77.1729788 145.2883974  48.3498545  76.8276873 145.6639220
  49.8482234  76.8637332 145.8771585  51.0888365  76.2507835 146.9108270
  51.6419404  76.6703288 147.5698293  51.3258452  75.3243583 146.9531226
  46.3134536  79.4879834 139.2751712  47.1753700  79.8134732 139.5347529
  46.4984880  78.7011330 138.7624777  54.4667172  78.3608360 146.4186935
  53.8865841  79.0193164 146.0364987  54.2003105  77.5385705 146.0074352
  52.9170739  77.7613418 148.6208255  53.4170517  77.8729952 147.8122574
  53.5606347  77.4574471 149.2609063  40.2438694  87.5020427 149.4297915
  40.2209382  87.6008114 148.4779798  40.5539331  88.3485578 149.7515081
  53.2492050  80.5208451 145.4743283  52.3617905  80.8058101 145.2563478
  53.6646039  80.3602214 144.6270560  56.6006586  80.5454972 149.1897622
  57.3766977  81.0351424 149.4622239  55.8754721  80.9713026 149.6469492
  59.0379145  81.2582591 150.2471563  59.6323636  81.0178327 149.5364871
  59.1105729  80.5389721 150.8745099  52.3935264  90.2853125 139.5691303
  53.0971114  90.4903128 140.1848958  51.6697913  90.8529887 139.8340386
  53.2233074  86.0362987 145.6893573  53.1668275  86.4931538 144.8501205
  53.7761417  85.2753671 145.5116416  57.0337880  81.8252718 146.5143692
  56.7774814  81.4249354 147.3451900  56.4090748  82.5396512 146.3893832
  61.3450218  84.5648792 149.0214984  60.7849776  84.6341981 149.7946546
  60.7393721  84.3889776 148.3014480  54.3021961  90.7235654 141.6189763
  55.1367565  90.2916853 141.4367238  54.1406304  90.5517668 142.5466657
  53.9567853  87.2267768 142.9846102  53.9016657  87.0612039 142.0434546
  53.3313909  87.9343801 143.1408292  47.2663979  76.7275877 142.5631420
  47.2542649  77.6717717 142.7199691  48.1587401  76.5446022 142.2690882
  47.1953543  95.4044767 150.6499177  46.2449174  95.4046629 150.5363549
  47.4986029  94.6577502 150.1335212  51.0816098  73.3218653 146.8177357
  50.3148494  72.7677140 146.9634040  51.4926803  73.3940522 147.6791509
  55.1037944 103.8028315 143.3504954  55.8768820 103.2557302 143.2117830
  55.4563343 104.6672564 143.5619416  57.4404222  99.9620981 140.9823404
  57.6929743  99.4402502 140.2206867  56.5028781  99.7987127 141.0850088
  57.1600511 101.8649087 143.1847779  57.0436769 101.1893990 143.8528864
  57.2702771 101.3781461 142.3679932  59.1437539  96.3549134 141.8855817
  59.3111941  97.2229370 142.2526288  58.9534708  96.5176416 140.9617106
  59.1226760  98.8106791 142.8702484  59.0026385  99.2563842 143.7087964
  58.4279348  99.1592109 142.3116022  53.6118335  98.7479775 147.4236660
  52.8149499  98.8598470 147.9420156  53.3843927  99.0866428 146.5577550
  62.4714767 100.4531759 142.2769483  61.9561390 101.2236364 142.5157871
  62.1992075  99.7796895 142.9002545  55.7635817  97.1773202 142.1324715
  54.9273129  97.5147888 142.4533990  55.6240586  97.0422182 141.1951852
  57.7388897  92.0209990 146.8403900  57.0853309  91.7059007 146.2160514
  57.6969371  91.3985730 147.5663722  58.8500102 102.3029285 138.7557192
  57.9427164 102.0718538 138.9548341  59.3471134 101.5066904 138.9431173
  50.5976506 100.1247394 147.2596384  50.4000906  99.5316754 146.5347450
  50.0423170  99.8199604 147.9772323  59.7264423 103.9450623 140.6169260
  59.2883853 103.2286482 140.1574898  60.4674864 104.1726738 140.0554352
  53.0922732  99.6511428 144.9437336  52.1620320  99.5895883 145.1607298
  53.1880204  99.1287380 144.1473977  53.0108281  96.1766240 147.5315578
  53.2715098  97.0911574 147.4224738  53.8325453  95.7090683 147.6812191
  63.8475651 102.8035005 140.2101318  63.2304821 102.0781833 140.1134371
  63.3792139 103.5644365 139.8668392  55.6374197  97.0220429 139.3322622
  54.7603663  96.9009230 138.9684869  56.1131950  96.2306507 139.0801511
  50.3652891  98.6162284 144.7735528  50.6606332  97.7072963 144.7202582
  49.4640926  98.5950024 144.4516530  52.0940732  96.2976382 144.8974853
  51.7653438  95.4173761 144.7149959  52.4480103  96.2424051 145.7851242
  55.2082555  96.5849352 145.2650331  55.5478628  97.1135273 144.5428939
  55.6554676  96.9229758 146.0408897  57.1950703  95.0823973 143.4643623
  57.9159065  95.4605226 142.9607340  56.5716007  95.8012850 143.5678601
  61.3381825  95.7869122 144.4001956  61.5545440  96.6693760 144.0990784
  60.8575893  95.3955336 143.6707598  57.3414326  94.6171764 146.2941160
  57.4630237  93.6888410 146.4932048  57.0516368  94.6310450 145.3819475
  54.0697018 102.2291074 145.3918116  53.8243059 101.3253404 145.5898326
  54.2392932 102.2308225 144.4497594  53.3392665  97.9619432 142.8904278
  52.6461910  98.0363787 142.2344313  53.0944417  97.1979775 143.4125794
  60.1986589 100.0334840 139.1984847  61.1445693  99.9041048 139.2673265
  59.8200834  99.2949502 139.6754275  58.3829506  97.9584816 139.1339732
  57.4760961  97.6617929 139.2102446  58.6605487  97.6614634 138.2674019
  59.9991571  92.5021706 145.2883974  59.1892300  92.1568791 145.6639220
  60.6875988  92.1929250 145.8771585  61.9282120  91.5799753 146.9108270
  62.4813158  91.9995206 147.5698293  62.1652206  90.6535501 146.9531226
  57.1528290  94.8171751 139.2751712  58.0147454  95.1426650 139.5347529
  57.3378634  94.0303247 138.7624777  58.1057733  92.0567794 142.5631420
  58.0936403  93.0009634 142.7199691  58.9981155  91.8737940 142.2690882
  61.9209853  88.6510571 146.8177357  61.1542249  88.0969058 146.9634040
  62.3320558  88.7232440 147.6791509  39.4994809  53.0617465 129.6763127
  38.8482789  53.6471545 129.2897141  40.2939172  53.5923660 129.7358164
  35.7616714  46.3099268 127.7068711  36.0142235  45.7880790 126.9452174
  34.8241273  46.1465414 127.8095395  40.9770074  50.7507897 130.2132111
  40.3415907  50.8242524 130.9253016  40.6467481  51.3401496 129.5351190
  35.2046144  57.9288720 133.2437922  35.1270174  58.8796545 133.3226402
  34.6007787  57.5834593 133.9012848  43.1424318  45.6306552 130.4228125
  44.0542174  45.8633939 130.2475822  42.6333965  46.2143596 129.8603203
  45.6283132  51.5486808 135.1686070  44.9434170  51.9285709 134.6183103
  45.7126981  52.1582135 135.9018018  37.4784513  53.2870873 131.9643461
  37.3430188  54.1322409 132.3928309  38.0194325  53.4890151 131.2009395
  40.7927259  46.8010046 129.0014790  40.2773883  47.5714651 129.2403177
  40.5204568  46.1275182 129.6247852  45.7661533  49.5542401 130.9367964
  44.9890976  49.2153560 130.4923126  46.4453014  49.5595024 130.2622929
  37.1712594  48.6507572 125.4802498  36.2639656  48.4196825 125.6793647
  37.6683626  47.8545191 125.6676480  40.0780673  57.3605079 128.3999184
  39.4042372  57.6636776 129.0084142  40.4646495  58.1634159 128.0504641
  38.3500828  48.7520167 130.0026488  37.4412047  48.4679200 130.0998958
  38.3795912  49.1719245 129.1429795  43.5820095  52.3626756 133.7717656
  43.1282422  51.5217666 133.8282846  42.9514062  52.9988155 134.1092436
  42.0253034  54.2003253 134.7067474  42.3176009  54.7608310 133.9879840
  42.5351655  54.4931814 135.4620633  38.0476916  50.2928910 127.3414567
  37.6096345  49.5764769 126.8820204  38.7887356  50.5205025 126.7799658
  46.1650030  48.5686108 133.3990885  46.0267929  48.7587704 132.4712075
  45.8086249  49.3305490 133.8558937  38.2771888  57.5284752 130.6146264
  38.4523644  57.0572795 131.4291886  37.5904676  58.1550518 130.8427524
  42.1688143  49.1513292 126.9346625  41.5517314  48.4260120 126.8379677
  41.7004632  49.9122652 126.5913699  37.1450615  55.7225007 133.3030449
  36.3618137  56.2646687 133.3968674  37.8443360  56.2398986 133.7024690
  42.9925828  52.4752464 131.0539264  43.2685672  52.3609059 131.9633138
  42.1230327  52.0769949 131.0151437  39.6279892  56.7238815 134.6972078
  39.8102287  55.9060471 135.1599830  40.4512878  56.9406507 134.2596968
  39.9622058  55.6507000 131.9587126  40.4909824  55.1399455 131.3457288
  40.2250277  55.3349530 132.8232659  43.0562241  55.6223798 132.5742109
  43.2299119  55.0570221 131.8215962  43.5491133  56.4224693 132.3921599
  48.9101633  48.3860221 134.1932409  49.3532779  47.6367546 133.7951532
  48.0328143  48.3770358 133.8106141  44.0437414  54.9390563 129.6739008
  44.7388319  55.5597255 129.8926322  44.3860564  54.0885914 129.9491386
  45.9428837  52.3890268 131.2026338  46.4680161  52.7277541 130.4775658
  45.8551190  51.4537283 131.0189473  34.6356877  52.5504184 131.1102354
  34.7844997  53.2339648 130.4569027  35.4423320  52.5309274 131.6251810
  38.1352282  55.0452314 128.5814101  37.5626249  55.6642501 128.1284573
  38.7085076  55.5951676 129.1154023  41.3549542  55.3289464 129.7122683
  42.2880215  55.2635026 129.9155559  41.2672755  56.1645731 129.2537216
  43.9837559  54.6455335 126.6726631  43.9051190  54.3115198 127.5662389
  44.8047226  55.1377103 126.6718103  38.5199081  46.3813127 125.9230154
  39.4658186  46.2519335 125.9918572  38.1413326  45.6427789 126.3999582
  36.7041998  44.3063103 125.8585039  35.7973453  44.0096216 125.9347753
  36.9817979  44.0092922 124.9919325  41.5541511  51.9623330 126.2936609
  42.2577361  52.1673333 126.9094265  40.8304159  52.5300092 126.5585693
  43.4628208  52.4005859 128.3435069  44.2973812  51.9687058 128.1612544
  43.3012551  52.2287873 129.2711964  43.1174100  48.9037973 129.7091409
  43.0622904  48.7382244 128.7679853  42.4920155  49.6114006 129.8653598
  52.0912483  62.9175511 138.4390246  52.7290893  62.7982258 137.7353586
  51.9733326  63.8656354 138.4978198  48.9002189  62.8702939 138.3751771
  48.5620701  62.7544003 137.4872306  49.7691958  62.4694104 138.3552777
  44.7589005  64.7238415 134.3648662  44.1953870  64.6328352 133.5964950
  44.6441400  63.9038319 134.8451154  42.3053437  66.2189607 137.2032882
  43.0974729  65.8780431 136.7879182  42.5450087  66.3284582 138.1235036
  50.3388564  68.3909383 129.6763127  49.6876544  68.9763463 129.2897141
  51.1332927  68.9215578 129.7358164  44.2644191  65.4798520 130.0750261
  45.0375067  64.9327507 129.9363137  44.6169590  66.3442769 130.2864722
  46.1029233  66.8074902 143.2817160  45.8119099  67.7120533 143.1663827
  46.7386218  66.8491430 143.9961230  47.0285440  64.1851751 139.8718520
  47.6249013  63.9607773 139.1575483  47.0860412  63.4436496 140.4743968
  46.6010469  61.6391186 127.7068711  46.8535989  61.1172707 126.9452174
  45.6635028  61.4757331 127.8095395  51.6453752  60.6426964 135.5143454
  52.4316841  60.2246388 135.1633871  51.9092456  61.5473057 135.6825103
  51.8163829  66.0799815 130.2132111  51.1809662  66.1534441 130.9253016
  51.4861235  66.6693414 129.5351190  57.0462179  60.5802198 136.4176433
  57.7787351  60.0101414 136.6514262  56.2901534  60.1923798 136.8582938
  46.3206757  63.5419292 129.9093086  46.2043016  62.8664195 130.5774170
  46.4309017  63.0551666 129.0925239  48.6638298  63.0029439 133.6139775
  48.2996506  62.4760060 134.3252697  49.5205414  62.6127908 133.4406261
  48.3043785  58.0319339 128.6101124  48.4718188  58.8999575 128.9771595
  48.1140954  58.1946620 127.6862413  51.0619119  66.4936318 140.2766954
  50.7619842  67.3961356 140.1682761  50.7170178  66.2268501 141.1288107
  44.5131600  62.9450115 136.3103658  43.5882097  62.8126329 136.5181350
  44.7616013  63.7244334 136.8073601  54.4616262  59.0118858 137.9564391
  53.5533140  58.9434266 137.6623152  54.4103858  59.4890803 138.7846217
  48.2833006  60.4876996 129.5947791  48.1632631  60.9334047 130.4333271
  47.5885595  60.8362314 129.0361329  41.8740411  62.5883388 137.1447448
  42.0032792  62.8417867 138.0586859  41.1937862  63.1811096 136.8252103
  46.0439898  73.2580638 133.2437922  45.9663928  74.2088463 133.3226402
  45.4401542  72.9126511 133.9012848  56.3277909  57.2135296 139.7342265
  55.6852289  57.5067829 139.0882060  55.8232837  57.0988217 140.5395462
  53.9818072  60.9598469 130.4228125  54.8935929  61.1925856 130.2475822
  53.4727719  61.5435514 129.8603203  52.2658840  65.3823097 144.0589417
  52.6742196  64.9405508 143.3144050  51.5436102  64.8075725 144.3123610
  52.5887655  65.9424288 137.8141706  51.9596517  66.1070002 137.1117774
  52.2013317  66.3565897 138.5852670  56.4676887  66.8778726 135.1686070
  55.7827925  67.2577627 134.6183103  56.5520736  67.4874052 135.9018018
  53.7227818  64.5238685 141.7681413  53.9344713  65.1670445 141.0915794
  53.6757566  63.6901001 141.3003343  51.3254047  57.1356505 138.6717985
  50.4638526  57.4337759 138.9634723  51.3516482  57.3526904 137.7399018
  48.1415617  65.6798696 135.0791791  48.6053962  65.9586399 134.2896414
  47.8772415  64.7782141 134.8964882  45.0339698  65.2270178 138.0171554
  45.6041055  65.6557446 137.3789039  45.6247810  64.9452762 138.7155740
  47.0784503  61.8021848 131.8881356  47.7808546  62.2542892 132.3555283
  46.7465131  61.1605667 132.5161249  40.8209837  60.0605401 137.1898490
  40.0308891  60.3162930 136.7138600  41.3121084  60.8753739 137.2950530
  54.8373646  67.4010640 139.9403771  55.6591090  66.9990827 139.6586452
  54.8336049  67.2978874 140.8919886  42.7724582  60.4249980 134.1481967
  41.9755745  60.5368675 134.6665462  42.5450174  60.7636632 133.2822857
  48.6030250  66.9494683 142.0964481  48.6674682  67.4115091 142.9322653
  47.8941174  66.3192048 142.2246791  62.9279639  63.7449389 136.2888742
  62.1743348  63.1756787 136.1332747  63.0627180  63.7112053 137.2359377
  48.3178267  68.6162791 131.9643461  48.1823942  69.4614327 132.3928309
  48.8588080  68.8182069 131.2009395  41.7707665  66.1338229 132.5371387
  42.2832185  66.9281479 132.6876951  42.4230378  65.4364519 132.4704988
  43.5802549  69.2503985 134.6194140  43.7569178  70.1721950 134.4315124
  44.3759383  68.9362404 135.0488520  49.9446744  69.2386357 146.0943804
  49.5010598  68.4522736 145.7764708  50.6063957  69.4265508 145.4287694
  44.7033865  70.7682159 140.6204482  45.2541290  70.6399222 139.8481476
  43.8645341  71.0677048 140.2699375  52.0427982  69.5189157 144.1225205
  52.0246457  70.3398038 143.6305474  52.9647902  69.3943233 144.3475346
  39.7356581  64.4626883 133.3130957  40.5731803  64.8723892 133.0964665
  39.9134849  63.5226325 133.2831151  51.6321014  62.1301964 129.0014790
  51.1167637  62.9006569 129.2403177  51.3598322  61.4567100 129.6247852
  49.2168125  56.9751665 134.0600028  48.3609721  56.5858515 133.8805667
  49.6295076  57.0543626 133.1999814  50.7467271  54.5098008 138.4591588
  50.2432067  54.4728143 137.6459393  51.0397878  55.4190751 138.5188245
  56.6055288  64.8834319 130.9367964  55.8284730  64.5445478 130.4923126
  57.2846769  64.8886942 130.2622929  51.4207317  60.0029056 130.8274571
  51.1157452  60.3175205 131.6784714  52.3737759  60.0810476 130.8701904
  49.8653749  66.1619279 132.4767525  49.3375110  65.4272039 132.1640763
  49.3641251  66.9393956 132.2307494  54.8446595  64.3568300 137.5934572
  54.1870269  65.0467561 137.6814700  55.6486994  64.7464732 137.9368558
  44.5972476  56.8238946 134.8374137  45.1716228  56.6014127 134.1047330
  45.1843459  56.8927640 135.5902738  53.6552053  62.7112673 135.6438513
  54.1683935  63.3442664 136.1460223  54.3053277  62.1113868 135.2781873
  44.9242063  58.8543407 128.8570022  44.0879376  59.1918093 129.1779297
  44.7846833  58.7192386 127.9197159  46.8995144  53.6980195 133.5649206
  46.2459556  53.3829212 132.9405821  46.8575618  53.0755935 134.2909029
  48.0106349  63.9799490 125.4802498  47.1033411  63.7488743 125.6793647
  48.5077381  63.1837109 125.6676480  50.9174428  72.6896997 128.3999184
  50.2436126  72.9928694 129.0084142  51.3040250  73.4926077 128.0504641
  50.1332884  60.1862128 137.8896854  49.2155446  60.4077075 137.7318542
  50.5493028  60.2608439 137.0308561  50.9167932  61.5853544 133.0199534
  51.6639751  62.0974941 132.7106656  51.1859522  61.2637596 133.8803928
  49.1894582  64.0812084 130.0026488  48.2805801  63.7971117 130.0998958
  49.2189666  64.5011163 129.1429795  54.4213850  67.6918674 133.7717656
  53.9676177  66.8509584 133.8282846  53.7907816  68.3280072 134.1092436
  53.3646769  58.6210660 135.0018323  52.6269526  58.1088046 135.3328566
  53.6173543  58.1811042 134.1901600  52.8646789  69.5295171 134.7067474
  53.1569763  70.0900228 133.9879840  53.3745409  69.8223732 135.4620633
  53.4658397  51.3986912 135.5960093  53.7717273  50.5384275 135.3086008
  54.1911001  51.9904532 135.3959087  39.7582753  61.8017599 133.9841691
  39.5607152  61.2086959 133.2592757  39.2029417  61.4969809 134.7017629
  47.7379476  61.6940705 136.1036284  47.7928086  60.7414541 136.0278760
  46.9270678  61.8500144 136.5877582  48.8870670  65.6220828 127.3414567
  48.4490100  64.9056687 126.8820204  49.6281111  65.8496943 126.7799658
  45.6771836  60.3117765 133.8626663  44.8639702  60.6111935 134.2691855
  46.1730830  59.9173454 134.5801145  47.8280414  70.3075522 135.7960927
  47.7856593  70.5336368 134.8669459  48.7443113  70.0738896 135.9446728
  57.0043785  63.8978025 133.3990885  56.8661683  64.0879621 132.4712075
  56.6480004  64.6597408 133.8558937  57.0313164  65.9654552 138.4102157
  57.4649671  65.8729841 139.2585211  57.7444745  65.9412053 137.7722173
  45.9446215  67.1838551 135.5922890  46.7386813  66.6888871 135.3905465
  45.2337907  66.6556414 135.2290596  50.7641059  69.5656646 139.9435258
  50.8178082  70.1347583 140.7112973  49.8955841  69.7358531 139.5789295
  42.2528978  61.3281633 131.6682643  41.3226566  61.2666088 131.8852605
  42.3486450  60.8057585 130.8719284  42.1714527  57.8536445 134.2560884
  42.4321345  58.7681779 134.1470045  42.9931700  57.3860888 134.4057497
  57.8928714  66.0078253 140.9435042  58.0864604  66.9124063 141.1894317
  57.7929332  65.5485672 141.7773627  52.9543823  66.1584996 146.5175923
  52.8029329  65.9295547 145.6006007  52.9448502  67.1155597 146.5307268
  49.7229159  63.7316908 141.5022189  50.6521219  63.8828068 141.3291157
  49.3020189  63.8200929 140.6470836  48.5217491  67.7567573 139.2720727
  48.3828577  67.3886357 140.1446665  47.7332087  68.2715212 139.1004685
  49.1165643  72.8576669 130.6146264  49.2917398  72.3864712 131.4291886
  48.4298431  73.4842435 130.8427524  50.0722706  67.1349175 136.6609565
  49.7372539  67.0949945 137.5567215  49.5726652  66.4693891 136.1879975
  53.0081898  64.4805210 126.9346625  52.3911068  63.7552038 126.8379677
  52.5398386  65.2414570 126.5913699  54.6636029  69.1904118 144.5952405
  54.6048575  68.5063338 143.9282988  55.0655548  69.9323108 144.1433031
  43.6826728  76.0066032 137.3886124  43.9223326  76.6384556 138.0665142
  42.8395925  75.6554072 137.6751483  44.7980444  58.6990634 126.0567929
  43.9209910  58.5779435 125.6930175  45.2738197  57.9076712 125.8046817
  54.6653437  67.1543702 142.8266385  53.7780215  66.8169624 142.9492783
  55.2351988  66.4226733 143.0635150  36.3182584  63.4867794 136.1509436
  37.0053624  63.1729524 135.5630451  36.1630712  64.3909158 135.8776687
  48.1954590  71.8145154 139.7927628  48.1224761  72.6200126 140.3046932
  47.7531983  72.0137120 138.9675649  47.9844370  71.0516924 133.3030449
  47.2011891  71.5938605 133.3968674  48.6837115  71.5690904 133.7024690
  51.2941020  56.8611554 135.9464655  51.7909719  56.1081516 135.6265725
  50.5228001  56.8975871 135.3807864  59.1470777  62.5651919 137.5882946
  59.1360653  63.4476635 137.2176879  58.2788157  62.2123470 137.3937483
  50.6553273  71.7131988 141.9485786  51.3681246  72.3479453 141.8761688
  50.1643302  71.8095854 141.1325788  52.3770800  65.6183241 133.5203078
  51.4427079  65.7384704 133.3507782  52.5547469  64.7155708 133.2563088
  47.8775988  59.0028937 135.6736339  47.5073776  58.4499977 136.3617245
  48.3735081  58.3987070 135.1211339  55.7643352  61.4600560 134.0553112
  56.2303804  62.2928552 133.9813415  56.2150852  60.9945542 134.7598371
  45.7065187  69.4626432 142.7691357  46.4074647  70.0962915 142.9220751
  45.2360302  69.8041163 142.0086996  53.8319583  67.8044382 131.0539264
  54.1079427  67.6900976 131.9633138  52.9624082  67.4061867 131.0151437
  53.7360014  53.8281147 138.0944014  52.8223094  54.0585374 138.2626220
  54.1653116  53.9119591 138.9458046  53.5066473  62.0171039 140.5943908
  52.8537923  62.2646947 139.9396360  53.8846853  61.2035178 140.2606385
  50.4673647  72.0530733 134.6972078  50.6496041  71.2352388 135.1599830
  51.2906633  72.2698425 134.2596968  50.8015812  70.9798918 131.9587126
  51.3303579  70.4691372 131.3457288  51.0644032  70.6641448 132.8232659
  41.3032905  68.9962787 139.7022460  41.8886342  68.2506475 139.8350364
  41.1057744  69.3066744 140.5859124  44.1571560  72.0314034 134.7184902
  43.4881936  72.5160162 134.2348942  44.0184430  72.2783255 135.6328281
  48.2976829  74.0657778 141.3167561  48.8495137  74.2289399 142.0816646
  48.6383022  74.6562216 140.6447586  53.1487703  68.8919035 147.1716215
  53.6927607  69.5048994 146.6771170  52.5674548  69.4498614 147.6883228
  39.5259137  60.2932489 131.4980834  39.8212578  59.3843168 131.4447888
  38.6247173  60.2720229 131.1761837  51.4345216  72.0139753 138.3031243
  51.3096356  71.2129493 137.7942188  52.0924307  72.5085947 137.8145213
  43.0553384  58.3688486 137.4808383  42.3339970  58.9824454 137.3415856
  43.8446640  58.9046251 137.4025029  53.4980125  69.8148774 139.9310793
  52.5510460  69.6954125 139.8589120  53.8462898  68.9271272 140.0137054
  41.2546979  57.9746587 131.6220160  40.9259685  57.0943966 131.4395266
  41.6086350  57.9194256 132.5096549  50.5026558  69.6101490 136.1315145
  50.3551520  68.6818197 136.3122715  51.3280051  69.6321580 135.6472220
  44.3688802  58.2619557 131.9895637  44.7084875  58.7905478 131.2674246
  44.8160923  58.5999963 132.7654204  54.1060680  70.4330048 137.2180018
  55.0307227  70.2272910 137.0804469  53.9375983  70.1846450 138.1269359
  46.3556949  56.7594178 130.1888930  47.0765312  57.1375431 129.6852647
  45.7322253  57.4783055 130.2923908  50.4988072  57.4639327 131.1247262
  50.7151687  58.3463965 130.8236091  50.0182139  57.0725541 130.3952904
  45.2387294  60.4225041 137.7018007  45.0931874  60.7365344 138.5942288
  44.7612497  61.0409941 137.1488906  47.0983676  57.4127589 137.7498897
  47.0845245  56.5168682 137.4131194  47.8156105  57.4198252 138.3837183
  53.8955996  70.9515716 132.5742109  54.0692873  70.3862138 131.8215962
  54.3884887  71.7516611 132.3921599  46.5020572  56.2941969 133.0186467
  46.6236484  55.3658615 133.2177354  46.2122615  56.3080655 132.1064782
  49.3711763  53.9796879 136.1553187  49.3933460  54.0436212 135.2005166
  49.7879822  53.1401388 136.3493693  59.7495387  63.7152139 134.1932409
  60.1926533  62.9659464 133.7951532  58.8721897  63.7062275 133.8106141
  54.8831168  70.2682480 129.6739008  55.5782073  70.8889173 129.8926322
  55.2254319  69.4177832 129.9491386  56.7822592  67.7182186 131.2026338
  57.3073916  68.0569459 130.4775658  56.6944944  66.7829201 131.0189473
  48.4442640  71.6316259 143.3316215  48.7529767  71.3865406 144.2038915
  49.2418122  71.8362898 142.8435085  48.4663252  73.7854169 135.5621592
  48.0268243  73.2930548 136.2554448  49.2171369  73.2427137 135.3213667
  40.9455591  69.9765710 135.5646220  41.7713611  69.6769482 135.1844863
  40.5949643  69.2073332 136.0136008  45.9137124  69.3292178 137.6343893
  45.2917134  68.6662883 137.3346121  46.5841991  69.3553310 136.9517541
  39.1464196  67.8952036 136.5235153  38.3096105  67.4674211 136.3419154
  39.1187842  68.0884480 137.4605944  56.4716498  68.3515089 146.5077536
  55.6812041  68.3339228 145.9682036  56.2349852  68.8903383 147.2626573
  56.5914373  65.2007556 143.8210265  56.6412378  65.0357563 144.7625788
  56.4828296  64.3334815 143.4308146  45.4750631  67.8796102 131.1102354
  45.6238752  68.5631566 130.4569027  46.2817075  67.8601192 131.6251810
  58.0932569  67.6204497 144.0652286  57.8017378  67.9834478 144.9015747
  57.4804701  66.9071506 143.8865618  59.2928252  65.1857377 136.5854857
  60.1275143  65.6247181 136.7492417  59.4287381  64.7096030 135.7663102
  56.3419758  62.7437112 142.5332344  56.8173879  62.9364758 141.7251196
  55.4185323  62.7996298 142.2875728  43.2303264  63.9061279 132.1163423
  42.9849306  63.0023609 132.3143633  43.3999179  63.9078430 131.1742901
  42.4998912  59.6389637 129.6149584  41.8068157  59.7133992 128.9589620
  42.2550664  58.8749980 130.1371101  48.9746037  70.3744232 128.5814101
  48.4020004  70.9934419 128.1284573  49.5478831  70.9243594 129.1154023
  55.0421427  59.6202872 140.7660650  55.9938850  59.7200970 140.7872874
  54.8724877  58.8281141 141.2758734  53.0635806  56.7058455 140.9520051
  52.4685738  56.9863468 140.2566540  52.7785503  57.1952356 141.7236792
  52.1943297  70.6581382 129.7122683  53.1273970  70.5926944 129.9155559
  52.1066509  71.4937649 129.2537216  54.8231313  69.9747252 126.6726631
  54.7444945  69.6407116 127.5662389  55.6440980  70.4669020 126.6718103
  57.5209504  62.8408992 139.8802950  57.4885825  61.9024993 140.0662633
  58.1310128  62.9193028 139.1468775  49.3592835  61.7105045 125.9230154
  50.3051940  61.5811253 125.9918572  48.9807080  60.9719707 126.3999582
  57.6703993  59.6320035 139.9261233  57.1543042  58.8478492 139.7391162
  58.5543941  59.3038752 140.0907752  55.3314720  53.3761051 135.8857046
  55.1339541  53.0676139 136.7700377  55.9414425  54.1022690 136.0154975
  63.3386054  63.9024999 139.0208986  64.0689443  63.6410287 139.5816690
  62.7293000  63.1653721 139.0611054  61.4201351  62.0432861 139.6183438
  60.6934515  61.9088826 139.0099929  61.0048638  62.3509690 140.4240156
  47.5435752  59.6355021 125.8585039  46.6367208  59.3388134 125.9347753
  47.8211733  59.3384839 124.9919325  38.4613693  60.9561385 136.3084085
  38.1416477  60.1026693 136.0158459  37.9147121  61.1709963 137.0642053
  42.2393600  63.6723826 140.0253592  42.4579610  64.6040933 140.0441626
  42.6519374  63.3131800 140.8108396  49.1597818  54.1791911 132.0129280
  48.3498547  53.8338996 132.3884526  49.8482235  53.8699455 132.6016892
  51.0888366  53.2569958 133.6353577  51.6419405  53.6765411 134.2943600
  51.3258453  52.3305706 133.6776533  46.3134537  56.4941956 125.9997018
  47.1753701  56.8196855 126.2592835  46.4984881  55.7073452 125.4870084
  38.3301953  64.5764296 138.2777207  37.6365424  64.1618249 137.7647161
  39.0774944  64.6184833 137.6810626  54.4667174  55.3670483 133.1432241
  53.8865843  56.0255287 132.7610294  54.2003106  54.5447827 132.7319659
  52.9170740  54.7675541 135.3453561  53.4170518  54.8792075 134.5367880
  53.5606348  54.4636593 135.9854370  40.2438695  64.5082550 136.1543222
  40.2209384  64.6070237 135.2025105  40.5539332  65.3547701 136.4760388
  42.9026073  66.5658705 140.2689836  43.8569327  66.5342647 140.2019768
  42.7038597  66.1049329 141.0840062  53.2492052  57.5270573 132.1988589
  52.3617907  57.8120224 131.9808784  53.6646041  57.3664337 131.3515866
  56.6006588  57.5517094 135.9142929  57.3766978  58.0413547 136.1867545
  55.8754722  57.9775148 136.3714798  59.0379146  58.2644713 136.9716869
  59.6323637  58.0240449 136.2610177  59.1105730  57.5451844 137.5990406
  41.2576302  72.1078324 137.2860034  41.1230770  71.3478725 136.7198032
  40.8408364  72.8319224 136.8188823  52.3935265  67.2915248 126.2936609
  53.0971115  67.4965250 126.9094265  51.6697914  67.8592010 126.5585693
  53.2233075  63.0425109 132.4138880  53.1668277  63.4993661 131.5746512
  53.7761418  62.2815794 132.2361722  57.0337881  58.8314841 133.2388999
  56.7774815  58.4311477 134.0697207  56.4090749  59.5458635 133.1139138
  61.3450219  61.5710914 135.7460290  60.7849777  61.6404104 136.5191853
  60.7393722  61.3951899 135.0259787  44.4145428  73.0047641 137.4978477
  44.2977812  73.9493074 137.3957167  43.5937874  72.7021203 137.8864276
  54.3021962  67.7297777 128.3435069  55.1367566  67.2978976 128.1612544
  54.1406305  67.5579791 129.2711964  53.9567855  64.2329890 129.7091409
  53.9016658  64.0674162 128.7679853  53.3313910  64.9405923 129.8653598
  47.2663980  53.7337999 129.2876727  47.2542650  54.6779839 129.4444998
  48.1587402  53.5508145 128.9936188  45.4399942  73.6575903 140.7134405
  46.3427189  73.6899514 141.0300900  45.2137312  72.7276354 140.7280741
  47.1953544  72.4106890 137.3744484  46.2449175  72.4108751 137.2608856
  47.4986030  71.6639624 136.8580518  51.0816100  50.3280776 133.5422664
  50.3148495  49.7739263 133.6879346  51.4926805  50.4002645 134.4036816
  62.9306238  78.2467428 138.4390246  63.5684648  78.1274176 137.7353586
  62.8127080  79.1948272 138.4978198  59.7395944  78.1994856 138.3751771
  59.4014455  78.0835921 137.4872306  60.6085712  77.7986021 138.3552777
  55.5982760  80.0530333 134.3648662  55.0347625  79.9620270 133.5964950
  55.4835155  79.2330237 134.8451154  60.2215727  79.3529708 144.3337976
  60.2104368  78.9582506 143.4618480  60.3836366  78.6195781 144.9271748
  53.1447191  81.5481524 137.2032882  53.9368483  81.2072349 136.7879182
  53.3843842  81.6576499 138.1235036  61.1782318  83.7201300 129.6763127
  60.5270298  84.3055381 129.2897141  61.9726681  84.2507495 129.7358164
  55.1037945  80.8090438 130.0750261  55.8768821  80.2619425 129.9363137
  55.4563344  81.6734687 130.2864722  56.9422988  82.1366820 143.2817160
  56.6512854  83.0412451 143.1663827  57.5779972  82.1783347 143.9961230
  57.8679195  79.5143668 139.8718520  58.4642767  79.2899691 139.1575483
  57.9254166  78.7728414 140.4743968  57.4404223  76.9683104 127.7068711
  57.6929744  76.4464625 126.9452174  56.5028782  76.8049249 127.8095395
  62.4847506  75.9718882 135.5143454  63.2710595  75.5538305 135.1633871
  62.7486210  76.8764974 135.6825103  62.6557583  81.4091732 130.2132111
  62.0203416  81.4826359 130.9253016  62.3254990  81.9985331 129.5351190
  67.8855933  75.9094115 136.4176433  68.6181105  75.3393332 136.6514262
  67.1295289  75.5215716 136.8582938  57.1600512  78.8711210 129.9093086
  57.0436770  78.1956113 130.5774170  57.2702772  78.3843584 129.0925239
  59.5032053  78.3321357 133.6139775  59.1390260  77.8051978 134.3252697
  60.3599169  77.9419826 133.4406261  65.4081354  69.6215689 140.8771041
  65.0764678  70.4911100 140.6532256  64.8126967  69.3051973 141.5565072
  59.1437540  73.3611256 128.6101124  59.3111942  74.2291493 128.9771595
  58.9534709  73.5238538 127.6862413  61.9012873  81.8228235 140.2766954
  61.6013596  82.7253274 140.1682761  61.5563933  81.5560419 141.1288107
  55.3525355  78.2742032 136.3103658  54.4275851  78.1418246 136.5181350
  55.6009768  79.0536251 136.8073601  65.3010017  74.3410776 137.9564391
  64.3926894  74.2726184 137.6623152  65.2497613  74.8182720 138.7846217
  59.1226761  75.8168914 129.5947791  59.0026386  76.2625965 130.4333271
  58.4279349  76.1654232 129.0361329  52.7134166  77.9175306 137.1447448
  52.8426547  78.1709785 138.0586859  52.0331617  78.5103014 136.8252103
  56.8833653  88.5872556 133.2437922  56.8057683  89.5380381 133.3226402
  56.2795296  88.2418428 133.9012848  59.3750883  75.7600421 145.8999289
  58.5984217  76.3194341 145.8902153  60.0141446  76.2457204 146.4214159
  67.1671663  72.5427214 139.7342265  66.5246043  72.8359747 139.0882060
  66.6626592  72.4280134 140.5395462  64.8211827  76.2890387 130.4228125
  65.7329683  76.5217774 130.2475822  64.3121474  76.8727431 129.8603203
  57.6297255  78.5685874 145.4617256  58.3711939  79.1070918 145.1852079
  56.9234240  79.1952163 145.6188807  63.1052595  80.7115015 144.0589417
  63.5135951  80.2697425 143.3144050  62.3829856  80.1367642 144.3123610
  59.4583665  75.6487622 141.4322974  60.3044860  76.0727035 141.5757623
  59.3982302  74.9921246 142.1261537  63.4281409  81.2716206 137.8141706
  62.7990272  81.4361920 137.1117774  63.0407071  81.6857815 138.5852670
  67.3070641  82.2070643 135.1686070  66.6221679  82.5869545 134.6183103
  67.3914490  82.8165970 135.9018018  62.6083110  73.3091990 143.0904148
  62.3644042  74.0634051 142.5538423  62.8843040  73.6877338 143.9251395
  64.5621573  79.8530602 141.7681413  64.7738468  80.4962362 141.0915794
  64.5151321  79.0192919 141.3003343  62.1647802  72.4648423 138.6717985
  61.3032281  72.7629677 138.9634723  62.1910236  72.6818822 137.7399018
  58.9809371  81.0090614 135.0791791  59.4447717  81.2878317 134.2896414
  58.7166169  80.1074058 134.8964882  55.8733452  80.5562095 138.0171554
  56.4434809  80.9849364 137.3789039  56.4641564  80.2744680 138.7155740
  57.9178257  77.1313766 131.8881356  58.6202300  77.5834810 132.3555283
  57.5858886  76.4897585 132.5161249  56.3658619  75.7225523 146.2632566
  55.7357279  76.4041804 146.4967962  56.2594707  75.6108604 145.3185704
  51.6603591  75.3897319 137.1898490  50.8702645  75.6454847 136.7138600
  52.1514838  76.2045657 137.2950530  65.6767401  82.7302558 139.9403771
  66.4984844  82.3282745 139.6586452  65.6729804  82.6270792 140.8919886
  53.6118336  75.7541898 134.1481967  52.8149500  75.8660592 134.6665462
  53.3843929  76.0928550 133.2822857  59.4424004  82.2786601 142.0964481
  59.5068437  82.7407008 142.9322653  58.7334928  81.6483966 142.2246791
  49.9441294  75.6427809 139.6213481  50.1949333  76.5274819 139.8871057
  50.4800843  75.4632411 138.8488572  73.7673394  79.0741306 136.2888742
  73.0137102  78.5048704 136.1332747  73.9020935  79.0403971 137.2359377
  59.1572022  83.9454709 131.9643461  59.0217697  84.7906244 132.3928309
  59.6981834  84.1473986 131.2009395  55.6439361  70.0246288 148.6257817
  55.2506307  69.4712487 149.3005461  56.4605502  70.3356867 149.0164334
  52.6101419  81.4630147 132.5371387  53.1225940  82.2573397 132.6876951
  53.2624132  80.7656437 132.4704988  54.4196304  84.5795903 134.6194140
  54.5962932  85.5013868 134.4315124  55.2153137  84.2654322 135.0488520
  58.5607322  71.4404168 146.2178073  59.3017036  72.0411321 146.1382536
  58.7925245  70.6981805 145.6596116  53.7048660  76.6260535 144.4956303
  53.5902176  75.7245792 144.7963402  52.8493178  76.8724232 144.1441119
  60.7840498  84.5678275 146.0943804  60.3404352  83.7814654 145.7764708
  61.4457712  84.7557426 145.4287694  55.5427619  86.0974077 140.6204482
  56.0935044  85.9691140 139.8481476  54.7039095  86.3968966 140.2699375
  62.8821736  84.8481075 144.1225205  62.8640212  85.6689956 143.6305474
  63.8041656  84.7235150 144.3475346  59.3394790  82.3625205 144.9648713
  59.8723127  81.6013493 144.7348021  58.8108871  82.0698856 145.7072868
  62.5064485  67.4685271 140.4942355  62.1628755  68.3586912 140.4181466
  62.8743448  67.2786928 139.6311940  50.5750336  79.7918801 133.3130957
  51.4125558  80.2015809 133.0964665  50.7528604  78.8518243 133.2831151
  62.4714768  77.4593882 129.0014790  61.9561392  78.2298486 129.2403177
  62.1992077  76.7859018 129.6247852  60.0561879  72.3043582 134.0600028
  59.2003475  71.9150433 133.8805667  60.4688831  72.3835543 133.1999814
  61.5861026  69.8389926 138.4591588  61.0825821  69.8020061 137.6459393
  61.8791633  70.7482668 138.5188245  57.8303912  69.9228655 137.4657770
  58.6956908  69.7271464 137.1063659  57.8981421  69.6939007 138.3927127
  67.4449042  80.2126236 130.9367964  66.6678485  79.8737396 130.4923126
  68.1240523  80.2178859 130.2622929  62.2601071  75.3320974 130.8274571
  61.9551207  75.6467123 131.6784714  63.2131513  75.4102394 130.8701904
  60.7047503  81.4911197 132.4767525  60.1768865  80.7563957 132.1640763
  60.2035006  82.2685873 132.2307494  65.6840349  79.6860218 137.5934572
  65.0264024  80.3759479 137.6814700  66.4880748  80.0756649 137.9368558
  55.4366231  72.1530863 134.8374137  56.0109983  71.9306045 134.1047330
  56.0237213  72.2219558 135.5902738  64.4945808  78.0404590 135.6438513
  65.0077690  78.6734582 136.1460223  65.1447032  77.4405786 135.2781873
  55.7635818  74.1835324 128.8570022  54.9273130  74.5210011 129.1779297
  55.6240587  74.0484304 127.9197159  57.7388898  69.0272112 133.5649206
  57.0853311  68.7121129 132.9405821  57.6969373  68.4047853 134.2909029
  58.8500103  79.3091407 125.4802498  57.9427165  79.0780661 125.6793647
  59.3471135  78.5129027 125.6676480  61.7568182  88.0188914 128.3999184
  61.0829881  88.3220611 129.0084142  62.1434004  88.8217995 128.0504641
  60.9726639  75.5154046 137.8896854  60.0549200  75.7368993 137.7318542
  61.3886782  75.5900356 137.0308561  61.7561687  76.9145461 133.0199534
  62.5033505  77.4266859 132.7106656  62.0253276  76.5929514 133.8803928
  60.0288337  79.4104002 130.0026488  59.1199556  79.1263035 130.0998958
  60.0583421  79.8303081 129.1429795  65.2607604  83.0210592 133.7717656
  64.8069931  82.1801502 133.8282846  64.6301571  83.6571990 134.1092436
  64.2040524  73.9502578 135.0018323  63.4663280  73.4379964 135.3328566
  64.4567297  73.5102959 134.1901600  63.7040543  84.8587088 134.7067474
  63.9963518  85.4192145 133.9879840  64.2139164  85.1515649 135.4620633
  64.3052151  66.7278830 135.5960093  64.6111028  65.8676193 135.3086008
  65.0304756  67.3196450 135.3959087  50.5976507  77.1309516 133.9841691
  50.4000907  76.5378877 133.2592757  50.0423171  76.8261726 134.7017629
  58.5773231  77.0232623 136.1036284  58.6321841  76.0706459 136.0278760
  57.7664433  77.1792062 136.5877582  59.7264425  80.9512746 127.3414567
  59.2883854  80.2348605 126.8820204  60.4674865  81.1788861 126.7799658
  56.5165591  75.6409683 133.8626663  55.7033456  75.9403853 134.2691855
  57.0124585  75.2465371 134.5801145  58.6674169  85.6367439 135.7960927
  58.6250347  85.8628286 134.8669459  59.5836867  85.4030814 135.9446728
  62.1139802  76.1051507 142.6941556  62.4689190  76.3322980 143.5536022
  62.7611934  76.4369884 142.0718812  67.8437539  79.2269943 133.3990885
  67.7055438  79.4171539 132.4712075  67.4873758  79.9889326 133.8558937
  56.0079665  73.2128038 139.4787898  56.6479045  73.0716797 138.7810861
  55.1757196  72.9262551 139.1026500  67.8706919  81.2946470 138.4102157
  68.3043426  81.2021759 139.2585211  68.5838500  81.2703970 137.7722173
  56.7839969  82.5130468 135.5922890  57.5780568  82.0180789 135.3905465
  56.0731662  81.9848332 135.2290596  61.6034814  84.8948564 139.9435258
  61.6571836  85.4639500 140.7112973  60.7349595  85.0650449 139.5789295
  53.0922733  76.6573550 131.6682643  52.1620321  76.5958006 131.8852605
  53.1880205  76.1349503 130.8719284  53.0108282  73.1828363 134.2560884
  53.2715099  74.0973696 134.1470045  53.8325454  72.7152806 134.4057497
  54.4833207  74.5966120 141.4259709  55.1556261  74.3883482 140.7772358
  53.6562994  74.3988206 140.9864941  68.7322468  81.3370171 140.9435042
  68.9258359  82.2415981 141.1894317  68.6323087  80.8777590 141.7773627
  60.3858779  71.2228061 143.4425370  59.7386694  71.9218011 143.3489846
  61.1559795  71.6564205 143.8101618  63.7937577  81.4876913 146.5175923
  63.6423084  81.2587465 145.6006007  63.7842257  82.4447515 146.5307268
  60.5622914  79.0608826 141.5022189  61.4914974  79.2119986 141.3291157
  60.1413944  79.1492847 140.6470836  59.3611245  83.0859490 139.2720727
  59.2222331  82.7178275 140.1446665  58.5725842  83.6007130 139.1004685
  59.9559397  88.1868587 130.6146264  60.1311153  87.7156630 131.4291886
  59.2692185  88.8134353 130.8427524  60.9116460  82.4641093 136.6609565
  60.5766293  82.4241863 137.5567215  60.4120406  81.7985809 136.1879975
  54.8860704  77.8708723 142.1862146  54.7480502  77.1388962 142.7873685
  55.7965628  77.7817623 141.9046334  63.8475652  79.8097127 126.9346625
  63.2304823  79.0843956 126.8379677  63.3792141  80.5706488 126.5913699
  57.5143005  77.5828683 141.6745826  58.2242624  76.9421875 141.6332444
  57.4712313  77.8341577 142.5972006  65.5029784  84.5196036 144.5952405
  65.4442330  83.8355256 143.9282988  65.9049302  85.2615026 144.1433031
  56.2271939  74.5693900 143.4941465  55.6909296  74.1184639 144.1463061
  55.6388648  74.7039809 142.7511929  54.5220483  91.3357950 137.3886124
  54.7617081  91.9676474 138.0665142  53.6789679  90.9845990 137.6751483
  55.6374198  74.0282552 126.0567929  54.7603664  73.9071353 125.6930175
  56.1131951  73.2368630 125.8046817  65.5047191  82.4835620 142.8266385
  64.6173970  82.1461542 142.9492783  66.0745742  81.7518651 143.0635150
  47.1576338  78.8159712 136.1509436  47.8447378  78.5021442 135.5630451
  47.0024467  79.7201076 135.8776687  51.9611060  73.7049908 140.5794460
  51.8769249  73.0975578 139.8444870  51.1393767  74.1958926 140.5803956
  59.0348344  87.1437072 139.7927628  58.9618516  87.9492044 140.3046932
  58.5925738  87.3429038 138.9675649  58.8238124  86.3808842 133.3030449
  58.0405646  86.9230522 133.3968674  59.5230869  86.8982822 133.7024690
  62.1334774  72.1903472 135.9464655  62.6303474  71.4373434 135.6265725
  61.3621756  72.2267788 135.3807864  69.9864532  77.8943837 137.5882946
  69.9754408  78.7768553 137.2176879  69.1181911  77.5415388 137.3937483
  61.4947028  87.0423906 141.9485786  62.2075000  87.6771371 141.8761688
  61.0037057  87.1387772 141.1325788  63.2164555  80.9475159 133.5203078
  62.2820834  81.0676621 133.3507782  63.3941223  80.0447626 133.2563088
  58.7169743  74.3320855 135.6736339  58.3467530  73.7791895 136.3617245
  59.2128835  73.7278988 135.1211339  66.6037106  76.7892478 134.0553112
  67.0697558  77.6220470 133.9813415  67.0544607  76.3237460 134.7598371
  56.5458941  84.7918350 142.7691357  57.2468401  85.4254833 142.9220751
  56.0754056  85.1333081 142.0086996  64.6713337  83.1336299 131.0539264
  64.9473181  83.0192894 131.9633138  63.8017836  82.7353784 131.0151437
  64.5753769  69.1573065 138.0944014  63.6616849  69.3877292 138.2626220
  65.0046870  69.2411509 138.9458046  64.3460227  77.3462957 140.5943908
  63.6931678  77.5938865 139.9396360  64.7240607  76.5327095 140.2606385
  61.3067401  87.3822650 134.6972078  61.4889796  86.5644306 135.1599830
  62.1300387  87.5990342 134.2596968  61.6409567  86.3090835 131.9587126
  62.1697333  85.7983290 131.3457288  61.9037786  85.9933366 132.8232659
  60.3947800  78.0882768 147.0809945  59.7188438  77.9876897 147.7512320
  61.2175434  77.9321982 147.5445942  52.1426660  84.3254705 139.7022460
  52.7280096  83.5798393 139.8350364  51.9451498  84.6358661 140.5859124
  54.9965315  87.3605952 134.7184902  54.3275690  87.8452080 134.2348942
  54.8578184  87.6075173 135.6328281  46.7344314  76.8960305 138.4226903
  46.7728414  76.3623896 139.2164021  46.2284607  76.3695510 137.8037880
  59.1370583  89.3949696 141.3167561  59.6888891  89.5581317 142.0816646
  59.4776777  89.9854133 140.6447586  54.1135077  71.7424845 141.9189445
  54.1776403  72.6039676 141.5066843  54.0502197  71.1298847 141.1861804
  53.5887349  73.8147978 145.5662480  54.2159388  73.4325055 146.1800004
  52.7315268  73.5962180 145.9318172  63.9881458  84.2210953 147.1716215
  64.5321362  84.8340911 146.6771170  63.4068303  84.7790531 147.6883228
  50.3652892  75.6224407 131.4980834  50.6606333  74.7135085 131.4447888
  49.4640928  75.6012146 131.1761837  62.2738971  87.3431671 138.3031243
  62.1490110  86.5421411 137.7942188  62.9318062  87.8377864 137.8145213
  53.8947139  73.6980404 137.4808383  53.1733725  74.3116371 137.3415856
  54.6840395  74.2338168 137.4025029  64.3373879  85.1440691 139.9310793
  63.3904215  85.0246042 139.8589120  64.6856652  84.2563189 140.0137054
  56.6973452  71.0334830 143.7549035  57.2207854  71.2797127 144.5175344
  56.4785786  71.8654865 143.3352172  52.0940733  73.3038505 131.6220160
  51.7653440  72.4235884 131.4395266  52.4480104  73.2486173 132.5096549
  61.3420312  84.9393407 136.1315145  61.1945275  84.0110115 136.3122715
  62.1673806  84.9613498 135.6472220  55.2082557  73.5911474 131.9895637
  55.5478629  74.1197396 131.2674246  55.6554677  73.9291881 132.7654204
  64.9454434  85.7621966 137.2180018  65.8700982  85.5564827 137.0804469
  64.7769738  85.5138367 138.1269359  57.9025997  71.9748525 141.4398705
  57.5622818  71.1756338 141.8419385  57.1965004  72.2750236 140.8675539
  58.5542469  69.0597838 139.8926028  59.3768539  68.5858316 139.7704919
  58.7980533  69.8388321 140.3924715  57.1950704  72.0886096 130.1888930
  57.9159066  72.4667349 129.6852647  56.5716008  72.8074973 130.2923908
  61.3381827  72.7931245 131.1247262  61.5545441  73.6755883 130.8236091
  60.8575894  72.4017458 130.3952904  56.0781048  75.7516958 137.7018007
  55.9325629  76.0657261 138.5942288  55.6006252  76.3701859 137.1488906
  57.9377431  72.7419506 137.7498897  57.9239000  71.8460600 137.4131194
  58.6549859  72.7490170 138.3837183  59.7903562  73.1756846 139.7952024
  59.5321339  74.0973917 139.7936354  59.2588602  72.7787281 140.4852488
  64.7349750  86.2807634 132.5742109  64.9086628  85.7154056 131.8215962
  65.2278642  87.0808528 132.3921599  50.5526710  78.2922303 140.6405668
  50.0080178  79.0682111 140.7725942  51.4306060  78.6393107 140.4824790
  57.3414327  71.6233887 133.0186467  57.4630238  70.6950533 133.2177354
  57.0516369  71.6372573 132.1064782  60.2105517  69.3088797 136.1553187
  60.2327214  69.3728130 135.2005166  60.6273576  68.4693306 136.3493693
  70.5889142  79.0444057 134.1932409  71.0320288  78.2951382 133.7951532
  69.7115652  79.0354193 133.8106141  65.7224923  85.5974398 129.6739008
  66.4175827  86.2181091 129.8926322  66.0648073  84.7469749 129.9491386
  51.3392732  77.4192199 143.5335825  50.5974468  77.5674834 144.1200455
  51.0185476  77.6800465 142.6702574  67.6216346  83.0474104 131.2026338
  68.1467670  83.3861376 130.4775658  67.5338699  82.1121119 131.0189473
  59.2836395  86.9608177 143.3316215  59.5923521  86.7157324 144.2038915
  60.0811877  87.1654816 142.8435085  59.3057007  89.1146087 135.5621592
  58.8661997  88.6222465 136.2554448  60.0565124  88.5719054 135.3213667
  51.7849346  85.3057628 135.5646220  52.6107366  85.0061400 135.1844863
  51.4343398  84.5365250 136.0136008  56.7530879  84.6584096 137.6343893
  56.1310888  83.9954801 137.3346121  57.4235746  84.6845228 136.9517541
  49.9857951  83.2243954 136.5235153  49.1489859  82.7966128 136.3419154
  49.9581596  83.4176397 137.4605944  56.8255406  73.1365884 147.2276399
  56.8743562  74.0128007 146.8454169  57.3677921  72.5943277 146.6548042
  67.3110252  83.6807007 146.5077536  66.5205796  83.6631146 145.9682036
  67.0743607  84.2195301 147.2626573  67.4308127  80.5299474 143.8210265
  67.4806132  80.3649481 144.7625788  67.3222050  79.6626733 143.4308146
  56.3144386  83.2088019 131.1102354  56.4632506  83.8923484 130.4569027
  57.1210829  83.1893109 131.6251810  64.7211890  76.5130402 145.1369572
  65.6221752  76.3736866 144.8453569  64.7959864  76.6784856 146.0767749
  59.0554695  73.8897256 143.9822758  58.1858004  74.1830822 143.7105346
  59.2914175  74.4737701 144.7030022  68.9326324  82.9496415 144.0652286
  68.6411132  83.3126396 144.9015747  68.3198455  82.2363423 143.8865618
  70.1322006  80.5149295 136.5854857  70.9668898  80.9539099 136.7492417
  70.2681135  80.0387948 135.7663102  67.1813512  78.0729030 142.5332344
  67.6567634  78.2656676 141.7251196  66.2579078  78.1288216 142.2875728
  54.0697019  79.2353197 132.1163423  53.8243061  78.3315527 132.3143633
  54.2392933  79.2370347 131.1742901  61.7593729  70.1076873 141.4988178
  62.2775673  70.8437900 141.1734667  61.4048861  70.4140867 142.3334937
  53.3392666  74.9681554 129.6149584  52.6461911  75.0425909 128.9589620
  53.0944418  74.2041898 130.1371101  62.0106323  66.5277156 137.0189075
  62.2908077  65.8600345 137.6449501  62.7956930  66.7206251 136.5063739
  59.8139791  85.7036150 128.5814101  59.2413758  86.3226337 128.1284573
  60.3872585  86.2535511 129.1154023  65.8815181  74.9494790 140.7660650
  66.8332604  75.0492887 140.7872874  65.7118632  74.1573058 141.2758734
  63.9029561  72.0350373 140.9520051  63.3079493  72.3155386 140.2566540
  63.6179257  72.5244274 141.7236792  63.0337051  85.9873300 129.7122683
  63.9667724  85.9218861 129.9155559  62.9460264  86.8229567 129.2537216
  65.6625068  85.3039170 126.6726631  65.5838699  84.9699034 127.5662389
  66.4834735  85.7960938 126.6718103  68.3603259  78.1700909 139.8802950
  68.3279579  77.2316910 140.0662633  68.9703883  78.2484946 139.1468775
  60.1986590  77.0396962 125.9230154  61.1445695  76.9103171 125.9918572
  59.8200835  76.3011624 126.3999582  68.5097747  74.9611953 139.9261233
  67.9936796  74.1770410 139.7391162  69.3937696  74.6330670 140.0907752
  66.1708474  68.7052968 135.8857046  65.9733296  68.3968057 136.7700377
  66.7808180  69.4314607 136.0154975  74.1779809  79.2316916 139.0208986
  74.9083197  78.9702204 139.5816690  73.5686754  78.4945638 139.0611054
  72.2595106  77.3724779 139.6183438  71.5328270  77.2380744 139.0099929
  71.8442393  77.6801607 140.4240156  60.0825282  81.0914709 147.3830811
  61.0028292  81.2693308 147.5770857  60.0474865  80.1470754 147.2310510
  58.3829507  74.9646939 125.8585039  57.4760962  74.6680052 125.9347753
  58.6605488  74.6676757 124.9919325  49.3007447  76.2853302 136.3084085
  48.9810232  75.4318610 136.0158459  48.7540876  76.5001880 137.0642053
  53.0787355  79.0015743 140.0253592  53.2973365  79.9332851 140.0441626
  53.4913129  78.6423718 140.8108396  59.9991573  69.5083829 132.0129280
  59.1892301  69.1630914 132.3884526  60.6875990  69.1991372 132.6016892
  61.9282121  68.5861875 133.6353577  62.4813160  69.0057329 134.2943600
  62.1652207  67.6597623 133.6776533  57.9515220  74.5748949 149.4156341
  57.8511947  75.5243306 149.3468432  57.7336762  74.2467188 148.5432411
  57.1528292  71.8233874 125.9997018  58.0147456  72.1488772 126.2592835
  57.3378636  71.0365370 125.4870084  49.1695707  79.9056214 138.2777207
  48.4759179  79.4910167 137.7647161  49.9168698  79.9476750 137.6810626
  65.3060928  70.6962400 133.1432241  64.7259597  71.3547205 132.7610294
  65.0396861  69.8739745 132.7319659  63.7564494  70.0967458 135.3453561
  64.2564273  70.2083993 134.5367880  64.4000102  69.7928511 135.9854370
  57.8146490  78.0046088 148.2321402  57.3313572  78.8046448 148.4385291
  57.9007429  78.0154033 147.2788846  51.0832450  79.8374467 136.1543222
  51.0603138  79.9362155 135.2025105  51.3933086  80.6839618 136.4760388
  53.7419828  81.8950623 140.2689836  54.6963081  81.8634565 140.2019768
  53.5432351  81.4341246 141.0840062  54.3319210  80.4651739 142.8360634
  55.1512099  80.9595817 142.8595471  54.6056018  79.5483707 142.8078201
  64.0885806  72.8562491 132.1988589  63.2011661  73.1412142 131.9808784
  64.5039795  72.6956254 131.3515866  67.4400342  72.8809012 135.9142929
  68.2160732  73.3705464 136.1867545  66.7148476  73.3067066 136.3714798
  69.8772901  73.5936631 136.9716869  70.4717392  73.3532367 136.2610177
  69.9499485  72.8743762 137.5990406  52.0970057  87.4370242 137.2860034
  51.9624524  86.6770643 136.7198032  51.6802119  88.1611142 136.8188823
  63.2329020  82.6207166 126.2936609  63.9364870  82.8257168 126.9094265
  62.5091668  83.1883927 126.5585693  64.0626830  78.3717027 132.4138880
  64.0062031  78.8285578 131.5746512  64.6155172  77.6107711 132.2361722
  67.8731636  74.1606759 133.2388999  67.6168570  73.7603394 134.0697207
  67.2484504  74.8750553 133.1139138  72.1843974  76.9002832 135.7460290
  71.6243532  76.9696021 136.5191853  71.5787477  76.7243817 135.0259787
  55.2539182  88.3339559 137.4978477  55.1371567  89.2784992 137.3957167
  54.4331629  88.0313121 137.8864276  65.1415717  83.0589695 128.3435069
  65.9761321  82.6270893 128.1612544  64.9800060  82.8871708 129.2711964
  64.7961609  79.5621808 129.7091409  64.7410413  79.3966079 128.7679853
  64.1707664  80.2697841 129.8653598  49.5854124  74.7989872 143.5352831
  50.2312988  74.2888826 144.0240056  49.3771275  75.5358554 144.1096256
  62.1107516  81.8670720 149.0344972  62.9798676  82.0411372 148.6731606
  61.6314268  82.6865137 148.9120701  58.1057735  69.0629917 129.2876727
  58.0936404  70.0071757 129.4444998  58.9981156  68.8800062 128.9936188
  56.2793697  88.9867821 140.7134405  57.1820943  89.0191431 141.0300900
  56.0531067  88.0568272 140.7280741  58.0347299  87.7398807 137.3744484
  57.0842930  87.7400669 137.2608856  58.3379785  86.9931542 136.8580518
  61.9209854  65.6572694 133.5422664  61.1542250  65.1031180 133.6879346
  62.3320559  65.7294562 134.4036816  53.9251615  71.9457490 147.6327845
  54.7883077  71.5894294 147.8431170  53.3517026  71.6071384 148.3203249
  73.7699992  93.5759346 138.4390246  74.4078402  93.4566093 137.7353586
  73.6520835  94.5240190 138.4978198  70.5789698  93.5286774 138.3751771
  70.2408210  93.4127839 137.4872306  71.4479467  93.1277939 138.3552777
  66.4376514  95.3822250 134.3648662  65.8741379  95.2912187 133.5964950
  66.3228909  94.5622155 134.8451154  63.9840946  96.8773442 137.2032882
  64.7762238  96.5364267 136.7879182  64.2237596  96.9868417 138.1235036
  72.0176073  99.0493218 129.6763127  71.3664053  99.6347298 129.2897141
  72.8120436  99.5799413 129.7358164  65.9431700  96.1382355 130.0750261
  66.7162576  95.5911342 129.9363137  66.2957099  97.0026605 130.2864722
  68.7072949  94.8435586 139.8718520  69.3036522  94.6191608 139.1575483
  68.7647921  94.1020331 140.4743968  68.2797978  92.2975021 127.7068711
  68.5323498  91.7756543 126.9452174  67.3422537  92.1341167 127.8095395
  73.3241261  91.3010800 135.5143454  74.1104350  90.8830223 135.1633871
  73.5879965  92.2056892 135.6825103  73.4951338  96.7383650 130.2132111
  72.8597171  96.8118277 130.9253016  73.1648744  97.3277249 129.5351190
  78.7249688  91.2386033 136.4176433  79.4574860  90.6685250 136.6514262
  77.9689043  90.8507633 136.8582938  67.9994266  94.2003127 129.9093086
  67.8830525  93.5248031 130.5774170  68.1096526  93.7135501 129.0925239
  70.3425807  93.6613274 133.6139775  69.9784015  93.1343895 134.3252697
  71.1992923  93.2711743 133.4406261  76.2475108  84.9507607 140.8771041
  75.9158433  85.8203018 140.6532256  75.6520721  84.6343891 141.5565072
  69.9831294  88.6903174 128.6101124  70.1505697  89.5583411 128.9771595
  69.7928463  88.8530456 127.6862413  72.7406628  97.1520153 140.2766954
  72.4407351  98.0545192 140.1682761  72.3957687  96.8852336 141.1288107
  66.1919109  93.6033950 136.3103658  65.2669606  93.4710164 136.5181350
  66.4403522  94.3828169 136.8073601  76.1403771  89.6702693 137.9564391
  75.2320649  89.6018102 137.6623152  76.0891367  90.1474638 138.7846217
  69.9620515  91.1460832 129.5947791  69.8420140  91.5917882 130.4333271
  69.2673104  91.4946149 129.0361329  63.5527920  93.2467223 137.1447448
  63.6820301  93.5001702 138.0586859  62.8725371  93.8394931 136.8252103
  67.7227407 103.9164473 133.2437922  67.6451437 104.8672298 133.3226402
  67.1189051 103.5710346 133.9012848  78.0065418  87.8719132 139.7342265
  77.3639798  88.1651665 139.0882060  77.5020346  87.7572052 140.5395462
  75.6605581  91.6182305 130.4228125  76.5723438  91.8509692 130.2475822
  75.1515228  92.2019349 129.8603203  70.2977419  90.9779539 141.4322974
  71.1438614  91.4018953 141.5757623  70.2376057  90.3213164 142.1261537
  74.2675164  96.6008123 137.8141706  73.6384026  96.7653837 137.1117774
  73.8800826  97.0149733 138.5852670  78.1464396  97.5362561 135.1686070
  77.4615434  97.9161462 134.6183103  78.2308245  98.1457888 135.9018018
  73.4476864  88.6383908 143.0904148  73.2037796  89.3925968 142.5538423
  73.7236795  89.0169255 143.9251395  73.0041556  87.7940341 138.6717985
  72.1426035  88.0921594 138.9634723  73.0303991  88.0110740 137.7399018
  69.8203126  96.3382531 135.0791791  70.2841471  96.6170234 134.2896414
  69.5559924  95.4365976 134.8964882  66.7127207  95.8854013 138.0171554
  67.2828564  96.3141281 137.3789039  67.3035319  95.6036598 138.7155740
  68.7572012  92.4605684 131.8881356  69.4596055  92.9126727 132.3555283
  68.4252640  91.8189503 132.5161249  67.2052373  91.0517440 146.2632566
  66.5751034  91.7333721 146.4967962  67.0988461  90.9400522 145.3185704
  62.4997346  90.7189236 137.1898490  61.7096400  90.9746765 136.7138600
  62.9908593  91.5337574 137.2950530  64.4512091  91.0833816 134.1481967
  63.6543254  91.1952510 134.6665462  64.2237683  91.4220468 133.2822857
  60.7835049  90.9719727 139.6213481  61.0343087  91.8566737 139.8871057
  61.3194597  90.7924328 138.8488572  84.6067148  94.4033224 136.2888742
  83.8530857  93.8340622 136.1332747  84.7414689  94.3695889 137.2359377
  69.9965776  99.2746626 131.9643461  69.8611451 100.1198162 132.3928309
  70.5375589  99.4765904 131.2009395  66.4833116  85.3538206 148.6257817
  66.0900061  84.8004405 149.3005461  67.2999256  85.6648785 149.0164334
  63.4495174  96.7922064 132.5371387  63.9619694  97.5865315 132.6876951
  64.1017886  96.0948355 132.4704988  65.2590058  99.9087821 134.6194140
  65.4356687 100.8305785 134.4315124  66.0546892  99.5946240 135.0488520
  69.4001077  86.7696085 146.2178073  70.1410790  87.3703238 146.1382536
  69.6319000  86.0273723 145.6596116  64.5442415  91.9552453 144.4956303
  64.4295930  91.0537710 144.7963402  63.6886933  92.2016149 144.1441119
  66.3821374 101.4265994 140.6204482  66.9328799 101.2983058 139.8481476
  65.5432850 101.7260883 140.2699375  73.3458240  82.7977188 140.4942355
  73.0022509  83.6878830 140.4181466  73.7137202  82.6078846 139.6311940
  61.4144090  95.1210719 133.3130957  62.2519312  95.5307727 133.0964665
  61.5922358  94.1810161 133.2831151  73.3108523  92.7885799 129.0014790
  72.7955146  93.5590404 129.2403177  73.0385831  92.1150935 129.6247852
  70.8955634  87.6335500 134.0600028  70.0397230  87.2442350 133.8805667
  71.3082585  87.7127461 133.1999814  72.4254780  85.1681843 138.4591588
  71.9219576  85.1311979 137.6459393  72.7185387  86.0774586 138.5188245
  68.6697666  85.2520573 137.4657770  69.5350663  85.0563382 137.1063659
  68.7375175  85.0230925 138.3927127  78.2842797  95.5418154 130.9367964
  77.5072239  95.2029313 130.4923126  78.9634278  95.5470777 130.2622929
  73.0994826  90.6612891 130.8274571  72.7944961  90.9759041 131.6784714
  74.0525268  90.7394311 130.8701904  71.5441258  96.8203115 132.4767525
  71.0162619  96.0855874 132.1640763  71.0428760  97.5977791 132.2307494
  76.5234104  95.0152135 137.5934572  75.8657778  95.7051397 137.6814700
  77.3274503  95.4048567 137.9368558  66.2759985  87.4822781 134.8374137
  66.8503737  87.2597962 134.1047330  66.8630968  87.5511476 135.5902738
  75.3339562  93.3696508 135.6438513  75.8471444  94.0026500 136.1460223
  75.9840786  92.7697703 135.2781873  66.6029572  89.5127242 128.8570022
  65.7666885  89.8501929 129.1779297  66.4634342  89.3776222 127.9197159
  68.5782653  84.3564030 133.5649206  67.9247065  84.0413047 132.9405821
  68.5363127  83.7339770 134.2909029  69.6893858  94.6383325 125.4802498
  68.7820919  94.4072578 125.6793647  70.1864890  93.8420944 125.6676480
  72.5961937 103.3480832 128.3999184  71.9223635 103.6512529 129.0084142
  72.9827759 104.1509913 128.0504641  71.8120393  90.8445963 137.8896854
  70.8942955  91.0660910 137.7318542  72.2280537  90.9192274 137.0308561
  72.5955441  92.2437379 133.0199534  73.3427260  92.7558776 132.7106656
  72.8647031  91.9221432 133.8803928  70.8682091  94.7395920 130.0026488
  69.9593310  94.4554953 130.0998958  70.8977175  95.1594998 129.1429795
  76.1001359  98.3502509 133.7717656  75.6463686  97.5093419 133.8282846
  75.4695325  98.9863908 134.1092436  75.0434278  89.2794495 135.0018323
  74.3057035  88.7671882 135.3328566  75.2961052  88.8394877 134.1901600
  74.5434298 100.1879006 134.7067474  74.8357272 100.7484063 133.9879840
  75.0532918 100.4807567 135.4620633  75.1445905  82.0570747 135.5960093
  75.4504782  81.1968111 135.3086008  75.8698510  82.6488368 135.3959087
  61.4370262  92.4601434 133.9841691  61.2394661  91.8670795 133.2592757
  60.8816926  92.1553644 134.7017629  69.4166985  92.3524540 136.1036284
  69.4715595  91.3998377 136.0278760  68.6058187  92.5083980 136.5877582
  70.5658179  96.2804664 127.3414567  70.1277609  95.5640522 126.8820204
  71.3068620  96.5080778 126.7799658  67.3559345  90.9701600 133.8626663
  66.5427211  91.2695771 134.2691855  67.8518339  90.5757289 134.5801145
  69.5067923 100.9659357 135.7960927  69.4644102 101.1920203 134.8669459
  70.4230622 100.7322732 135.9446728  72.9533557  91.4343425 142.6941556
  73.3082945  91.6614898 143.5536022  73.6005688  91.7661801 142.0718812
  78.6831294  94.5561861 133.3990885  78.5449192  94.7463457 132.4712075
  78.3267513  95.3181243 133.8558937  66.8473420  88.5419956 139.4787898
  67.4872799  88.4008715 138.7810861  66.0150950  88.2554469 139.1026500
  67.6233724  97.8422386 135.5922890  68.4174322  97.3472706 135.3905465
  66.9125416  97.3140249 135.2290596  63.9316487  91.9865468 131.6682643
  63.0014075  91.9249923 131.8852605  64.0273959  91.4641421 130.8719284
  63.8502036  88.5120281 134.2560884  64.1108854  89.4265614 134.1470045
  64.6719209  88.0444723 134.4057497  65.3226962  89.9258038 141.4259709
  65.9950015  89.7175400 140.7772358  64.4956748  89.7280124 140.9864941
  71.2252534  86.5519979 143.4425370  70.5780449  87.2509928 143.3489846
  71.9953549  86.9856123 143.8101618  71.4016668  94.3900744 141.5022189
  72.3308728  94.5411903 141.3291157  70.9807698  94.4784764 140.6470836
  70.2005000  98.4151408 139.2720727  70.0616086  98.0470193 140.1446665
  69.4119596  98.9299048 139.1004685  70.7953152 103.5160505 130.6146264
  70.9704907 103.0448548 131.4291886  70.1085940 104.1426271 130.8427524
  71.7510215  97.7933011 136.6609565  71.4160048  97.7533781 137.5567215
  71.2514161  97.1277727 136.1879975  65.7254459  93.2000641 142.1862146
  65.5874257  92.4680880 142.7873685  66.6359382  93.1109541 141.9046334
  74.6869407  95.1389045 126.9346625  74.0698577  94.4135873 126.8379677
  74.2185895  95.8998405 126.5913699  68.3536760  92.9120600 141.6745826
  69.0636378  92.2713792 141.6332444  68.3106068  93.1633495 142.5972006
  67.0665694  89.8985818 143.4941465  66.5303051  89.4476557 144.1463061
  66.4782402  90.0331727 142.7511929  66.4767953  89.3574469 126.0567929
  65.5997419  89.2363270 125.6930175  66.9525706  88.5660548 125.8046817
  57.9970093  94.1451629 136.1509436  58.6841132  93.8313359 135.5630451
  57.8418221  95.0492994 135.8776687  62.8004815  89.0341826 140.5794460
  62.7163004  88.4267495 139.8444870  61.9787521  89.5250844 140.5803956
  69.6631879 101.7100760 133.3030449  68.8799400 102.2522440 133.3968674
  70.3624624 102.2274739 133.7024690  72.9728529  87.5195389 135.9464655
  73.4697228  86.7665352 135.6265725  72.2015510  87.5559706 135.3807864
  80.8258286  93.2235755 137.5882946  80.8148162  94.1060470 137.2176879
  79.9575666  92.8707306 137.3937483  74.0558309  96.2767077 133.5203078
  73.1214588  96.3968539 133.3507782  74.2334978  95.3739543 133.2563088
  69.5563497  89.6612772 135.6736339  69.1861285  89.1083813 136.3617245
  70.0522590  89.0570906 135.1211339  77.4430861  92.1184396 134.0553112
  77.9091313  92.9512387 133.9813415  77.8938361  91.6529377 134.7598371
  75.5107092  98.4628217 131.0539264  75.7866936  98.3484812 131.9633138
  74.6411591  98.0645702 131.0151437  75.4147523  84.4864983 138.0944014
  74.5010603  84.7169210 138.2626220  75.8440625  84.5703427 138.9458046
  75.1853982  92.6754875 140.5943908  74.5325432  92.9230782 139.9396360
  75.5634362  91.8619013 140.2606385  72.1461156 102.7114568 134.6972078
  72.3283550 101.8936224 135.1599830  72.9694142 102.9282260 134.2596968
  72.4803321 101.6382753 131.9587126  73.0091088 101.1275208 131.3457288
  72.7431541 101.3225283 132.8232659  62.9820414  99.6546622 139.7022460
  63.5673851  98.9090310 139.8350364  62.7845253  99.9650579 140.5859124
  65.8359069 102.6897870 134.7184902  65.1669445 103.1743997 134.2348942
  65.6971939 102.9367090 135.6328281  57.5738069  92.2252223 138.4226903
  57.6122168  91.6915813 139.2164021  57.0678362  91.6987428 137.8037880
  64.9528831  87.0716763 141.9189445  65.0170158  87.9331594 141.5066843
  64.8895951  86.4590765 141.1861804  64.4281104  89.1439896 145.5662480
  65.0553142  88.7616973 146.1800004  63.5709022  88.9254098 145.9318172
  61.2046646  90.9516325 131.4980834  61.5000087  90.0427003 131.4447888
  60.3034682  90.9304064 131.1761837  64.7340893  89.0272321 137.4808383
  64.0127479  89.6408289 137.3415856  65.5234149  89.5630086 137.4025029
  67.5367207  86.3626748 143.7549035  68.0601609  86.6089044 144.5175344
  67.3179540  87.1946783 143.3352172  62.9334488  88.6330422 131.6220160
  62.6047194  87.7527801 131.4395266  63.2873859  88.5778091 132.5096549
  72.1814067 100.2685325 136.1315145  72.0339029  99.3402032 136.3122715
  73.0067560 100.2905416 135.6472220  66.0476311  88.9203392 131.9895637
  66.3872384  89.4489313 131.2674246  66.4948432  89.2583798 132.7654204
  68.7419752  87.3040443 141.4398705  68.4016572  86.5048256 141.8419385
  68.0358758  87.6042154 140.8675539  69.3936224  84.3889755 139.8926028
  70.2162293  83.9150234 139.7704919  69.6374287  85.1680239 140.3924715
  68.0344458  87.4178014 130.1888930  68.7552821  87.7959267 129.6852647
  67.4109762  88.1366891 130.2923908  72.1775581  88.1223163 131.1247262
  72.3939196  89.0047801 130.8236091  71.6969648  87.7309376 130.3952904
  66.9174803  91.0808876 137.7018007  66.7719383  91.3949179 138.5942288
  66.4400006  91.6993776 137.1488906  68.7771185  88.0711424 137.7498897
  68.7632754  87.1752517 137.4131194  69.4943614  88.0782088 138.3837183
  70.6297316  88.5048764 139.7952024  70.3715094  89.4265835 139.7936354
  70.0982356  88.1079199 140.4852488  75.5743505 101.6099551 132.5742109
  75.7480382 101.0445974 131.8215962  76.0672396 102.4100446 132.3921599
  61.3920465  93.6214220 140.6405668  60.8473933  94.3974028 140.7725942
  62.2699815  93.9685025 140.4824790  68.1808081  86.9525804 133.0186467
  68.3023993  86.0242450 133.2177354  67.8910124  86.9664490 132.1064782
  71.0499272  84.6380715 136.1553187  71.0720969  84.7020048 135.2005166
  71.4667331  83.7985223 136.3493693  81.4282896  94.3735974 134.1932409
  81.8714042  93.6243299 133.7951532  80.5509406  94.3646111 133.8106141
  76.5618677 100.9266316 129.6739008  77.2569582 101.5473008 129.8926322
  76.9041827 100.0761667 129.9491386  62.1786487  92.7484117 143.5335825
  61.4368223  92.8966752 144.1200455  61.8579231  93.0092382 142.6702574
  78.4610100  98.3766021 131.2026338  78.9861425  98.7153294 130.4775658
  78.3732453  97.4413037 131.0189473  70.1450761 104.4438004 135.5621592
  69.7055752 103.9514383 136.2554448  70.8958878 103.9010972 135.3213667
  62.6243100 100.6349545 135.5646220  63.4501120 100.3353317 135.1844863
  62.2737152  99.8657168 136.0136008  67.5924633  99.9876014 137.6343893
  66.9704643  99.3246719 137.3346121  68.2629500 100.0137145 136.9517541
  60.8251705  98.5535872 136.5235153  59.9883614  98.1258046 136.3419154
  60.7975351  98.7468315 137.4605944  67.6649161  88.4657802 147.2276399
  67.7137316  89.3419924 146.8454169  68.2071675  87.9235195 146.6548042
  67.1538140  98.5379937 131.1102354  67.3026261  99.2215401 130.4569027
  67.9604584  98.5185027 131.6251810  69.8948449  89.2189174 143.9822758
  69.0251759  89.5122740 143.7105346  70.1307930  89.8029619 144.7030022
  80.9715761  95.8441213 136.5854857  81.8062652  96.2831017 136.7492417
  81.1074890  95.3679866 135.7663102  64.9090773  94.5645115 132.1163423
  64.6636815  93.6607445 132.3143633  65.0786688  94.5662265 131.1742901
  72.5987483  85.4368791 141.4988178  73.1169427  86.1729818 141.1734667
  72.2442616  85.7432784 142.3334937  64.1786421  90.2973472 129.6149584
  63.4855666  90.3717827 128.9589620  63.9338173  89.5333816 130.1371101
  72.8500077  81.8569073 137.0189075  73.1301831  81.1892263 137.6449501
  73.6350684  82.0498169 136.5063739  70.6533546 101.0328067 128.5814101
  70.0807513 101.6518254 128.1284573  71.2266339 101.5827429 129.1154023
  76.7208936  90.2786707 140.7660650  77.6726359  90.3784805 140.7872874
  76.5512386  89.4864976 141.2758734  74.7423315  87.3642291 140.9520051
  74.1473247  87.6447303 140.2566540  74.4573012  87.8536192 141.7236792
  73.8730806 101.3165217 129.7122683  74.8061479 101.2510779 129.9155559
  73.7854018 102.1521484 129.2537216  76.5018822 100.6331088 126.6726631
  76.4232454 100.2990951 127.5662389  77.3228489 101.1252856 126.6718103
  79.1997013  93.4992827 139.8802950  79.1673334  92.5608828 140.0662633
  79.8097637  93.5776864 139.1468775  71.0380344  92.3688880 125.9230154
  71.9839449  92.2395088 125.9918572  70.6594589  91.6303542 126.3999582
  79.3491502  90.2903871 139.9261233  78.8330551  89.5062327 139.7391162
  80.2331450  89.9622587 140.0907752  77.0102229  84.0344886 135.8857046
  76.8127050  83.7259974 136.7700377  77.6201934  84.7606525 136.0154975
  69.2223261  90.2938856 125.8585039  68.3154717  89.9971969 125.9347753
  69.4999242  89.9968675 124.9919325  60.1401202  91.6145220 136.3084085
  59.8203986  90.7610528 136.0158459  59.5934630  91.8293798 137.0642053
  63.9181109  94.3307661 140.0253592  64.1367119  95.2624769 140.0441626
  64.3306883  93.9715635 140.8108396  70.8385327  84.8375746 132.0129280
  70.0286056  84.4922831 132.3884526  71.5269744  84.5283290 132.6016892
  72.7675875  83.9153793 133.6353577  73.3206914  84.3349246 134.2943600
  73.0045962  82.9889541 133.6776533  67.9922046  87.1525792 125.9997018
  68.8541210  87.4780690 126.2592835  68.1772390  86.3657288 125.4870084
  60.0089462  95.2348131 138.2777207  59.3152933  94.8202084 137.7647161
  60.7562453  95.2768668 137.6810626  76.1454683  86.0254318 133.1432241
  75.5653352  86.6839122 132.7610294  75.8790615  85.2031663 132.7319659
  74.5958249  85.4259376 135.3453561  75.0958027  85.5375910 134.5367880
  75.2393857  85.1220429 135.9854370  61.9226204  95.1666385 136.1543222
  61.8996892  95.2654072 135.2025105  62.2326841  96.0131536 136.4760388
  64.5813582  97.2242540 140.2689836  65.5356836  97.1926483 140.2019768
  64.3826106  96.7633164 141.0840062  65.1712964  95.7943656 142.8360634
  65.9905853  96.2887735 142.8595471  65.4449772  94.8775624 142.8078201
  74.9279561  88.1854409 132.1988589  74.0405416  88.4704059 131.9808784
  75.3433550  88.0248172 131.3515866  78.2794097  88.2100930 135.9142929
  79.0554487  88.6997382 136.1867545  77.5542231  88.6358984 136.3714798
  80.7166655  88.9228549 136.9716869  81.3111146  88.6824285 136.2610177
  80.7893239  88.2035679 137.5990406  62.9363811 102.7662160 137.2860034
  62.8018279 102.0062561 136.7198032  62.5195873 103.4903060 136.8188823
  74.0722774  97.9499083 126.2936609  74.7758624  98.1549086 126.9094265
  73.3485423  98.5175845 126.5585693  74.9020584  93.7008944 132.4138880
  74.8455786  94.1577496 131.5746512  75.4548927  92.9399629 132.2361722
  78.7125390  89.4898676 133.2388999  78.4562324  89.0895312 134.0697207
  78.0878258  90.2042470 133.1139138  83.0237728  92.2294750 135.7460290
  82.4637286  92.2987939 136.5191853  82.4181231  92.0535734 135.0259787
  66.0932937 103.6631477 137.4978477  65.9765321 104.6076909 137.3957167
  65.2725383 103.3605038 137.8864276  75.9809471  98.3881612 128.3435069
  76.8155075  97.9562811 128.1612544  75.8193814  98.2163626 129.2711964
  75.6355364  94.8913726 129.7091409  75.5804167  94.7257997 128.7679853
  75.0101419  95.5989759 129.8653598  60.4247879  90.1281790 143.5352831
  61.0706742  89.6180744 144.0240056  60.2165030  90.8650472 144.1096256
  68.9451489  84.3921835 129.2876727  68.9330159  85.3363675 129.4444998
  69.8374911  84.2091980 128.9936188  68.8741053 103.0690725 137.3744484
  67.9236684 103.0692587 137.2608856  69.1773539 102.3223460 136.8580518
  72.7603609  80.9864611 133.5422664  71.9936004  80.4323098 133.6879346
  73.1714314  81.0586480 134.4036816  64.7645370  87.2749407 147.6327845
  65.6276831  86.9186212 147.8431170  64.1910780  86.9363302 148.3203249
  76.7825454 111.4674273 130.0750261  77.5556330 110.9203260 129.9363137
  77.1350853 112.3318522 130.2864722  79.1191732 107.6266939 127.7068711
  79.3717253 107.1048460 126.9452174  78.1816291 107.4633084 127.8095395
  78.8388021 109.5295045 129.9093086  78.7224279 108.8539948 130.5774170
  78.9490281 109.0427419 129.0925239  80.8225049 104.0195092 128.6101124
  80.9899451 104.8875328 128.9771595  80.6322218 104.1822373 127.6862413
  80.8014270 106.4752749 129.5947791  80.6813895 106.9209800 130.4333271
  80.1066858 106.8238067 129.0361329  75.2905845 106.4125733 134.1481967
  74.4937009 106.5244428 134.6665462  75.0631438 106.7512385 133.2822857
  84.1502277 108.1177717 129.0014790  83.6348900 108.8882322 129.2403177
  83.8779585 107.4442853 129.6247852  77.4423327 104.8419160 128.8570022
  76.6060639 105.1793846 129.1779297  77.3028096 104.7068139 127.9197159
  79.4176407  99.6855948 133.5649206  78.7640820  99.3704965 132.9405821
  79.3756882  99.0631688 134.2909029  80.5287612 109.9675243 125.4802498
  79.6214674 109.7364496 125.6793647  81.0258644 109.1712862 125.6676480
  72.2764016 107.7893352 133.9841691  72.0788416 107.1962712 133.2592757
  71.7210680 107.4845562 134.7017629  81.4051933 111.6096581 127.3414567
  80.9671363 110.8932440 126.8820204  82.1462374 111.8372696 126.7799658
  74.7710242 107.3157386 131.6682643  73.8407830 107.2541841 131.8852605
  74.8667714 106.7933338 130.8719284  74.6895791 103.8412198 134.2560884
  74.9502608 104.7557532 134.1470045  75.5112963 103.3736641 134.4057497
  85.5263161 110.4680963 126.9346625  84.9092332 109.7427791 126.8379677
  85.0579650 111.2290323 126.5913699  77.3161707 104.6866387 126.0567929
  76.4391173 104.5655188 125.6930175  77.7919460 103.8952465 125.8046817
  72.0440401 106.2808242 131.4980834  72.3393842 105.3718921 131.4447888
  71.1428437 106.2595982 131.1761837  73.7728242 103.9622340 131.6220160
  73.4440949 103.0819719 131.4395266  74.1267613 103.9070009 132.5096549
  76.8870066 104.2495310 131.9895637  77.2266138 104.7781231 131.2674246
  77.3342186 104.5875716 132.7654204  78.8738213 102.7469931 130.1888930
  79.5946575 103.1251184 129.6852647  78.2503517 103.4658808 130.2923908
  83.0169336 103.4515080 131.1247262  83.2332950 104.3339718 130.8236091
  82.5363403 103.0601294 130.3952904  79.0201836 102.2817722 133.0186467
  79.1417747 101.3534368 133.2177354  78.7303878 102.2956408 132.1064782
  75.7484528 109.8937032 132.1163423  75.5030570 108.9899362 132.3143633
  75.9180442 109.8954183 131.1742901  75.0180175 105.6265390 129.6149584
  74.3249420 105.7009745 128.9589620  74.7731927 104.8625733 130.1371101
  81.8774099 107.6980798 125.9230154  82.8233204 107.5687006 125.9918572
  81.4988344 106.9595460 126.3999582  80.0617016 105.6230774 125.8585039
  79.1548471 105.3263887 125.9347753  80.3392997 105.3260592 124.9919325
  81.6779082 100.1667664 132.0129280  80.8679810  99.8214749 132.3884526
  82.3663499  99.8575208 132.6016892  83.6069630  99.2445711 133.6353577
  84.1600669  99.6641164 134.2943600  83.8439716  98.3181459 133.6776533
  78.8315801 102.4817709 125.9997018  79.6934965 102.8072608 126.2592835
  79.0166145 101.6949205 125.4870084  79.7845244  99.7213752 129.2876727
  79.7723913 100.6655592 129.4444998  80.6768665  99.5383898 128.9936188
  83.5997363  96.3156529 133.5422664  82.8329759  95.7615016 133.6879346
  84.0108068  96.3878398 134.4036816  39.4994811  30.0679588 116.4008433
  38.8482790  30.6533668 116.0142447  40.2939173  30.5985783 116.4603471
  35.7616716  23.3161391 114.4314018  36.0142236  22.7942912 113.6697481
  34.8241275  23.1527536 114.5340701  40.9770076  27.7570020 116.9377418
  40.3415909  27.8304646 117.6498322  40.6467482  28.3463618 116.2596497
  35.2046145  34.9350843 119.9683228  35.1270175  35.8858668 120.0471709
  34.6007789  34.5896715 120.6258155  43.1424319  22.6368674 117.1473431
  44.0542175  22.8696061 116.9721129  42.6333966  23.2205719 116.5848510
  45.6283133  28.5548931 121.8931376  44.9434172  28.9347832 121.3428410
  45.7126983  29.1644257 122.6263324  37.4784514  30.2932996 118.6888768
  37.3430189  31.1384532 119.1173616  38.0194327  30.4952274 117.9254702
  40.7927260  23.8072169 115.7260097  40.2773884  24.5776774 115.9648484
  40.5204569  23.1337305 116.3493158  45.7661534  26.5604524 117.6613270
  44.9890977  26.2215683 117.2168432  46.4453015  26.5657147 116.9868235
  37.1712596  25.6569695 112.2047805  36.2639657  25.4258948 112.4038954
  37.6683628  24.8607314 112.3921786  40.0780674  34.3667202 115.1244491
  39.4042373  34.6698898 115.7329449  40.4646496  35.1696282 114.7749948
  38.3500829  25.7582289 116.7271795  37.4412048  25.4741322 116.8244265
  38.3795913  26.1781368 115.8675102  43.5820096  29.3688879 120.4962963
  43.1282424  28.5279789 120.5528153  42.9514063  30.0050277 120.8337743
  42.0253036  31.2065376 121.4312781  42.3176010  31.7670433 120.7125146
  42.5351656  31.4993937 122.1865940  38.0476917  27.2991033 114.0659874
  37.6096347  26.5826892 113.6065511  38.7887358  27.5267148 113.5044965
  46.1650032  25.5748230 120.1236192  46.0267930  25.7649826 119.1957381
  45.8086250  26.3367613 120.5804243  38.2771890  34.5346874 117.3391570
  38.4523645  34.0634917 118.1537193  37.5904678  35.1612640 117.5672831
  42.1688144  26.1575415 113.6591931  41.5517315  25.4322243 113.5624984
  41.7004633  26.9184775 113.3159005  37.1450616  32.7287129 120.0275756
  36.3618138  33.2708810 120.1213980  37.8443362  33.2461109 120.4269997
  42.9925830  29.4814587 117.7784571  43.2685674  29.3671181 118.6878445
  42.1230328  29.0832072 117.7396744  39.6279894  33.7300937 121.4217385
  39.8102288  32.9122593 121.8845137  40.4512880  33.9468630 120.9842275
  39.9622059  32.6569123 118.6832433  40.4909826  32.1461577 118.0702595
  40.2250279  32.3411653 119.5477966  43.0562243  32.6285921 119.2987416
  43.2299120  32.0632343 118.5461268  43.5491134  33.4286816 119.1166906
  48.9101634  25.3922344 120.9177716  49.3532780  24.6429669 120.5196839
  48.0328144  25.3832480 120.5351448  44.0437415  31.9452685 116.3984314
  44.7388320  32.5659378 116.6171629  44.3860565  31.0948036 116.6736692
  45.9428838  29.3952391 117.9271645  46.4680162  29.7339664 117.2020965
  45.8551191  28.4599406 117.7434780  34.6356878  29.5566306 117.8347660
  34.7844998  30.2401771 117.1814333  35.4423322  29.5371397 118.3497116
  38.1352284  32.0514437 115.3059408  37.5626251  32.6704624 114.8529880
  38.7085077  32.6013799 115.8399330  41.3549543  32.3351587 116.4367990
  42.2880217  32.2697149 116.6400866  41.2672756  33.1707854 115.9782523
  43.9837560  31.6517457 113.3971938  43.9051192  31.3177321 114.2907696
  44.8047227  32.1439225 113.3963410  38.5199082  23.3875250 112.6475460
  39.4658187  23.2581458 112.7163878  38.1413327  22.6489912 113.1244889
  36.7041999  21.3125226 112.5830346  35.7973455  21.0158339 112.6593059
  36.9817980  21.0155044 111.7164632  41.5541512  28.9685453 113.0181916
  42.2577362  29.1735455 113.6339572  40.8304161  29.5362215 113.2831000
  43.4628209  29.4067982 115.0680376  44.2973813  28.9749180 114.8857851
  43.3012552  29.2349996 115.9957271  43.1174101  25.9100095 116.4336715
  43.0622905  25.7444367 115.4925159  42.4920157  26.6176128 116.5898905
  52.0912484  39.9237633 125.1635553  52.7290894  39.8044380 124.4598893
  51.9733327  40.8718477 125.2223505  48.9002191  39.8765061 125.0997078
  48.5620702  39.7606126 124.2117612  49.7691959  39.4756226 125.0798084
  44.7589006  41.7300538 121.0893968  44.1953871  41.6390475 120.3210256
  44.6441401  40.9100442 121.5696461  42.3053438  43.2251729 123.9278189
  43.0974730  42.8842554 123.5124488  42.5450088  43.3346704 124.8480342
  50.3388565  45.3971505 116.4008433  49.6876545  45.9825586 116.0142447
  51.1332928  45.9277700 116.4603471  44.2644192  42.4860642 116.7995568
  45.0375068  41.9389630 116.6608444  44.6169591  43.3504892 117.0110029
  46.1029235  43.8137025 130.0062467  45.8119101  44.7182656 129.8909133
  46.7386219  43.8553552 130.7206537  47.0285442  41.1913873 126.5963827
  47.6249014  40.9669896 125.8820790  47.0860413  40.4498619 127.1989275
  46.6010470  38.6453309 114.4314018  46.8535991  38.1234830 113.6697481
  45.6635029  38.4819454 114.5340701  51.6453753  37.6489087 122.2388761
  52.4316842  37.2308510 121.8879178  51.9092457  38.5535179 122.4070409
  51.8163830  43.0861937 116.9377418  51.1809663  43.1596564 117.6498322
  51.4861237  43.6755536 116.2596497  57.0462180  37.5864320 123.1421739
  57.7787352  37.0163537 123.3759569  56.2901536  37.1985921 123.5828245
  46.3206759  40.5481415 116.6338393  46.2043017  39.8726318 117.3019477
  46.4309019  40.0613788 115.8170546  48.6638300  40.0091562 120.3385082
  48.2996507  39.4822183 121.0498003  49.5205416  39.6190031 120.1651567
  48.3043787  35.0381461 115.3346430  48.4718189  35.9061698 115.7016901
  48.1140956  35.2008743 114.4107720  51.0619120  43.4998440 127.0012261
  50.7619843  44.4023479 126.8928068  50.7170179  43.2330623 127.8533414
  44.5131601  39.9512237 123.0348965  43.5882098  39.8188451 123.2426657
  44.7616015  40.7306456 123.5318908  54.4616264  36.0180980 124.6809698
  53.5533141  35.9496389 124.3868459  54.4103859  36.4952925 125.5091524
  48.2833008  37.4939119 116.3193097  48.1632633  37.9396170 117.1578577
  47.5885596  37.8424437 115.7606635  41.8740412  39.5945511 123.8692754
  42.0032794  39.8479990 124.7832166  41.1937864  40.1873219 123.5497409
  46.0439900  50.2642761 119.9683228  45.9663929  51.2150586 120.0471709
  45.4401543  49.9188633 120.6258155  56.3277910  34.2197419 126.4587572
  55.6852290  34.5129952 125.8127367  55.8232839  34.1050339 127.2640769
  53.9818074  37.9660592 117.1473431  54.8935930  38.1987979 116.9721129
  53.4727721  38.5497636 116.5848510  52.2658841  42.3885220 130.7834724
  52.6742197  41.9467630 130.0389356  51.5436103  41.8137847 131.0368917
  52.5887656  42.9486410 124.5387013  51.9596518  43.1132125 123.8363081
  52.2013318  43.3628020 125.3097977  56.4676888  43.8840848 121.8931376
  55.7827926  44.2639750 121.3428410  56.5520737  44.4936175 122.6263324
  53.7227819  41.5300807 128.4926720  53.9344715  42.1732567 127.8161101
  53.6757568  40.6963124 128.0248650  51.3254048  34.1418628 125.3963292
  50.4638527  34.4399882 125.6880030  51.3516483  34.3589027 124.4644325
  48.1415618  42.6860819 121.8037098  48.6053963  42.9648522 121.0141720
  47.8772416  41.7844263 121.6210188  45.0339699  42.2332300 124.7416861
  45.6041056  42.6619568 124.1034346  45.6247811  41.9514885 125.4401047
  47.0784504  38.8083971 118.6126663  47.7808547  39.2605015 119.0800589
  46.7465132  38.1667790 119.2406556  40.8209838  37.0667524 123.9143796
  40.0308892  37.3225052 123.4383907  41.3121085  37.8815861 124.0195837
  54.8373647  44.4072763 126.6649077  55.6591091  44.0052950 126.3831759
  54.8336050  44.3040997 127.6165193  42.7724583  37.4312103 120.8727273
  41.9755747  37.5430797 121.3910769  42.5450175  37.7698755 120.0068164
  48.6030251  43.9556806 128.8209788  48.6674683  44.4177213 129.6567960
  47.8941175  43.3254171 128.9492098  62.9279640  40.7511511 123.0134049
  62.1743349  40.1818909 122.8578053  63.0627182  40.7174176 123.9604683
  48.3178269  45.6224914 118.6888768  48.1823943  46.4676449 119.1173616
  48.8588081  45.8244191 117.9254702  41.7707666  43.1400352 119.2616693
  42.2832187  43.9343602 119.4122258  42.4230379  42.4426642 119.1950295
  43.5802551  46.2566108 121.3439446  43.7569179  47.1784073 121.1560430
  44.3759384  45.9424527 121.7733826  49.9446745  46.2448480 132.8189110
  49.5010599  45.4584859 132.5010015  50.6063959  46.4327631 132.1533001
  44.7033866  47.7744282 127.3449789  45.2541291  47.6461345 126.5726783
  43.8645342  48.0739171 126.9944682  52.0427983  46.5251280 130.8470511
  52.0246458  47.3460161 130.3550781  52.9647903  46.4005355 131.0720653
  39.7356583  41.4689006 120.0376264  40.5731805  41.8786014 119.8209971
  39.9134850  40.5288448 120.0076458  51.6321015  39.1364087 115.7260097
  51.1167638  39.9068691 115.9648484  51.3598323  38.4629223 116.3493158
  49.2168126  33.9813787 120.7845335  48.3609722  33.5920638 120.6050974
  49.6295078  34.0605748 119.9245121  50.7467273  31.5160131 125.1836895
  50.2432068  31.4790266 124.3704700  51.0397879  32.4252873 125.2433552
  56.6055289  41.8896441 117.6613270  55.8284732  41.5507601 117.2168432
  57.2846770  41.8949064 116.9868235  51.4207318  37.0091179 117.5519878
  51.1157454  37.3237328 118.4030021  52.3737760  37.0872599 117.5947211
  49.8653750  43.1681402 119.2012832  49.3375111  42.4334162 118.8886069
  49.3641253  43.9456078 118.9552800  54.8446596  41.3630422 124.3179878
  54.1870270  42.0529684 124.4060007  55.6486995  41.7526854 124.6613865
  44.5972477  33.8301068 121.5619443  45.1716229  33.6076250 120.8292636
  45.1843460  33.8989763 122.3148045  53.6552055  39.7174795 122.3683820
  54.1683936  40.3504787 122.8705530  54.3053279  39.1175991 122.0027180
  44.9242065  35.8605529 115.5815329  44.0879377  36.1980216 115.9024603
  44.7846834  35.7254509 114.6442466  46.8995145  30.7042317 120.2894513
  46.2459558  30.3891334 119.6651128  46.8575619  30.0818058 121.0154336
  48.0106350  40.9861612 112.2047805  47.1033412  40.7550866 112.4038954
  48.5077382  40.1899231 112.3921786  50.9174429  49.6959119 115.1244491
  50.2436128  49.9990816 115.7329449  51.3040251  50.4988200 114.7749948
  50.1332886  37.1924251 124.6142160  49.2155447  37.4139198 124.4563849
  50.5493029  37.2670561 123.7553868  50.9167933  38.5915666 119.7444841
  51.6639752  39.1037064 119.4351963  51.1859523  38.2699719 120.6049234
  49.1894583  41.0874207 116.7271795  48.2805803  40.8033240 116.8244265
  49.2189667  41.5073286 115.8675102  54.4213851  44.6980797 120.4962963
  53.9676178  43.8571706 120.5528153  53.7907818  45.3342195 120.8337743
  53.3646770  35.6272783 121.7263630  52.6269527  35.1150169 122.0573873
  53.6173544  35.1873164 120.9146907  52.8646790  46.5357293 121.4312781
  53.1569765  47.0962350 120.7125146  53.3745411  46.8285854 122.1865940
  53.4658398  28.4049035 122.3205399  53.7717275  27.5446398 122.0331314
  54.1911003  28.9966655 122.1204393  39.7582754  38.8079721 120.7086997
  39.5607154  38.2149082 119.9838064  39.2029418  38.5031931 121.4262936
  47.7379478  38.7002828 122.8281590  47.7928087  37.7476664 122.7524067
  46.9270680  38.8562267 123.3122889  48.8870671  42.6282951 114.0659874
  48.4490101  41.9118810 113.6065511  49.6281112  42.8559066 113.5044965
  45.6771837  37.3179887 120.5871969  44.8639703  37.6174058 120.9937161
  46.1730832  36.9235576 121.3046451  47.8280415  47.3137644 122.5206234
  47.7856594  47.5398491 121.5914766  48.7443114  47.0801019 122.6692035
  57.0043786  40.9040148 120.1236192  56.8661685  41.0941744 119.1957381
  56.6480005  41.6659531 120.5804243  57.0313166  42.9716675 125.1347464
  57.4649672  42.8791964 125.9830518  57.7444746  42.9474175 124.4967480
  45.9446216  44.1900673 122.3168197  46.7386815  43.6950994 122.1150772
  45.2337908  43.6618537 121.9535902  50.7641061  46.5718769 126.6680564
  50.8178083  47.1409705 127.4358280  49.8955842  46.7420654 126.3034601
  42.2528980  38.3343755 118.3927949  41.3226568  38.2728211 118.6097911
  42.3486452  37.8119708 117.5964591  42.1714529  34.8598568 120.9806191
  42.4321346  35.7743901 120.8715351  42.9931701  34.3923011 121.1302804
  57.8928715  43.0140375 127.6680349  58.0864605  43.9186186 127.9139624
  57.7929333  42.5547795 128.5018934  52.9543824  43.1647118 133.2421230
  52.8029330  42.9357670 132.3251313  52.9448503  44.1217720 133.2552575
  49.7229160  40.7379031 128.2267496  50.6521220  40.8890191 128.0536463
  49.3020190  40.8263052 127.3716143  48.5217492  44.7629695 125.9966034
  48.3828578  44.3948480 126.8691972  47.7332088  45.2777335 125.8249992
  49.1165644  49.8638792 117.3391570  49.2917400  49.3926835 118.1537193
  48.4298432  50.4904558 117.5672831  50.0722707  44.1411298 123.3854871
  49.7372540  44.1012068 124.2812521  49.5726653  43.4756014 122.9125282
  53.0081899  41.4867332 113.6591931  52.3911070  40.7614161 113.5624984
  52.5398387  42.2476693 113.3159005  54.6636031  46.1966241 131.3197712
  54.6048577  45.5125461 130.6528295  55.0655549  46.9385231 130.8678338
  43.6826729  53.0128155 124.1131430  43.9223328  53.6446679 124.7910449
  42.8395926  52.6616195 124.3996790  44.7980445  35.7052757 112.7813235
  43.9209911  35.5841557 112.4175482  45.2738198  34.9138835 112.5292124
  54.6653438  44.1605825 129.5511691  53.7780217  43.8231746 129.6738090
  55.2351989  43.4288856 129.7880457  36.3182585  40.4929916 122.8754743
  37.0053625  40.1791646 122.2875758  36.1630714  41.3971281 122.6021994
  48.1954591  48.8207277 126.5172934  48.1224763  49.6262249 127.0292239
  47.7531984  49.0199243 125.6920956  47.9844371  48.0579047 120.0275756
  47.2011893  48.6000727 120.1213980  48.6837116  48.5753027 120.4269997
  51.2941021  33.8673677 122.6709961  51.7909720  33.1143639 122.3511032
  50.5228002  33.9037993 122.1053171  59.1470778  39.5714042 124.3128253
  59.1360655  40.4538757 123.9422186  58.2788158  39.2185593 124.1182790
  50.6553275  48.7194111 128.6731093  51.3681247  49.3541576 128.6006995
  50.1643303  48.8157977 127.8571095  52.3770802  42.6245364 120.2448385
  51.4427080  42.7446826 120.0753089  52.5547470  41.7217831 119.9808395
  47.8775990  36.0091060 122.3981646  47.5073777  35.4562100 123.0862552
  48.3735082  35.4049193 121.8456646  55.7643353  38.4662683 120.7798419
  56.2303805  39.2990675 120.7058722  56.2150853  38.0007665 121.4843677
  45.7065188  46.4688555 129.4936664  46.4074648  47.1025038 129.6466058
  45.2360303  46.8103286 128.7332303  53.8319584  44.8106504 117.7784571
  54.1079428  44.6963099 118.6878445  52.9624083  44.4123989 117.7396744
  53.7360016  30.8343270 124.8189320  52.8223096  31.0647497 124.9871527
  54.1653117  30.9181714 125.6703353  53.5066474  39.0233162 127.3189214
  52.8537924  39.2709069 126.6641667  53.8846854  38.2097300 126.9851692
  50.4673648  49.0592855 121.4217385  50.6496043  48.2414511 121.8845137
  51.2906634  49.2760547 120.9842275  50.8015814  47.9861040 118.6832433
  51.3303580  47.4753495 118.0702595  51.0644033  47.6703571 119.5477966
  41.3032906  46.0024910 126.4267767  41.8886343  45.2568597 126.5595671
  41.1057745  46.3128866 127.3104430  44.1571562  49.0376157 121.4430209
  43.4881937  49.5222285 120.9594249  44.0184431  49.2845377 122.3573587
  48.2976830  51.0719900 128.0412867  48.8495138  51.2351522 128.8061953
  48.6383024  51.6624338 127.3692892  53.1487704  45.8981158 133.8961522
  53.6927608  46.5111116 133.4016477  52.5674549  46.4560736 134.4128535
  39.5259139  37.2994612 118.2226141  39.8212580  36.3905290 118.1693195
  38.6247174  37.2782351 117.9007143  51.4345217  49.0201876 125.0276549
  51.3096357  48.2191616 124.5187495  52.0924309  49.5148069 124.5390519
  43.0553386  35.3750609 124.2053690  42.3339971  35.9886576 124.0661163
  43.8446641  35.9108373 124.1270336  53.4980126  46.8210896 126.6556100
  52.5510461  46.7016247 126.5834426  53.8462899  45.9333394 126.7382361
  41.2546980  34.9808710 118.3465466  40.9259686  34.1006089 118.1640572
  41.6086351  34.9256378 119.2341855  50.5026559  46.6163612 122.8560452
  50.3551522  45.6880320 123.0368022  51.3280053  46.6383703 122.3717527
  44.3688803  35.2681679 118.7140944  44.7084876  35.7967601 117.9919552
  44.8160924  35.6062086 119.4899510  54.1060681  47.4392171 123.9425325
  55.0307228  47.2335032 123.8049776  53.9375984  47.1908572 124.8514666
  46.3556951  33.7656301 116.9134237  47.0765313  34.1437554 116.4097954
  45.7322255  34.4845178 117.0169215  50.4988073  34.4701450 117.8492569
  50.7151688  35.3526088 117.5481397  50.0182141  34.0787663 117.1198211
  45.2387295  37.4287163 124.4263314  45.0931876  37.7427466 125.3187595
  44.7612498  38.0472064 123.8734212  47.0983678  34.4189711 124.4744203
  47.0845246  33.5230804 124.1376501  47.8156106  34.4260375 125.1082489
  53.8955997  47.9577839 119.2987416  54.0692875  47.3924261 118.5461268
  54.3884888  48.7578733 119.1166906  46.5020574  33.3004091 119.7431773
  46.6236485  32.3720738 119.9422661  46.2122616  33.3142777 118.8310089
  49.3711764  30.9859002 122.8798493  49.3933461  31.0498335 121.9250473
  49.7879823  30.1463511 123.0738999  59.7495388  40.7214261 120.9177716
  60.1926534  39.9721587 120.5196839  58.8721899  40.7124398 120.5351448
  54.8831170  47.2744603 116.3984314  55.5782074  47.8951296 116.6171629
  55.2254320  46.4239954 116.6736692  56.7822593  44.7244308 117.9271645
  57.3073917  45.0631581 117.2020965  56.6944945  43.7891324 117.7434780
  48.4442641  48.6378382 130.0561522  48.7529768  48.3927529 130.9284221
  49.2418123  48.8425021 129.5680392  48.4663254  50.7916292 122.2866898
  48.0268244  50.2992670 122.9799755  49.2171370  50.2489259 122.0458973
  40.9455592  46.9827833 122.2891526  41.7713612  46.6831604 121.9090170
  40.5949644  46.2135455 122.7381315  45.9137126  46.3354301 124.3589200
  45.2917135  45.6725006 124.0591428  46.5841993  46.3615433 123.6762848
  39.1464198  44.9014159 123.2480460  38.3096106  44.4736333 123.0664461
  39.1187843  45.0946602 124.1851251  56.4716499  45.3577212 133.2322843
  55.6812043  45.3401351 132.6927342  56.2349853  45.8965506 133.9871880
  56.5914374  42.2069678 130.5455572  56.6412379  42.0419686 131.4871094
  56.4828297  41.3396937 130.1553452  45.4750633  44.8858224 117.8347660
  45.6238753  45.5693689 117.1814333  46.2817076  44.8663314 118.3497116
  58.0932571  44.6266620 130.7897593  57.8017379  44.9896601 131.6261054
  57.4804702  43.9133628 130.6110925  59.2928253  42.1919500 123.3100163
  60.1275144  42.6309304 123.4737724  59.4287382  41.7158153 122.4908409
  56.3419759  39.7499235 129.2577651  56.8173881  39.9426881 128.4496502
  55.4185324  39.8058420 129.0121035  43.2303266  40.9123402 118.8408729
  42.9849307  40.0085732 119.0388939  43.3999180  40.9140552 117.8988207
  42.4998913  36.6451759 116.3394891  41.8068158  36.7196114 115.6834927
  42.2550665  35.8812103 116.8616408  48.9746038  47.3806355 115.3059408
  48.4020005  47.9996542 114.8529880  49.5478832  47.9305716 115.8399330
  55.0421428  36.6264995 127.4905957  55.9938851  36.7263092 127.5118181
  54.8724878  35.8343263 128.0004041  53.0635807  33.7120578 127.6765358
  52.4685740  33.9925591 126.9811846  52.7785504  34.2014479 128.4482099
  52.1943298  47.6643505 116.4367990  53.1273971  47.5989066 116.6400866
  52.1066511  48.4999772 115.9782523  54.8231315  46.9809375 113.3971938
  54.7444946  46.6469239 114.2907696  55.6440981  47.4731143 113.3963410
  57.5209506  39.8471114 126.6048256  57.4885826  38.9087115 126.7907940
  58.1310129  39.9255151 125.8714081  49.3592837  38.7167167 112.6475460
  50.3051941  38.5873375 112.7163878  48.9807082  37.9781829 113.1244889
  57.6703994  36.6382158 126.6506540  57.1543043  35.8540614 126.4636468
  58.5543943  36.3100874 126.8153059  55.3314721  30.3823173 122.6102352
  55.1339542  30.0738262 123.4945684  55.9414427  31.1084812 122.7400282
  63.3386056  40.9087121 125.7454293  64.0689444  40.6472409 126.3061996
  62.7293001  40.1715843 125.7856361  61.4201353  39.0494984 126.3428744
  60.6934516  38.9150949 125.7345236  61.0048640  39.3571812 127.1485462
  47.5435754  36.6417144 112.5830346  46.6367209  36.3450256 112.6593059
  47.8211735  36.3446962 111.7164632  38.4613694  37.9623507 123.0329392
  38.1416478  37.1088815 122.7403766  37.9147122  38.1772085 123.7887359
  42.2393602  40.6785948 126.7498899  42.4579611  41.6103056 126.7686932
  42.6519375  40.3193923 127.5353702  49.1597819  31.1854033 118.7374587
  48.3498548  30.8401118 119.1129833  49.8482236  30.8761577 119.3262198
  51.0888368  30.2632080 120.3598884  51.6419406  30.6827534 121.0188907
  51.3258454  29.3367828 120.4021840  46.3134538  33.5004079 112.7242325
  47.1753702  33.8258977 112.9838142  46.4984883  32.7135575 112.2115391
  38.3301954  41.5826419 125.0022514  37.6365426  41.1680371 124.4892468
  39.0774945  41.6246955 124.4055932  54.4667175  32.3732605 119.8677548
  53.8865844  33.0317409 119.4855600  54.2003108  31.5509950 119.4564965
  52.9170741  31.7737663 122.0698868  53.4170520  31.8854198 121.2613187
  53.5606349  31.4698716 122.7099677  40.2438697  41.5144672 122.8788528
  40.2209385  41.6132360 121.9270412  40.5539333  42.3609823 123.2005695
  42.9026075  43.5720827 126.9935143  43.8569328  43.5404770 126.9265074
  42.7038598  43.1111451 127.8085369  53.2492053  34.5332696 118.9233896
  52.3617908  34.8182346 118.7054091  53.6646042  34.3726459 118.0761173
  56.6006589  34.5579217 122.6388235  57.3766979  35.0475669 122.9112852
  55.8754723  34.9837271 123.0960105  59.0379148  35.2706836 123.6962176
  59.6323638  35.0302572 122.9855484  59.1105731  34.5513967 124.3235712
  41.2576303  49.1140447 124.0105341  41.1230771  48.3540848 123.4443339
  40.8408366  49.8381347 123.5434130  52.3935266  44.2977370 113.0181916
  53.0971116  44.5027373 113.6339572  51.6697915  44.8654132 113.2831000
  53.2233077  40.0487232 119.1384186  53.1668278  40.5055783 118.2991819
  53.7761419  39.2877916 118.9607029  57.0337883  35.8376964 119.9634306
  56.7774817  35.4373599 120.7942513  56.4090751  36.5520758 119.8384445
  61.3450220  38.5773037 122.4705597  60.7849778  38.6466226 123.2437159
  60.7393724  38.4014021 121.7505093  44.4145429  50.0109764 124.2223783
  44.2977813  50.9555196 124.1202474  43.5937875  49.7083326 124.6109583
  54.3021964  44.7359900 115.0680376  55.1367568  44.3041098 114.8857851
  54.1406307  44.5641913 115.9957271  53.9567856  41.2392013 116.4336715
  53.9016660  41.0736284 115.4925159  53.3313911  41.9468046 116.5898905
  47.2663981  30.7400122 116.0122034  47.2542651  31.6841962 116.1690305
  48.1587403  30.5570267 115.7181495  45.4399943  50.6638026 127.4379712
  46.3427190  50.6961636 127.7546207  45.2137313  49.7338477 127.4526048
  47.1953545  49.4169012 124.0989790  46.2449176  49.4170874 123.9854163
  47.4986031  48.6701747 123.5825825  51.0816101  27.3342899 120.2667971
  50.3148497  26.7801385 120.4124653  51.4926806  27.4064767 121.1282122
  62.9306239  55.2529551 125.1635553  63.5684649  55.1336298 124.4598893
  62.8127082  56.2010395 125.2223505  59.7395945  55.2056979 125.0997078
  59.4014457  55.0898044 124.2117612  60.6085713  54.8048144 125.0798084
  55.5982761  57.0592455 121.0893968  55.0347626  56.9682392 120.3210256
  55.4835156  56.2392360 121.5696461  60.2215728  56.3591831 131.0583283
  60.2104369  55.9644629 130.1863787  60.3836368  55.6257903 131.6517054
  53.1447193  58.5543647 123.9278189  53.9368485  58.2134472 123.5124488
  53.3843843  58.6638622 124.8480342  61.1782320  60.7263423 116.4008433
  60.5270299  61.3117503 116.0142447  61.9726682  61.2569618 116.4603471
  55.1037947  57.8152560 116.7995568  55.8768823  57.2681547 116.6608444
  55.4563346  58.6796809 117.0110029  56.9422989  59.1428942 130.0062467
  56.6512855  60.0474573 129.8909133  57.5779974  59.1845470 130.7206537
  57.8679196  56.5205791 126.5963827  58.4642768  56.2961813 125.8820790
  57.9254168  55.7790536 127.1989275  57.4404225  53.9745226 114.4314018
  57.6929745  53.4526748 113.6697481  56.5028784  53.8111372 114.5340701
  62.4847507  52.9781005 122.2388761  63.2710597  52.5600428 121.8879178
  62.7486212  53.8827097 122.4070409  62.6557585  58.4153855 116.9377418
  62.0203418  58.4888481 117.6498322  62.3254991  59.0047454 116.2596497
  67.8855934  52.9156238 123.1421739  68.6181106  52.3455455 123.3759569
  67.1295290  52.5277838 123.5828245  57.1600513  55.8773332 116.6338393
  57.0436771  55.2018236 117.3019477  57.2702773  55.3905706 115.8170546
  59.5032054  55.3383479 120.3385082  59.1390261  54.8114100 121.0498003
  60.3599170  54.9481948 120.1651567  65.4081355  46.6277812 127.6016348
  65.0764680  47.4973223 127.3777563  64.8126968  46.3114096 128.2810378
  59.1437541  50.3673379 115.3346430  59.3111943  51.2353615 115.7016901
  58.9534710  50.5300661 114.4107720  61.9012874  58.8290358 127.0012261
  61.6013597  59.7315397 126.8928068  61.5563934  58.5622541 127.8533414
  55.3525356  55.2804155 123.0348965  54.4275852  55.1480369 123.2426657
  55.6009769  56.0598374 123.5318908  65.3010018  51.3472898 124.6809698
  64.3926895  51.2788307 124.3868459  65.2497614  51.8244843 125.5091524
  59.1226762  52.8231037 116.3193097  59.0026387  53.2688087 117.1578577
  58.4279350  53.1716354 115.7606635  52.7134167  54.9237428 123.8692754
  52.8426548  55.1771907 124.7832166  52.0331618  55.5165136 123.5497409
  56.8833654  65.5934678 119.9683228  56.8057684  66.5442503 120.0471709
  56.2795298  65.2480551 120.6258155  59.3750884  52.7662544 132.6244595
  58.5984218  53.3256464 132.6147460  60.0141447  53.2519327 133.1459465
  67.1671665  49.5489337 126.4587572  66.5246045  49.8421870 125.8127367
  66.6626593  49.4342257 127.2640769  64.8211828  53.2952510 117.1473431
  65.7329684  53.5279896 116.9721129  64.3121475  53.8789554 116.5848510
  57.6297256  55.5747997 132.1862562  58.3711941  56.1133041 131.9097386
  56.9234242  56.2014286 132.3434114  63.1052596  57.7177138 130.7834724
  63.5135952  57.2759548 130.0389356  62.3829857  57.1429765 131.0368917
  59.4583666  52.6549744 128.1568281  60.3044861  53.0789158 128.3002930
  59.3982304  51.9983369 128.8506844  63.4281410  58.2778328 124.5387013
  62.7990273  58.4424042 123.8363081  63.0407073  58.6919938 125.3097977
  67.3070642  59.2132766 121.8931376  66.6221681  59.5931667 121.3428410
  67.3914492  59.8228093 122.6263324  62.6083111  50.3154113 129.8149454
  62.3644043  51.0696173 129.2783730  62.8843042  50.6939460 130.6496701
  64.5621574  56.8592725 128.4926720  64.7738469  57.5024485 127.8161101
  64.5151322  56.0255042 128.0248650  62.1647803  49.4710546 125.3963292
  61.3032282  49.7691799 125.6880030  62.1910238  49.6880945 124.4644325
  58.9809372  58.0152736 121.8037098  59.4447718  58.2940439 121.0141720
  58.7166170  57.1136181 121.6210188  55.8733453  57.5624218 124.7416861
  56.4434810  57.9911486 124.1034346  56.4641565  57.2806802 125.4401047
  57.9178258  54.1375889 118.6126663  58.6202302  54.5896932 119.0800589
  57.5858887  53.4959707 119.2406556  56.3658620  52.7287645 132.9877872
  55.7357281  53.4103926 133.2213269  56.2594708  52.6170727 132.0431011
  51.6603592  52.3959441 123.9143796  50.8702646  52.6516970 123.4383907
  52.1514840  53.2107779 124.0195837  65.6767402  59.7364680 126.6649077
  66.4984846  59.3344868 126.3831759  65.6729805  59.6332915 127.6165193
  53.6118338  52.7604021 120.8727273  52.8149501  52.8722715 121.3910769
  53.3843930  53.0990673 120.0068164  59.4424005  59.2848724 128.8209788
  59.5068438  59.7469131 129.6567960  58.7334929  58.6546089 128.9492098
  49.9441295  52.6489932 126.3458787  50.1949334  53.5336942 126.6116363
  50.4800844  52.4694533 125.5733879  73.7673395  56.0803429 123.0134049
  73.0137103  55.5110827 122.8578053  73.9020936  56.0466093 123.9604683
  59.1572023  60.9516831 118.6888768  59.0217698  61.7968367 119.1173616
  59.6981836  61.1536109 117.9254702  55.6439363  47.0308411 135.3503123
  55.2506308  46.4774610 136.0250768  56.4605503  47.3418990 135.7409641
  52.6101420  58.4692269 119.2616693  53.1225941  59.2635520 119.4122258
  53.2624133  57.7718560 119.1950295  54.4196305  61.5858026 121.3439446
  54.5962933  62.5075990 121.1560430  55.2153139  61.2716445 121.7733826
  58.5607324  48.4466290 132.9423380  59.3017037  49.0473443 132.8627842
  58.7925246  47.7043928 132.3841422  53.7048662  53.6322657 131.2201610
  53.5902177  52.7307915 131.5208709  52.8493179  53.8786354 130.8686426
  60.7840499  61.5740398 132.8189110  60.3404354  60.7876776 132.5010015
  61.4457713  61.7619548 132.1533001  55.5427621  63.1036199 127.3449789
  56.0935046  62.9753263 126.5726783  54.7039096  63.4031088 126.9944682
  62.8821737  61.8543198 130.8470511  62.8640213  62.6752079 130.3550781
  63.8041658  61.7297273 131.0720653  59.3394792  59.3687327 131.6894020
  59.8723128  58.6075615 131.4593328  58.8108873  59.0760979 132.4318174
  62.5064487  44.4747393 127.2187662  62.1628756  45.3649035 127.1426772
  62.8743449  44.2849051 126.3557247  50.5750337  56.7980924 120.0376264
  51.4125559  57.2077932 119.8209971  50.7528605  55.8580366 120.0076458
  62.4714769  54.4656004 115.7260097  61.9561393  55.2360609 115.9648484
  62.1992078  53.7921140 116.3493158  60.0561880  49.3105705 120.7845335
  59.2003477  48.9212555 120.6050974  60.4688832  49.3897666 119.9245121
  61.5861027  46.8452048 125.1836895  61.0825823  46.8082183 124.3704700
  61.8791634  47.7544791 125.2433552  57.8303913  46.9290778 124.1903077
  58.6956910  46.7333587 123.8308966  57.8981422  46.7001130 125.1172433
  67.4449043  57.2188359 117.6613270  66.6678486  56.8799518 117.2168432
  68.1240524  57.2240982 116.9868235  62.2601072  52.3383096 117.5519878
  61.9551208  52.6529245 118.4030021  63.2131515  52.4164516 117.5947211
  60.7047504  58.4973320 119.2012832  60.1768866  57.7626079 118.8886069
  60.2035007  59.2747996 118.9552800  65.6840350  56.6922340 124.3179878
  65.0264025  57.3821602 124.4060007  66.4880750  57.0818772 124.6613865
  55.4366232  49.1592986 121.5619443  56.0109984  48.9368167 120.8292636
  56.0237214  49.2281680 122.3148045  64.4945809  55.0466713 122.3683820
  65.0077691  55.6796705 122.8705530  65.1447033  54.4467908 122.0027180
  55.7635819  51.1897447 115.5815329  54.9273131  51.5272133 115.9024603
  55.6240589  51.0546427 114.6442466  57.7388900  46.0334235 120.2894513
  57.0853312  45.7183252 119.6651128  57.6969374  45.4109975 121.0154336
  58.8500105  56.3153530 112.2047805  57.9427166  56.0842783 112.4038954
  59.3471137  55.5191149 112.3921786  61.7568183  65.0251037 115.1244491
  61.0829882  65.3282734 115.7329449  62.1434005  65.8280117 114.7749948
  60.9726640  52.5216168 124.6142160  60.0549201  52.7431115 124.4563849
  61.3886784  52.5962479 123.7553868  61.7561688  53.9207584 119.7444841
  62.5033507  54.4328981 119.4351963  62.0253277  53.5991637 120.6049234
  60.0288338  56.4166125 116.7271795  59.1199557  56.1325158 116.8244265
  60.0583422  56.8365203 115.8675102  65.2607605  60.0272714 120.4962963
  64.8069932  59.1863624 120.5528153  64.6301572  60.6634113 120.8337743
  64.2040525  50.9564700 121.7263630  63.4663282  50.4442087 122.0573873
  64.4567298  50.5165082 120.9146907  63.7040545  61.8649211 121.4312781
  63.9963519  62.4254268 120.7125146  64.2139165  62.1577772 122.1865940
  64.3052152  43.7340952 122.3205399  64.6111029  42.8738316 122.0331314
  65.0304757  44.3258572 122.1204393  50.5976508  54.1371639 120.7086997
  50.4000908  53.5441000 119.9838064  50.0423172  53.8323849 121.4262936
  58.5773232  54.0294745 122.8281590  58.6321842  53.0768582 122.7524067
  57.7664434  54.1854184 123.3122889  59.7264426  57.9574868 114.0659874
  59.2883856  57.2410727 113.6065511  60.4674867  58.1850983 113.5044965
  56.5165592  52.6471805 120.5871969  55.7033457  52.9465976 120.9937161
  57.0124586  52.2527494 121.3046451  58.6674170  62.6429562 122.5206234
  58.6250349  62.8690408 121.5914766  59.5836869  62.4092937 122.6692035
  62.1139804  53.1113630 129.4186863  62.4689191  53.3385103 130.2781329
  62.7611935  53.4432006 128.7964118  67.8437541  56.2332065 120.1236192
  67.7055439  56.4233661 119.1957381  67.4873759  56.9951448 120.5804243
  56.0079667  50.2190161 126.2033204  56.6479046  50.0778920 125.5056167
  55.1757197  49.9324674 125.8271806  67.8706920  58.3008592 125.1347464
  68.3043427  58.2083882 125.9830518  68.5838501  58.2766093 124.4967480
  56.7839971  59.5192591 122.3168197  57.5780569  59.0242911 122.1150772
  56.0731663  58.9910454 121.9535902  61.6034815  61.9010687 126.6680564
  61.6571837  62.4701623 127.4358280  60.7349596  62.0712572 126.3034601
  53.0922734  53.6635673 118.3927949  52.1620322  53.6020128 118.6097911
  53.1880206  53.1411626 117.5964591  53.0108283  50.1890486 120.9806191
  53.2715100  51.1035819 120.8715351  53.8325455  49.7214928 121.1302804
  54.4833208  51.6028243 128.1505015  55.1556262  51.3945605 127.5017664
  53.6562995  51.4050329 127.7110248  68.7322470  58.3432293 127.6680349
  68.9258360  59.2478104 127.9139624  68.6323088  57.8839712 128.5018934
  60.3858780  48.2290184 130.1670676  59.7386695  48.9280133 130.0735153
  61.1559796  48.6626328 130.5346925  63.7937578  58.4939036 133.2421230
  63.6423085  58.2649588 132.3251313  63.7842258  59.4509637 133.2552575
  60.5622915  56.0670949 128.2267496  61.4914975  56.2182108 128.0536463
  60.1413945  56.1554969 127.3716143  59.3611247  60.0921613 125.9966034
  59.2222332  59.7240397 126.8691972  58.5725843  60.6069252 125.8249992
  59.9559399  65.1930710 117.3391570  60.1311154  64.7218753 118.1537193
  59.2692187  65.8196476 117.5672831  60.9116462  59.4703216 123.3854871
  60.5766294  59.4303986 124.2812521  60.4120407  58.8047932 122.9125282
  54.8860706  54.8770846 128.9107453  54.7480504  54.1451085 129.5118992
  55.7965629  54.7879746 128.6291640  63.8475653  56.8159250 113.6591931
  63.2304824  56.0906078 113.5624984  63.3792142  57.5768610 113.3159005
  57.5143006  54.5890805 128.3991132  58.2242625  53.9483997 128.3577751
  57.4712315  54.8403700 129.3217313  65.5029785  61.5258158 131.3197712
  65.4442331  60.8417379 130.6528295  65.9049303  62.2677148 130.8678338
  56.2271940  51.5756023 130.2186772  55.6909297  51.1246761 130.8708368
  55.6388649  51.7101932 129.4757236  54.5220484  68.3420072 124.1131430
  54.7617082  68.9738596 124.7910449  53.6789680  67.9908112 124.3996790
  55.6374199  51.0344674 112.7813235  54.7603666  50.9133475 112.4175482
  56.1131952  50.2430753 112.5292124  65.5047192  59.4897742 129.5511691
  64.6173971  59.1523664 129.6738090  66.0745743  58.7580774 129.7880457
  47.1576339  55.8221834 122.8754743  47.8447379  55.5083564 122.2875758
  47.0024468  56.7263199 122.6021994  51.9611062  50.7112031 127.3039766
  51.8769250  50.1037700 126.5690176  51.1393768  51.2021049 127.3049263
  59.0348346  64.1499195 126.5172934  58.9618517  64.9554166 127.0292239
  58.5925739  64.3491161 125.6920956  58.8238125  63.3870965 120.0275756
  58.0405647  63.9292645 120.1213980  59.5230870  63.9044944 120.4269997
  62.1334775  49.1965594 122.6709961  62.6303475  48.4435557 122.3511032
  61.3621757  49.2329911 122.1053171  69.9864533  54.9005960 124.3128253
  69.9754409  55.7830675 123.9422186  69.1181912  54.5477511 124.1182790
  61.4947029  64.0486029 128.6731093  62.2075001  64.6833494 128.6006995
  61.0037058  64.1449895 127.8571095  63.2164556  57.9537281 120.2448385
  62.2820835  58.0738744 120.0753089  63.3941225  57.0509748 119.9808395
  58.7169744  51.3382977 122.3981646  58.3467532  50.7854018 123.0862552
  59.2128837  50.7341111 121.8456646  66.6037107  53.7954601 120.7798419
  67.0697560  54.6282592 120.7058722  67.0544608  53.3299582 121.4843677
  56.5458943  61.7980472 129.4936664  57.2468402  62.4316955 129.6466058
  56.0754058  62.1395204 128.7332303  64.6713339  60.1398422 117.7784571
  64.9473182  60.0255017 118.6878445  63.8017837  59.7415907 117.7396744
  64.5753770  46.1635188 124.8189320  63.6616850  46.3939415 124.9871527
  65.0046872  46.2473632 125.6703353  64.3460229  54.3525080 127.3189214
  63.6931679  54.6000987 126.6641667  64.7240609  53.5389218 126.9851692
  61.3067403  64.3884773 121.4217385  61.4889797  63.5706429 121.8845137
  62.1300389  64.6052465 120.9842275  61.6409568  63.3152958 118.6832433
  62.1697335  62.8045413 118.0702595  61.9037788  62.9995488 119.5477966
  60.3947802  55.0944891 133.8055251  59.7188439  54.9939020 134.4757627
  61.2175436  54.9384104 134.2691249  52.1426661  61.3316827 126.4267767
  52.7280098  60.5860515 126.5595671  51.9451499  61.6420784 127.3104430
  54.9965316  64.3668075 121.4430209  54.3275691  64.8514202 120.9594249
  54.8578186  64.6137295 122.3573587  46.7344316  53.9022427 125.1472210
  46.7728415  53.3686018 125.9409328  46.2284608  53.3757633 124.5283187
  59.1370585  66.4011818 128.0412867  59.6888893  66.5643440 128.8061953
  59.4776778  66.9916256 127.3692892  54.1135078  48.7486968 128.6434752
  54.1776404  49.6101799 128.2312150  54.0502198  48.1360970 127.9107111
  53.5887350  50.8210101 132.2907786  54.2159389  50.4387178 132.9045311
  52.7315269  50.6024302 132.6563479  63.9881459  61.2273076 133.8961522
  64.5321363  61.8403034 133.4016477  63.4068304  61.7852654 134.4128535
  50.3652893  52.6286530 118.2226141  50.6606334  51.7197208 118.1693195
  49.4640929  52.6074269 117.9007143  62.2738972  64.3493794 125.0276549
  62.1490111  63.5483534 124.5187495  62.9318063  64.8439987 124.5390519
  53.8947140  50.7042526 124.2053690  53.1733726  51.3178494 124.0661163
  54.6840396  51.2400291 124.1270336  64.3373880  62.1502814 126.6556100
  63.3904216  62.0308165 126.5834426  64.6856653  61.2625312 126.7382361
  56.6973454  48.0396953 130.4794341  57.2207855  48.2859249 131.2420651
  56.4785787  48.8716988 130.0597479  52.0940735  50.3100627 118.3465466
  51.7653441  49.4298006 118.1640572  52.4480105  50.2548296 119.2341855
  61.3420314  61.9455530 122.8560452  61.1945276  61.0172237 123.0368022
  62.1673807  61.9675621 122.3717527  55.2082558  50.5973597 118.7140944
  55.5478630  51.1259518 117.9919552  55.6554678  50.9354003 119.4899510
  64.9454435  62.7684089 123.9425325  65.8700983  62.5626950 123.8049776
  64.7769739  62.5200490 124.8514666  57.9025999  48.9810648 128.1644012
  57.5622819  48.1818461 128.5664692  57.1965005  49.2812359 127.5920845
  58.5542471  46.0659960 126.6171335  59.3768540  45.5920438 126.4950225
  58.7980534  46.8450444 127.1170021  57.1950705  49.0948219 116.9134237
  57.9159068  49.4729471 116.4097954  56.5716009  49.8137095 117.0169215
  61.3381828  49.7993368 117.8492569  61.5545442  50.6818006 117.5481397
  60.8575895  49.4079581 117.1198211  56.0781049  52.7579081 124.4263314
  55.9325630  53.0719384 125.3187595  55.6006253  53.3763981 123.8734212
  57.9377432  49.7481629 124.4744203  57.9239001  48.8522722 124.1376501
  58.6549860  49.7552293 125.1082489  59.7903563  50.1818969 126.5197331
  59.5321341  51.1036040 126.5181661  59.2588603  49.7849404 127.2097795
  64.7349752  63.2869756 119.2987416  64.9086629  62.7216179 118.5461268
  65.2278643  64.0870651 119.1166906  50.5526711  55.2984425 127.3650975
  50.0080180  56.0744233 127.4971249  51.4306061  55.6455230 127.2070096
  57.3414328  48.6296009 119.7431773  57.4630239  47.7012655 119.9422661
  57.0516370  48.6434695 118.8310089  60.2105518  46.3150920 122.8798493
  60.2327215  46.3790253 121.9250473  60.6273577  45.4755428 123.0738999
  70.5889143  56.0506179 120.9177716  71.0320289  55.3013504 120.5196839
  69.7115653  56.0416315 120.5351448  65.7224924  62.6036521 116.3984314
  66.4175829  63.2243213 116.6171629  66.0648074  61.7531872 116.6736692
  51.3392733  54.4254322 130.2581132  50.5974469  54.5736957 130.8445762
  51.0185478  54.6862587 129.3947881  67.6216347  60.0536226 117.9271645
  68.1467671  60.3923499 117.2020965  67.5338700  59.1183241 117.7434780
  59.2836396  63.9670300 130.0561522  59.5923522  63.7219447 130.9284221
  60.0811878  64.1716938 129.5680392  59.3057008  66.1208209 122.2866898
  58.8661998  65.6284588 122.9799755  60.0565125  65.5781177 122.0458973
  51.7849347  62.3119750 122.2891526  52.6107367  62.0123522 121.9090170
  51.4343399  61.5427373 122.7381315  56.7530880  61.6646218 124.3589200
  56.1310889  61.0016924 124.0591428  57.4235747  61.6907350 123.6762848
  49.9857952  60.2306077 123.2480460  49.1489860  59.8028251 123.0664461
  49.9581597  60.4238520 124.1851251  56.8255408  50.1428007 133.9521706
  56.8743563  51.0190129 133.5699476  57.3677922  49.6005400 133.3793349
  67.3110253  60.6869130 133.2322843  66.5205797  60.6693269 132.6927342
  67.0743608  61.2257423 133.9871880  67.4308128  57.5361596 130.5455572
  67.4806133  57.3711604 131.4871094  67.3222052  56.6688855 130.1553452
  56.3144387  60.2150142 117.8347660  56.4632507  60.8985606 117.1814333
  57.1210831  60.1955232 118.3497116  64.7211891  53.5192524 131.8614878
  65.6221754  53.3798989 131.5698876  64.7959865  53.6846979 132.8013056
  59.0554696  50.8959379 130.7068065  58.1858005  51.1892945 130.4350653
  59.2914176  51.4799824 131.4275328  68.9326325  59.9558538 130.7897593
  68.6411133  60.3188518 131.6261054  68.3198456  59.2425546 130.6110925
  70.1322008  57.5211417 123.3100163  70.9668899  57.9601221 123.4737724
  70.2681136  57.0450071 122.4908409  67.1813513  55.0791152 129.2577651
  67.6567635  55.2718799 128.4496502  66.2579079  55.1350338 129.0121035
  54.0697020  56.2415319 118.8408729  53.8243062  55.3377649 119.0388939
  54.2392935  56.2432470 117.8988207  61.7593730  47.1138996 128.2233485
  62.2775674  47.8500023 127.8979974  61.4048863  47.4202989 129.0580244
  53.3392668  51.9743677 116.3394891  52.6461913  52.0488032 115.6834927
  53.0944419  51.2104021 116.8616408  62.0106324  43.5339278 123.7434382
  62.2908078  42.8662467 124.3694808  62.7956931  43.7268374 123.2309045
  59.8139793  62.7098272 115.3059408  59.2413760  63.3288459 114.8529880
  60.3872586  63.2597634 115.8399330  65.8815182  51.9556912 127.4905957
  66.8332605  52.0555010 127.5118181  65.7118633  51.1635181 128.0004041
  63.9029562  49.0412496 127.6765358  63.3079494  49.3217508 126.9811846
  63.6179259  49.5306397 128.4482099  63.0337052  62.9935422 116.4367990
  63.9667726  62.9280984 116.6400866  62.9460265  63.8291689 115.9782523
  65.6625069  62.3101293 113.3971938  65.5838701  61.9761156 114.2907696
  66.4834736  62.8023061 113.3963410  68.3603260  55.1763032 126.6048256
  68.3279580  54.2379033 126.7907940  68.9703884  55.2547069 125.8714081
  60.1986591  54.0459085 112.6475460  61.1445696  53.9165293 112.7163878
  59.8200836  53.3073747 113.1244889  68.5097749  51.9674075 126.6506540
  67.9936797  51.1832532 126.4636468  69.3937697  51.6392792 126.8153059
  66.1708476  45.7115091 122.6102352  65.9733297  45.4030179 123.4945684
  66.7808181  46.4376730 122.7400282  74.1779810  56.2379039 125.7454293
  74.9083199  55.9764327 126.3061996  73.5686756  55.5007761 125.7856361
  72.2595107  54.3786901 126.3428744  71.5328271  54.2442866 125.7345236
  71.8442394  54.6863730 127.1485462  60.0825284  58.0976831 134.1076117
  61.0028293  58.2755430 134.3016164  60.0474867  57.1532877 133.9555817
  58.3829508  51.9709061 112.5830346  57.4760964  51.6742174 112.6593059
  58.6605489  51.6738879 111.7164632  49.3007449  53.2915425 123.0329392
  48.9810233  52.4380733 122.7403766  48.7540877  53.5064003 123.7887359
  53.0787356  56.0077866 126.7498899  53.2973366  56.9394974 126.7686932
  53.4913130  55.6485840 127.5353702  59.9991574  46.5145951 118.7374587
  59.1892302  46.1693036 119.1129833  60.6875991  46.2053495 119.3262198
  61.9282122  45.5923998 120.3598884  62.4813161  46.0119451 121.0188907
  62.1652209  44.6659746 120.4021840  57.9515221  51.5811072 136.1401647
  57.8511948  52.5305429 136.0713739  57.7336764  51.2529310 135.2677718
  57.1528293  48.8295997 112.7242325  58.0147457  49.1550895 112.9838142
  57.3378637  48.0427493 112.2115391  49.1695709  56.9118336 125.0022514
  48.4759180  56.4972289 124.4892468  49.9168700  56.9538873 124.4055932
  65.3060929  47.7024523 119.8677548  64.7259598  48.3609327 119.4855600
  65.0396862  46.8801868 119.4564965  63.7564496  47.1029581 122.0698868
  64.2564274  47.2146115 121.2613187  64.4000104  46.7990634 122.7099677
  57.8146492  55.0108210 134.9566709  57.3313573  55.8108571 135.1630598
  57.9007431  55.0216155 134.0034153  51.0832451  56.8436590 122.8788528
  51.0603139  56.9424277 121.9270412  51.3933088  57.6901741 123.2005695
  53.7419829  58.9012745 126.9935143  54.6963083  58.8696687 126.9265074
  53.5432353  58.4403369 127.8085369  54.3319211  57.4713861 129.5605941
  55.1512100  57.9657940 129.5840778  54.6056019  56.5545829 129.5323508
  64.0885807  49.8624613 118.9233896  63.2011662  50.1474264 118.7054091
  64.5039796  49.7018377 118.0761173  67.4400343  49.8871134 122.6388235
  68.2160734  50.3767587 122.9112852  66.7148478  50.3129189 123.0960105
  69.8772902  50.5998754 123.6962176  70.4717393  50.3594490 122.9855484
  69.9499486  49.8805884 124.3235712  52.0970058  64.4432365 124.0105341
  51.9624526  63.6832765 123.4443339  51.6802120  65.1673264 123.5434130
  63.2329021  59.6269288 113.0181916  63.9364871  59.8319291 113.6339572
  62.5091670  60.1946050 113.2831000  64.0626831  55.3779149 119.1384186
  64.0062033  55.8347701 118.2991819  64.6155174  54.6169834 118.9607029
  67.8731637  51.1668881 119.9634306  67.6168571  50.7665517 120.7942513
  67.2484505  51.8812675 119.8384445  72.1843975  53.9064955 122.4705597
  71.6243533  53.9758144 123.2437159  71.5787478  53.7305939 121.7505093
  55.2539184  65.3401682 124.2223783  55.1371568  66.2847114 124.1202474
  54.4331630  65.0375243 124.6109583  65.1415718  60.0651817 115.0680376
  65.9761322  59.6333016 114.8857851  64.9800061  59.8933831 115.9957271
  64.7961610  56.5683931 116.4336715  64.7410414  56.4028202 115.4925159
  64.1707666  57.2759964 116.5898905  49.5854125  51.8051995 130.2598138
  50.2312989  51.2950949 130.7485363  49.3771277  52.5420677 130.8341563
  62.1107518  58.8732843 135.7590278  62.9798677  59.0473495 135.3976913
  61.6314269  59.6927259 135.6366008  58.1057736  46.0692040 116.0122034
  58.0936406  47.0133880 116.1690305  58.9981158  45.8862185 115.7181495
  56.2793698  65.9929944 127.4379712  57.1820945  66.0253554 127.7546207
  56.0531068  65.0630394 127.4526048  58.0347300  64.7460930 124.0989790
  57.0842931  64.7462792 123.9854163  58.3379786  63.9993665 123.5825825
  61.9209855  42.6634816 120.2667971  61.1542251  42.1093303 120.4124653
  62.3320560  42.7356685 121.1282122  53.9251616  48.9519612 134.3573152
  54.7883078  48.5956417 134.5676476  53.3517027  48.6133507 135.0448556
  73.7699993  70.5821468 125.1635553  74.4078403  70.4628216 124.4598893
  73.6520836  71.5302312 125.2223505  70.5789700  70.5348897 125.0997078
  70.2408211  70.4189961 124.2117612  71.4479468  70.1340062 125.0798084
  66.4376515  72.3884373 121.0893968  65.8741380  72.2974310 120.3210256
  66.3228910  71.5684277 121.5696461  71.0609483  71.6883748 131.0583283
  71.0498123  71.2936547 130.1863787  71.2230122  70.9549821 131.6517054
  63.9840947  73.8835565 123.9278189  64.7762239  73.5426389 123.5124488
  64.2237597  73.9930540 124.8480342  72.0176074  76.0555341 116.4008433
  71.3664054  76.6409421 116.0142447  72.8120437  76.5861536 116.4603471
  65.9431701  73.1444478 116.7995568  66.7162577  72.5973465 116.6608444
  66.2957100  74.0088727 117.0110029  67.7816744  74.4720860 130.0062467
  67.4906610  75.3766491 129.8909133  68.4173728  74.5137388 130.7206537
  68.7072951  71.8497709 126.5963827  69.3036523  71.6253731 125.8820790
  68.7647922  71.1082454 127.1989275  68.2797979  69.3037144 114.4314018
  68.5323500  68.7818665 113.6697481  67.3422538  69.1403289 114.5340701
  73.3241262  68.3072922 122.2388761  74.1104351  67.8892345 121.8879178
  73.5879966  69.2119014 122.4070409  73.4951339  73.7445773 116.9377418
  72.8597172  73.8180399 117.6498322  73.1648746  74.3339371 116.2596497
  78.7249689  68.2448156 123.1421739  79.4574861  67.6747372 123.3759569
  77.9689045  67.8569756 123.5828245  67.9994268  71.2065250 116.6338393
  67.8830526  70.5310153 117.3019477  68.1096528  70.7197624 115.8170546
  70.3425809  70.6675397 120.3385082  69.9784016  70.1406018 121.0498003
  71.1992925  70.2773866 120.1651567  76.2475109  61.9569730 127.6016348
  75.9158434  62.8265141 127.3777563  75.6520723  61.6406014 128.2810378
  69.9831296  65.6965297 115.3346430  70.1505698  66.5645533 115.7016901
  69.7928465  65.8592578 114.4107720  72.7406629  74.1582276 127.0012261
  72.4407352  75.0607314 126.8928068  72.3957688  73.8914459 127.8533414
  66.1919110  70.6096072 123.0348965  65.2669607  70.4772287 123.2426657
  66.4403523  71.3890292 123.5318908  76.1403773  66.6764816 124.6809698
  75.2320650  66.6080224 124.3868459  76.0891368  67.1536761 125.5091524
  69.9620517  68.1522954 116.3193097  69.8420142  68.5980005 117.1578577
  69.2673105  68.5008272 115.7606635  63.5527921  70.2529346 123.8692754
  63.6820303  70.5063825 124.7832166  62.8725373  70.8457054 123.5497409
  67.7227409  80.9226596 119.9683228  67.6451438  81.8734421 120.0471709
  67.1189052  80.5772468 120.6258155  70.2144638  68.0954461 132.6244595
  69.4377972  68.6548382 132.6147460  70.8535201  68.5811244 133.1459465
  78.0065419  64.8781254 126.4587572  77.3639799  65.1713787 125.8127367
  77.5020348  64.7634175 127.2640769  75.6605583  68.6244427 117.1473431
  76.5723439  68.8571814 116.9721129  75.1515230  69.2081472 116.5848510
  68.4691011  70.9039915 132.1862562  69.2105695  71.4424959 131.9097386
  67.7627996  71.5306203 132.3434114  73.9446350  73.0469055 130.7834724
  74.3529706  72.6051466 130.0389356  73.2223612  72.4721683 131.0368917
  70.2977420  67.9841662 128.1568281  71.1438616  68.4081076 128.3002930
  70.2376058  67.3275286 128.8506844  74.2675165  73.6070246 124.5387013
  73.6384027  73.7715960 123.8363081  73.8800827  74.0211855 125.3097977
  78.1464397  74.5424684 121.8931376  77.4615435  74.9223585 121.3428410
  78.2308246  75.1520010 122.6263324  73.4476866  65.6446030 129.8149454
  73.2037798  66.3988091 129.2783730  73.7236796  66.0231378 130.6496701
  75.4015328  72.1884643 128.4926720  75.6132224  72.8316403 127.8161101
  75.3545077  71.3546959 128.0248650  73.0041557  64.8002463 125.3963292
  72.1426036  65.0983717 125.6880030  73.0303992  65.0172862 124.4644325
  69.8203127  73.3444654 121.8037098  70.2841472  73.6232357 121.0141720
  69.5559925  72.4428098 121.6210188  66.7127208  72.8916135 124.7416861
  67.2828565  73.3203404 124.1034346  67.3035320  72.6098720 125.4401047
  68.7572013  69.4667806 118.6126663  69.4596056  69.9188850 119.0800589
  68.4252641  68.8251625 119.2406556  67.2052374  68.0579563 132.9877872
  66.5751035  68.7395844 133.2213269  67.0988462  67.9462645 132.0431011
  62.4997347  67.7251359 123.9143796  61.7096401  67.9808887 123.4383907
  62.9908594  68.5399697 124.0195837  76.5161156  75.0656598 126.6649077
  77.3378600  74.6636785 126.3831759  76.5123559  74.9624832 127.6165193
  64.4512092  68.0895938 120.8727273  63.6543256  68.2014632 121.3910769
  64.2237684  68.4282590 120.0068164  70.2817760  74.6140641 128.8209788
  70.3462192  75.0761049 129.6567960  69.5728684  73.9838006 128.9492098
  60.7835050  67.9781849 126.3458787  61.0343088  68.8628859 126.6116363
  61.3194598  67.7986451 125.5733879  84.6067149  71.4095347 123.0134049
  83.8530858  70.8402745 122.8578053  84.7414691  71.3758011 123.9604683
  69.9965778  76.2808749 118.6888768  69.8611452  77.1260285 119.1173616
  70.5375590  76.4828027 117.9254702  66.4833117  62.3600329 135.3503123
  66.0900063  61.8066527 136.0250768  67.2999257  62.6710907 135.7409641
  63.4495175  73.7984187 119.2616693  63.9619695  74.5927437 119.4122258
  64.1017888  73.1010477 119.1950295  65.2590060  76.9149943 121.3439446
  65.4356688  77.8367908 121.1560430  66.0546893  76.6008362 121.7733826
  69.4001078  63.7758208 132.9423380  70.1410792  64.3765361 132.8627842
  69.6319001  63.0335846 132.3841422  64.5442416  68.9614575 131.2201610
  64.4295931  68.0599832 131.5208709  63.6886934  69.2078272 130.8686426
  71.6234254  76.9032315 132.8189110  71.1798108  76.1168694 132.5010015
  72.2851467  77.0911466 132.1533001  66.3821375  78.4328117 127.3449789
  66.9328800  78.3045180 126.5726783  65.5432851  78.7323006 126.9944682
  73.7215492  77.1835115 130.8470511  73.7033967  78.0043996 130.3550781
  74.6435412  77.0589191 131.0720653  70.1788546  74.6979245 131.6894020
  70.7116883  73.9367533 131.4593328  69.6502627  74.4052897 132.4318174
  73.3458241  59.8039311 127.2187662  73.0022510  60.6940952 127.1426772
  73.7137204  59.6140968 126.3557247  61.4144092  72.1272841 120.0376264
  62.2519314  72.5369850 119.8209971  61.5922359  71.1872283 120.0076458
  73.3108524  69.7947922 115.7260097  72.7955147  70.5652527 115.9648484
  73.0385832  69.1213058 116.3493158  70.8955635  64.6397623 120.7845335
  70.0397231  64.2504473 120.6050974  71.3082587  64.7189583 119.9245121
  72.4254781  62.1743966 125.1836895  71.9219577  62.1374101 124.3704700
  72.7185388  63.0836709 125.2433552  68.6697667  62.2582696 124.1903077
  69.5350664  62.0625504 123.8308966  68.7375176  62.0293047 125.1172433
  78.2842798  72.5480277 117.6613270  77.5072241  72.2091436 117.2168432
  78.9634279  72.5532900 116.9868235  73.0994827  67.6675014 117.5519878
  72.7944963  67.9821163 118.4030021  74.0525269  67.7456434 117.5947211
  71.5441259  73.8265237 119.2012832  71.0162620  73.0917997 118.8886069
  71.0428762  74.6039914 118.9552800  76.5234105  72.0214258 124.3179878
  75.8657779  72.7113519 124.4060007  77.3274504  72.4110690 124.6613865
  66.2759986  64.4884904 121.5619443  66.8503738  64.2660085 120.8292636
  66.8630969  64.5573598 122.3148045  75.3339564  70.3758630 122.3683820
  75.8471445  71.0088622 122.8705530  75.9840788  69.7759826 122.0027180
  66.6029574  66.5189365 115.5815329  65.7666886  66.8564051 115.9024603
  66.4634343  66.3838344 114.6442466  68.5782654  61.3626152 120.2894513
  67.9247066  61.0475170 119.6651128  68.5363128  60.7401893 121.0154336
  69.6893859  71.6445448 112.2047805  68.7820921  71.4134701 112.4038954
  70.1864891  70.8483067 112.3921786  72.5961938  80.3542955 115.1244491
  71.9223637  80.6574652 115.7329449  72.9827760  81.1572035 114.7749948
  71.8120395  67.8508086 124.6142160  70.8942956  68.0723033 124.4563849
  72.2280538  67.9254397 123.7553868  72.5955442  69.2499502 119.7444841
  73.3427261  69.7620899 119.4351963  72.8647032  68.9283554 120.6049234
  70.8682092  71.7458042 116.7271795  69.9593312  71.4617075 116.8244265
  70.8977176  72.1657121 115.8675102  76.1001360  75.3564632 120.4962963
  75.6463687  74.5155542 120.5528153  75.4695327  75.9926030 120.8337743
  75.0434279  66.2856618 121.7263630  74.3057036  65.7734004 122.0573873
  75.2961053  65.8457000 120.9146907  74.5434299  77.1941129 121.4312781
  74.8357273  77.7546186 120.7125146  75.0532920  77.4869690 122.1865940
  75.1445907  59.0632870 122.3205399  75.4504784  58.2030233 122.0331314
  75.8698512  59.6550490 122.1204393  61.4370263  69.4663557 120.7086997
  61.2394663  68.8732917 119.9838064  60.8816927  69.1615767 121.4262936
  69.4166986  69.3586663 122.8281590  69.4715596  68.4060499 122.7524067
  68.6058189  69.5146102 123.3122889  70.5658180  73.2866786 114.0659874
  70.1277610  72.5702645 113.6065511  71.3068621  73.5142901 113.5044965
  67.3559346  67.9763723 120.5871969  66.5427212  68.2757893 120.9937161
  67.8518341  67.5819412 121.3046451  69.5067924  77.9721480 122.5206234
  69.4644103  78.1982326 121.5914766  70.4230623  77.7384854 122.6692035
  72.9533558  68.4405547 129.4186863  73.3082946  68.6677020 130.2781329
  73.6005689  68.7723924 128.7964118  78.6831295  71.5623983 120.1236192
  78.5449194  71.7525579 119.1957381  78.3267514  72.3243366 120.5804243
  66.8473421  65.5482078 126.2033204  67.4872800  65.4070837 125.5056167
  66.0150952  65.2616592 125.8271806  78.7100675  73.6300510 125.1347464
  79.1437181  73.5375799 125.9830518  79.4232255  73.6058011 124.4967480
  67.6233725  74.8484509 122.3168197  68.4174324  74.3534829 122.1150772
  66.9125417  74.3202372 121.9535902  72.4428570  77.2302604 126.6680564
  72.4965592  77.7993541 127.4358280  71.5743351  77.4004489 126.3034601
  63.9316489  68.9927590 118.3927949  63.0014077  68.9312046 118.6097911
  64.0273961  68.4703543 117.5964591  63.8502038  65.5182403 120.9806191
  64.1108855  66.4327737 120.8715351  64.6719210  65.0506846 121.1302804
  65.3226963  66.9320160 128.1505015  65.9950016  66.7237523 127.5017664
  64.4956749  66.7342246 127.7110248  79.5716224  73.6724211 127.6680349
  79.7652114  74.5770021 127.9139624  79.4716842  73.2131630 128.5018934
  71.2252535  63.5582101 130.1670676  70.5780450  64.2572051 130.0735153
  71.9953550  63.9918245 130.5346925  74.6331333  73.8230954 133.2421230
  74.4816839  73.5941505 132.3251313  74.6236012  74.7801555 133.2552575
  71.4016669  71.3962866 128.2267496  72.3308729  71.5474026 128.0536463
  70.9807699  71.4846887 127.3716143  70.2005001  75.4213531 125.9966034
  70.0616087  75.0532315 126.8691972  69.4119597  75.9361170 125.8249992
  70.7953153  80.5222627 117.3391570  70.9704909  80.0510670 118.1537193
  70.1085941  81.1488393 117.5672831  71.7510216  74.7995133 123.3854871
  71.4160049  74.7595903 124.2812521  71.2514162  74.1339849 122.9125282
  65.7254460  70.2062763 128.9107453  65.5874258  69.4743002 129.5118992
  66.6359384  70.1171664 128.6291640  74.6869408  72.1451168 113.6591931
  74.0698579  71.4197996 113.5624984  74.2185896  72.9060528 113.3159005
  68.3536761  69.9182723 128.3991132  69.0636379  69.2775915 128.3577751
  68.3106069  70.1695618 129.3217313  76.3423540  76.8550076 131.3197712
  76.2836086  76.1709296 130.6528295  76.7443058  77.5969066 130.8678338
  67.0665695  66.9047941 130.2186772  66.5303052  66.4538679 130.8708368
  66.4782403  67.0393849 129.4757236  65.3614238  83.6711990 124.1131430
  65.6010837  84.3030514 124.7910449  64.5183435  83.3200030 124.3996790
  66.4767954  66.3636592 112.7813235  65.5997420  66.2425393 112.4175482
  66.9525707  65.5722670 112.5292124  76.3440947  74.8189660 129.5511691
  75.4567726  74.4815582 129.6738090  76.9139498  74.0872691 129.7880457
  57.9970094  71.1513752 122.8754743  58.6841134  70.8375482 122.2875758
  57.8418223  72.0555116 122.6021994  62.8004816  66.0403948 127.3039766
  62.7163005  65.4329618 126.5690176  61.9787522  66.5312967 127.3049263
  69.8742100  79.4791112 126.5172934  69.8012272  80.2846084 127.0292239
  69.4319493  79.6783078 125.6920956  69.6631880  78.7162882 120.0275756
  68.8799402  79.2584563 120.1213980  70.3624625  79.2336862 120.4269997
  72.9728530  64.5257512 122.6709961  73.4697229  63.7727474 122.3511032
  72.2015511  64.5621829 122.1053171  80.8258287  70.2297877 124.3128253
  80.8148164  71.1122593 123.9422186  79.9575667  69.8769428 124.1182790
  72.3340784  79.3777946 128.6731093  73.0468756  80.0125411 128.6006995
  71.8430812  79.4741812 127.8571095  74.0558311  73.2829199 120.2448385
  73.1214589  73.4030662 120.0753089  74.2334979  72.3801666 119.9808395
  69.5563499  66.6674895 122.3981646  69.1861286  66.1145935 123.0862552
  70.0522591  66.0633028 121.8456646  77.4430862  69.1246518 120.7798419
  77.9091314  69.9574510 120.7058722  77.8938362  68.6591500 121.4843677
  67.3852697  77.1272390 129.4936664  68.0862157  77.7608873 129.6466058
  66.9147812  77.4687121 128.7332303  75.5107093  75.4690340 117.7784571
  75.7866937  75.3546934 118.6878445  74.6411592  75.0707825 117.7396744
  75.4147525  61.4927105 124.8189320  74.5010605  61.7231332 124.9871527
  75.8440626  61.5765549 125.6703353  75.1853983  69.6816997 127.3189214
  74.5325433  69.9292905 126.6641667  75.5634363  68.8681136 126.9851692
  72.1461157  79.7176691 121.4217385  72.3283552  78.8998346 121.8845137
  72.9694143  79.9344383 120.9842275  72.4803323  78.6444876 118.6832433
  73.0091089  78.1337330 118.0702595  72.7431542  78.3287406 119.5477966
  71.2341556  70.4236808 133.8055251  70.5582193  70.3230938 134.4757627
  72.0569190  70.2676022 134.2691249  62.9820415  76.6608745 126.4267767
  63.5673852  75.9152433 126.5595671  62.7845254  76.9712702 127.3104430
  65.8359071  79.6959992 121.4430209  65.1669446  80.1806120 120.9594249
  65.6971940  79.9429213 122.3573587  57.5738070  69.2314345 125.1472210
  57.6122170  68.6977936 125.9409328  57.0678363  68.7049551 124.5283187
  69.9764339  81.7303736 128.0412867  70.5282647  81.8935357 128.8061953
  70.3170533  82.3208174 127.3692892  64.9528832  64.0778886 128.6434752
  65.0170159  64.9393717 128.2312150  64.8895953  63.4652887 127.9107111
  64.4281105  66.1502018 132.2907786  65.0553144  65.7679096 132.9045311
  63.5709024  65.9316220 132.6563479  74.8275213  76.5564993 133.8961522
  75.3715117  77.1694952 133.4016477  74.2462058  77.1144572 134.4128535
  61.2046648  67.9578447 118.2226141  61.5000089  67.0489126 118.1693195
  60.3034683  67.9366187 117.9007143  73.1132726  79.6785711 125.0276549
  72.9883866  78.8775451 124.5187495  73.7711818  80.1731905 124.5390519
  64.7340895  66.0334444 124.2053690  64.0127480  66.6470412 124.0661163
  65.5234150  66.5692209 124.1270336  75.1767635  77.4794731 126.6556100
  74.2297970  77.3600083 126.5834426  75.5250408  76.5917230 126.7382361
  67.5367208  63.3688870 130.4794341  68.0601610  63.6151167 131.2420651
  67.3179541  64.2008905 130.0597479  62.9334489  65.6392545 118.3465466
  62.6047195  64.7589924 118.1640572  63.2873860  65.5840214 119.2341855
  72.1814068  77.2747448 122.8560452  72.0339031  76.3464155 123.0368022
  73.0067562  77.2967538 122.3717527  66.0476312  65.9265515 118.7140944
  66.3872385  66.4551436 117.9919552  66.4948433  66.2645921 119.4899510
  75.7848190  78.0976006 123.9425325  76.7094737  77.8918868 123.8049776
  75.6163493  77.8492408 124.8514666  68.7419753  64.3102565 128.1644012
  68.4016574  63.5110379 128.5664692  68.0358759  64.6104276 127.5920845
  69.3936225  61.3951878 126.6171335  70.2162294  60.9212356 126.4950225
  69.6374289  62.1742362 127.1170021  68.0344460  64.4240136 116.9134237
  68.7552822  64.8021389 116.4097954  67.4109764  65.1429013 117.0169215
  72.1775582  65.1285285 117.8492569  72.3939197  66.0109923 117.5481397
  71.6969650  64.7371499 117.1198211  66.9174804  68.0870999 124.4263314
  66.7719384  68.4011302 125.3187595  66.4400007  68.7055899 123.8734212
  68.7771187  65.0773547 124.4744203  68.7632755  64.1814640 124.1376501
  69.4943615  65.0844210 125.1082489  70.6297317  65.5110887 126.5197331
  70.3715095  66.4327957 126.5181661  70.0982358  65.1141321 127.2097795
  75.5743506  78.6161674 119.2987416  75.7480384  78.0508096 118.5461268
  76.0672397  79.4162569 119.1166906  61.3920466  70.6276343 127.3650975
  60.8473934  71.4036151 127.4971249  62.2699816  70.9747147 127.2070096
  68.1808083  63.9587927 119.7431773  68.3023994  63.0304573 119.9422661
  67.8910125  63.9726613 118.8310089  71.0499273  61.6442837 122.8798493
  71.0720970  61.7082170 121.9250473  71.4667332  60.8047346 123.0738999
  81.4282897  71.3798097 120.9177716  81.8714043  70.6305422 120.5196839
  80.5509408  71.3708233 120.5351448  76.5618679  77.9328438 116.3984314
  77.2569583  78.5535131 116.6171629  76.9041829  77.0823789 116.6736692
  62.1786488  69.7546239 130.2581132  61.4368224  69.9028875 130.8445762
  61.8579232  70.0154505 129.3947881  78.4610102  75.3828144 117.9271645
  78.9861426  75.7215417 117.2020965  78.3732454  74.4475159 117.7434780
  70.1230150  79.2962217 130.0561522  70.4317277  79.0511364 130.9284221
  70.9205632  79.5008856 129.5680392  70.1450762  81.4500127 122.2866898
  69.7055753  80.9576506 122.9799755  70.8958879  80.9073095 122.0458973
  62.6243101  77.6411668 122.2891526  63.4501121  77.3415440 121.9090170
  62.2737153  76.8719290 122.7381315  67.5924635  76.9938136 124.3589200
  66.9704644  76.3308841 124.0591428  68.2629502  77.0199268 123.6762848
  60.8251707  75.5597994 123.2480460  59.9883615  75.1320169 123.0664461
  60.7975352  75.7530438 124.1851251  67.6649162  65.4719924 133.9521706
  67.7137318  66.3482047 133.5699476  68.2071676  64.9297317 133.3793349
  78.1504008  76.0161047 133.2322843  77.3599552  75.9985186 132.6927342
  77.9137362  76.5549341 133.9871880  78.2701883  72.8653514 130.5455572
  78.3199888  72.7003521 131.4871094  78.1615806  71.9980773 130.1553452
  67.1538142  75.5442060 117.8347660  67.3026262  76.2277524 117.1814333
  67.9604585  75.5247150 118.3497116  75.5605645  68.8484442 131.8614878
  76.4615508  68.7090907 131.5698876  75.6353620  69.0138897 132.8013056
  69.8948451  66.2251297 130.7068065  69.0251760  66.5184863 130.4350653
  70.1307931  66.8091742 131.4275328  79.7720080  75.2850455 130.7897593
  79.4804888  75.6480436 131.6261054  79.1592211  74.5717464 130.6110925
  80.9715762  72.8503335 123.3100163  81.8062653  73.2893139 123.4737724
  81.1074891  72.3741988 122.4908409  78.0207268  70.4083070 129.2577651
  78.4961390  70.6010716 128.4496502  77.0972833  70.4642256 129.0121035
  64.9090775  71.5707237 118.8408729  64.6636816  70.6669567 119.0388939
  65.0786689  71.5724388 117.8988207  72.5987484  62.4430914 128.2233485
  73.1169428  63.1791940 127.8979974  72.2442617  62.7494907 129.0580244
  64.1786422  67.3035595 116.3394891  63.4855667  67.3779950 115.6834927
  63.9338174  66.5395938 116.8616408  72.8500079  58.8631196 123.7434382
  73.1301832  58.1954385 124.3694808  73.6350686  59.0560292 123.2309045
  70.6533547  78.0390190 115.3059408  70.0807514  78.6580377 114.8529880
  71.2266341  78.5889552 115.8399330  76.7208937  67.2848830 127.4905957
  77.6726360  67.3846928 127.5118181  76.5512387  66.4927099 128.0004041
  74.7423316  64.3704413 127.6765358  74.1473249  64.6509426 126.9811846
  74.4573013  64.8598314 128.4482099  73.8730807  78.3227340 116.4367990
  74.8061480  78.2572902 116.6400866  73.7854020  79.1583607 115.9782523
  76.5018824  77.6393210 113.3971938  76.4232455  77.3053074 114.2907696
  77.3228490  78.1314978 113.3963410  79.1997015  70.5054950 126.6048256
  79.1673335  69.5670950 126.7907940  79.8097638  70.5838986 125.8714081
  71.0380346  69.3751003 112.6475460  71.9839450  69.2457211 112.7163878
  70.6594591  68.6365665 113.1244889  79.3491503  67.2965993 126.6506540
  78.8330552  66.5124450 126.4636468  80.2331452  66.9684710 126.8153059
  77.0102230  61.0407009 122.6102352  76.8127051  60.7322097 123.4945684
  77.6201936  61.7668648 122.7400282  85.0173565  71.5670957 125.7454293
  85.7476953  71.3056245 126.3061996  84.4080510  70.8299679 125.7856361
  83.0988862  69.7078819 126.3428744  82.3722025  69.5734784 125.7345236
  82.6836149  70.0155648 127.1485462  70.9219038  73.4268749 134.1076117
  71.8422048  73.6047348 134.3016164  70.8868621  72.4824794 133.9555817
  69.2223263  67.3000979 112.5830346  68.3154718  67.0034092 112.6593059
  69.4999244  67.0030797 111.7164632  60.1401203  68.6207343 123.0329392
  59.8203987  67.7672651 122.7403766  59.5934631  68.8355921 123.7887359
  63.9181111  71.3369784 126.7498899  64.1367120  72.2686891 126.7686932
  64.3306884  70.9777758 127.5353702  70.8385328  61.8437869 118.7374587
  70.0286057  61.4984954 119.1129833  71.5269745  61.5345413 119.3262198
  72.7675877  60.9215916 120.3598884  73.3206915  61.3411369 121.0188907
  73.0045963  59.9951664 120.4021840  68.7908976  66.9102989 136.1401647
  68.6905703  67.8597346 136.0713739  68.5730518  66.5821228 135.2677718
  67.9922047  64.1587914 112.7242325  68.8541211  64.4842813 112.9838142
  68.1772392  63.3719410 112.2115391  60.0089463  72.2410254 125.0022514
  59.3152935  71.8264207 124.4892468  60.7562454  72.2830791 124.4055932
  76.1454684  63.0316441 119.8677548  75.5653353  63.6901245 119.4855600
  75.8790617  62.2093785 119.4564965  74.5958250  62.4321498 122.0698868
  75.0958029  62.5438033 121.2613187  75.2393858  62.1282551 122.7099677
  68.6540246  70.3400128 134.9566709  68.1707328  71.1400488 135.1630598
  68.7401185  70.3508073 134.0034153  61.9226206  72.1728508 122.8788528
  61.8996894  72.2716195 121.9270412  62.2326842  73.0193659 123.2005695
  64.5813584  74.2304663 126.9935143  65.5356837  74.1988605 126.9265074
  64.3826107  73.7695287 127.8085369  65.1712966  72.8005779 129.5605941
  65.9905855  73.2949858 129.5840778  65.4449773  71.8837747 129.5323508
  74.9279562  65.1916531 118.9233896  74.0405417  65.4766182 118.7054091
  75.3433551  65.0310295 118.0761173  78.2794098  65.2163052 122.6388235
  79.0554488  65.7059505 122.9112852  77.5542232  65.6421106 123.0960105
  80.7166657  65.9290671 123.6962176  81.3111147  65.6886407 122.9855484
  80.7893240  65.2097802 124.3235712  62.9363812  79.7724282 124.0105341
  62.8018280  79.0124683 123.4443339  62.5195875  80.4965182 123.5434130
  74.0722775  74.9561206 113.0181916  74.7758625  75.1611208 113.6339572
  73.3485424  75.5237968 113.2831000  74.9020586  70.7071067 119.1384186
  74.8455787  71.1639619 118.2991819  75.4548928  69.9461752 118.9607029
  78.7125392  66.4960799 119.9634306  78.4562326  66.0957435 120.7942513
  78.0878260  67.2104593 119.8384445  83.0237729  69.2356872 122.4705597
  82.4637287  69.3050062 123.2437159  82.4181233  69.0597857 121.7505093
  66.0932938  80.6693599 124.2223783  65.9765322  81.6139032 124.1202474
  65.2725384  80.3667161 124.6109583  75.9809473  75.3943735 115.0680376
  76.8155077  74.9624934 114.8857851  75.8193816  75.2225749 115.9957271
  75.6355365  71.8975848 116.4336715  75.5804169  71.7320120 115.4925159
  75.0101420  72.6051881 116.5898905  60.4247880  67.1343913 130.2598138
  61.0706743  66.6242867 130.7485363  60.2165031  67.8712594 130.8341563
  72.9501272  74.2024760 135.7590278  73.8192432  74.3765412 135.3976913
  72.4708024  75.0219177 135.6366008  68.9451490  61.3983957 116.0122034
  68.9330160  62.3425797 116.1690305  69.8374912  61.2154103 115.7181495
  67.1187452  81.3221861 127.4379712  68.0214699  81.3545471 127.7546207
  66.8924822  80.3922312 127.4526048  68.8741054  80.0752848 124.0989790
  67.9236685  80.0754709 123.9854163  69.1773540  79.3285582 123.5825825
  72.7603610  57.9926734 120.2667971  71.9936006  57.4385221 120.4124653
  73.1714315  58.0648603 121.1282122  64.7645371  64.2811530 134.3573152
  65.6276832  63.9248335 134.5676476  64.1910782  63.9425425 135.0448556
  84.6093748  85.9113386 125.1635553  85.2472158  85.7920133 124.4598893
  84.4914591  86.8594230 125.2223505  81.4183454  85.8640814 125.0997078
  81.0801966  85.7481879 124.2117612  82.2873222  85.4631979 125.0798084
  77.2770270  87.7176291 121.0893968  76.7135135  87.6266228 120.3210256
  77.1622665  86.8976195 121.5696461  81.9003237  87.0175666 131.0583283
  81.8891878  86.6228464 130.1863787  82.0623877  86.2841739 131.6517054
  74.8234702  89.2127482 123.9278189  75.6155994  88.8718307 123.5124488
  75.0631352  89.3222457 124.8480342  82.8569829  91.3847258 116.4008433
  82.2057808  91.9701339 116.0142447  83.6514191  91.9153453 116.4603471
  76.7825456  88.4736396 116.7995568  77.5556332  87.9265383 116.6608444
  77.1350855  89.3380645 117.0110029  78.6210498  89.8012778 130.0062467
  78.3300364  90.7058409 129.8909133  79.2567483  89.8429305 130.7206537
  79.5466705  87.1789626 126.5963827  80.1430277  86.9545649 125.8820790
  79.6041677  86.4374372 127.1989275  79.1191733  84.6329062 114.4314018
  79.3717254  84.1110583 113.6697481  78.1816293  84.4695207 114.5340701
  84.1635016  83.6364840 122.2388761  84.9498106  83.2184263 121.8879178
  84.4273721  84.5410932 122.4070409  84.3345094  89.0737690 116.9377418
  83.6990927  89.1472317 117.6498322  84.0042500  89.6631289 116.2596497
  89.5643443  83.5740073 123.1421739  90.2968615  83.0039290 123.3759569
  88.8082799  83.1861674 123.5828245  78.8388022  86.5357168 116.6338393
  78.7224280  85.8602071 117.3019477  78.9490282  86.0489542 115.8170546
  81.1819563  85.9967315 120.3385082  80.8177770  85.4697936 121.0498003
  82.0386679  85.6065784 120.1651567  87.0868864  77.2861647 127.6016348
  86.7552189  78.1557058 127.3777563  86.4914477  76.9697931 128.2810378
  80.8225050  81.0257214 115.3346430  80.9899452  81.8937451 115.7016901
  80.6322219  81.1884496 114.4107720  83.5800383  89.4874193 127.0012261
  83.2801106  90.3899232 126.8928068  83.2351443  89.2206376 127.8533414
  77.0312865  85.9387990 123.0348965  76.1063361  85.8064204 123.2426657
  77.2797278  86.7182209 123.5318908  86.9797527  82.0056733 124.6809698
  86.0714404  81.9372142 124.3868459  86.9285123  82.4828678 125.5091524
  80.8014271  83.4814872 116.3193097  80.6813896  83.9271923 117.1578577
  80.1066859  83.8300190 115.7606635  74.3921676  85.5821264 123.8692754
  74.5214057  85.8355743 124.7832166  73.7119127  86.1748972 123.5497409
  78.5621163  96.2518514 119.9683228  78.4845193  97.2026339 120.0471709
  77.9582807  95.9064386 120.6258155  81.0538393  83.4246379 132.6244595
  80.2771727  83.9840299 132.6147460  81.6928956  83.9103162 133.1459465
  88.8459173  80.2073172 126.4587572  88.2033554  80.5005705 125.8127367
  88.3414102  80.0926092 127.2640769  86.4999337  83.9536345 117.1473431
  87.4117193  84.1863732 116.9721129  85.9908984  84.5373389 116.5848510
  79.3084765  86.2331832 132.1862562  80.0499450  86.7716876 131.9097386
  78.6021751  86.8598121 132.3434114  84.7840105  88.3760973 130.7834724
  85.1923461  87.9343383 130.0389356  84.0617366  87.8013600 131.0368917
  81.1371175  83.3133580 128.1568281  81.9832370  83.7372993 128.3002930
  81.0769813  82.6567204 128.8506844  85.1068919  88.9362164 124.5387013
  84.4777782  89.1007878 123.8363081  84.7194582  89.3503773 125.3097977
  88.9858151  89.8716601 121.8931376  88.3009190  90.2515503 121.3428410
  89.0702001  90.4811928 122.6263324  84.2870620  80.9737948 129.8149454
  84.0431552  81.7280009 129.2783730  84.5630551  81.3523296 130.6496701
  86.2409083  87.5176560 128.4926720  86.4525978  88.1608320 127.8161101
  86.1938831  86.6838877 128.0248650  83.8435312  80.1294381 125.3963292
  82.9819791  80.4275635 125.6880030  83.8697747  80.3464780 124.4644325
  80.6596881  88.6736572 121.8037098  81.1235227  88.9524275 121.0141720
  80.3953679  87.7720016 121.6210188  77.5520962  88.2208053 124.7416861
  78.1222319  88.6495322 124.1034346  78.1429074  87.9390638 125.4401047
  79.5965767  84.7959724 118.6126663  80.2989811  85.2480768 119.0800589
  79.2646396  84.1543543 119.2406556  78.0446129  83.3871481 132.9877872
  77.4144790  84.0687761 133.2213269  77.9382217  83.2754562 132.0431011
  73.3391101  83.0543277 123.9143796  72.5490155  83.3100805 123.4383907
  73.8302349  83.8691614 124.0195837  87.3554911  90.3948516 126.6649077
  88.1772355  89.9928703 126.3831759  87.3517314  90.2916750 127.6165193
  75.2905847  83.4187856 120.8727273  74.4937010  83.5306550 121.3910769
  75.0631439  83.7574508 120.0068164  81.1211514  89.9432559 128.8209788
  81.1855947  90.4052966 129.6567960  80.4122438  89.3129924 128.9492098
  71.6228804  83.3073767 126.3458787  71.8736843  84.1920777 126.6116363
  72.1588353  83.1278369 125.5733879  95.4460904  86.7387264 123.0134049
  94.6924612  86.1694662 122.8578053  95.5808445  86.7049929 123.9604683
  80.8359532  91.6100667 118.6888768  80.7005207  92.4552202 119.1173616
  81.3769345  91.8119944 117.9254702  77.3226872  77.6892246 135.3503123
  76.9293817  77.1358445 136.0250768  78.1393012  78.0002825 135.7409641
  74.2888929  89.1276105 119.2616693  74.8013450  89.9219355 119.4122258
  74.9411642  88.4302395 119.1950295  76.0983814  92.2441861 121.3439446
  76.2750442  93.1659826 121.1560430  76.8940648  91.9300280 121.7733826
  80.2394833  79.1050126 132.9423380  80.9804546  79.7057279 132.8627842
  80.4712755  78.3627763 132.3841422  75.3836171  84.2906493 131.2201610
  75.2689686  83.3891750 131.5208709  74.5280688  84.5370190 130.8686426
  82.4628008  92.2324233 132.8189110  82.0191863  91.4460612 132.5010015
  83.1245222  92.4203384 132.1533001  77.2215130  93.7620035 127.3449789
  77.7722555  93.6337098 126.5726783  76.3826605  94.0614924 126.9944682
  84.5609246  92.5127033 130.8470511  84.5427722  93.3335914 130.3550781
  85.4829167  92.3881108 131.0720653  81.0182301  90.0271163 131.6894020
  81.5510637  89.2659451 131.4593328  80.4896382  89.7344814 132.4318174
  84.1851996  75.1331228 127.2187662  83.8416265  76.0232870 127.1426772
  84.5530958  74.9432886 126.3557247  72.2537846  87.4564759 120.0376264
  73.0913068  87.8661767 119.8209971  72.4316114  86.5164201 120.0076458
  84.1502278  85.1239840 115.7260097  83.6348902  85.8944444 115.9648484
  83.8779587  84.4504976 116.3493158  81.7349389  79.9689540 120.7845335
  80.8790986  79.5796391 120.6050974  82.1476341  80.0481501 119.9245121
  83.2648536  77.5035884 125.1836895  82.7613332  77.4666019 124.3704700
  83.5579143  78.4128626 125.2433552  79.5091422  77.5874613 124.1903077
  80.3744419  77.3917422 123.8308966  79.5768931  77.3584965 125.1172433
  89.1236552  87.8772194 117.6613270  88.3465995  87.5383354 117.2168432
  89.8028033  87.8824817 116.9868235  83.9388581  82.9966932 117.5519878
  83.6338717  83.3113081 118.4030021  84.8919024  83.0748352 117.5947211
  82.3835013  89.1557155 119.2012832  81.8556375  88.4209915 118.8886069
  81.8822516  89.9331831 118.9552800  87.3627859  87.3506175 124.3179878
  86.7051534  88.0405437 124.4060007  88.1668259  87.7402607 124.6613865
  77.1153741  79.8176821 121.5619443  77.6897493  79.5952003 120.8292636
  77.7024723  79.8865516 122.3148045  86.1733318  85.7050548 122.3683820
  86.6865200  86.3380540 122.8705530  86.8234542  85.1051744 122.0027180
  77.4423328  81.8481282 115.5815329  76.6060640  82.1855969 115.9024603
  77.3028098  81.7130262 114.6442466  79.4176409  76.6918070 120.2894513
  78.7640821  76.3767087 119.6651128  79.3756883  76.0693811 121.0154336
  80.5287613  86.9737365 112.2047805  79.6214675  86.7426619 112.4038954
  81.0258645  86.1774985 112.3921786  83.4355692  95.6834872 115.1244491
  82.7617391  95.9866569 115.7329449  83.8221514  96.4863953 114.7749948
  82.6514149  83.1800004 124.6142160  81.7336710  83.4014951 124.4563849
  83.0674293  83.2546314 123.7553868  83.4349197  84.5791419 119.7444841
  84.1821016  85.0912817 119.4351963  83.7040786  84.2575472 120.6049234
  81.7075847  87.0749960 116.7271795  80.7987066  86.7908993 116.8244265
  81.7370931  87.4949039 115.8675102  86.9395114  90.6856550 120.4962963
  86.4857441  89.8447460 120.5528153  86.3089081  91.3217948 120.8337743
  85.8828034  81.6148536 121.7263630  85.1450791  81.1025922 122.0573873
  86.1354807  81.1748917 120.9146907  85.3828054  92.5233046 121.4312781
  85.6751028  93.0838103 120.7125146  85.8926674  92.8161607 122.1865940
  85.9839661  74.3924788 122.3205399  86.2898538  73.5322151 122.0331314
  86.7092266  74.9842408 122.1204393  72.2764017  84.7955474 120.7086997
  72.0788417  84.2024835 119.9838064  71.7210681  84.4907684 121.4262936
  80.2560741  84.6878581 122.8281590  80.3109351  83.7352417 122.7524067
  79.4451943  84.8438020 123.3122889  81.4051935  88.6158704 114.0659874
  80.9671365  87.8994563 113.6065511  82.1462376  88.8434819 113.5044965
  78.1953101  83.3055640 120.5871969  77.3820966  83.6049811 120.9937161
  78.6912095  82.9111329 121.3046451  80.3461679  93.3013397 122.5206234
  80.3037858  93.5274244 121.5914766  81.2624378  93.0676772 122.6692035
  83.7927313  83.7697465 129.4186863  84.1476700  83.9968938 130.2781329
  84.4399444  84.1015842 128.7964118  89.5225050  86.8915901 120.1236192
  89.3842948  87.0817497 119.1957381  89.1661268  87.6535284 120.5804243
  77.6867176  80.8773996 126.2033204  78.3266555  80.7362755 125.5056167
  76.8544706  80.5908509 125.8271806  89.5494429  88.9592428 125.1347464
  89.9830936  88.8667717 125.9830518  90.2626010  88.9349928 124.4967480
  78.4627480  90.1776426 122.3168197  79.2568078  89.6826747 122.1150772
  77.7519172  89.6494290 121.9535902  83.2822324  92.5594522 126.6680564
  83.3359346  93.1285458 127.4358280  82.4137105  92.7296407 126.3034601
  74.7710243  84.3219508 118.3927949  73.8407831  84.2603964 118.6097911
  74.8667715  83.7995461 117.5964591  74.6895792  80.8474321 120.9806191
  74.9502609  81.7619654 120.8715351  75.5112964  80.3798764 121.1302804
  76.1620717  82.2612078 128.1505015  76.8343771  82.0529440 127.5017664
  75.3350504  82.0634164 127.7110248  90.4109979  89.0016128 127.6680349
  90.6045869  89.9061939 127.9139624  90.3110597  88.5423548 128.5018934
  82.0646289  78.8874019 130.1670676  81.4174204  79.5863969 130.0735153
  82.8347305  79.3210163 130.5346925  85.4725087  89.1522871 133.2421230
  85.3210594  88.9233423 132.3251313  85.4629767  90.1093473 133.2552575
  82.2410424  86.7254784 128.2267496  83.1702484  86.8765944 128.0536463
  81.8201454  86.8138805 127.3716143  81.0398756  90.7505448 125.9966034
  80.9009841  90.3824233 126.8691972  80.2513352  91.2653088 125.8249992
  81.6346908  95.8514545 117.3391570  81.8098663  95.3802588 118.1537193
  80.9479696  96.4780311 117.5672831  82.5903971  90.1287051 123.3854871
  82.2553803  90.0887821 124.2812521  82.0907916  89.4631767 122.9125282
  76.5648215  85.5354681 128.9107453  76.4268013  84.8034920 129.5118992
  77.4753138  85.4463581 128.6291640  85.5263162  87.4743085 113.6591931
  84.9092333  86.7489914 113.5624984  85.0579651  88.2352446 113.3159005
  79.1930515  85.2474640 128.3991132  79.9030134  84.6067833 128.3577751
  79.1499823  85.4987535 129.3217313  87.1817294  92.1841994 131.3197712
  87.1229840  91.5001214 130.6528295  87.5836812  92.9260984 130.8678338
  77.9059449  82.2339858 130.2186772  77.3696806  81.7830597 130.8708368
  77.3176158  82.3685767 129.4757236  76.2007993  99.0003908 124.1131430
  76.4404591  99.6322432 124.7910449  75.3577189  98.6491948 124.3996790
  77.3161708  81.6928510 112.7813235  76.4391175  81.5717311 112.4175482
  77.7919461  80.9014588 112.5292124  87.1834701  90.1481578 129.5511691
  86.2961480  89.8107500 129.6738090  87.7533252  89.4164609 129.7880457
  68.8363848  86.4805669 122.8754743  69.5234888  86.1667399 122.2875758
  68.6811977  87.3847034 122.6021994  73.6398571  81.3695866 127.3039766
  73.5556759  80.7621536 126.5690176  72.8181277  81.8604884 127.3049263
  80.7135855  94.8083030 126.5172934  80.6406026  95.6138002 127.0292239
  80.2713248  95.0074996 125.6920956  80.5025634  94.0454800 120.0275756
  79.7193156  94.5876480 120.1213980  81.2018379  94.5628780 120.4269997
  83.8122284  79.8549430 122.6709961  84.3090984  79.1019392 122.3511032
  83.0409266  79.8913746 122.1053171  91.6652042  85.5589795 124.3128253
  91.6541918  86.4414511 123.9422186  90.7969421  85.2061346 124.1182790
  83.1734538  94.7069864 128.6731093  83.8862510  95.3417329 128.6006995
  82.6824567  94.8033730 127.8571095  84.8952065  88.6121117 120.2448385
  83.9608344  88.7322579 120.0753089  85.0728734  87.7093584 119.9808395
  80.3957253  81.9966813 122.3981646  80.0255041  81.4437853 123.0862552
  80.8916346  81.3924946 121.8456646  88.2824616  84.4538436 120.7798419
  88.7485069  85.2866428 120.7058722  88.7332117  83.9883418 121.4843677
  78.2246452  92.4564308 129.4936664  78.9255911  93.0900791 129.6466058
  77.7541567  92.7979039 128.7332303  86.3500848  90.7982257 117.7784571
  86.6260691  90.6838852 118.6878445  85.4805346  90.3999742 117.7396744
  86.2541279  76.8219023 124.8189320  85.3404359  77.0523250 124.9871527
  86.6834381  76.9057467 125.6703353  86.0247738  85.0108915 127.3189214
  85.3719188  85.2584822 126.6641667  86.4028118  84.1973053 126.9851692
  82.9854912  95.0468608 121.4217385  83.1677306  94.2290264 121.8845137
  83.8087898  95.2636300 120.9842275  83.3197077  93.9736793 118.6832433
  83.8484844  93.4629248 118.0702595  83.5825297  93.6579324 119.5477966
  82.0735311  85.7528726 133.8055251  81.3975948  85.6522855 134.4757627
  82.8962945  85.5967940 134.2691249  73.8214170  91.9900663 126.4267767
  74.4067607  91.2444351 126.5595671  73.6239008  92.3004619 127.3104430
  76.6752825  95.0251910 121.4430209  76.0063200  95.5098038 120.9594249
  76.5365695  95.2721130 122.3573587  68.4131825  84.5606263 125.1472210
  68.4515924  84.0269854 125.9409328  67.9072117  84.0341468 124.5283187
  80.8158094  97.0595654 128.0412867  81.3676402  97.2227275 128.8061953
  81.1564287  97.6500091 127.3692892  75.7922587  79.4070803 128.6434752
  75.8563913  80.2685634 128.2312150  75.7289707  78.7944805 127.9107111
  75.2674859  81.4793936 132.2907786  75.8946898  81.0971013 132.9045311
  74.4102778  81.2608138 132.6563479  85.6668968  91.8856911 133.8961522
  86.2108872  92.4986869 133.4016477  85.0855813  92.4436489 134.4128535
  72.0440402  83.2870365 118.2226141  72.3393843  82.3781043 118.1693195
  71.1428438  83.2658104 117.9007143  83.9526481  95.0077629 125.0276549
  83.8277620  94.2067369 124.5187495  84.6105572  95.5023822 124.5390519
  75.5734649  81.3626362 124.2053690  74.8521235  81.9762329 124.0661163
  76.3627905  81.8984126 124.1270336  86.0161389  92.8086649 126.6556100
  85.0691725  92.6892000 126.5834426  86.3644162  91.9209147 126.7382361
  78.3760963  78.6980788 130.4794341  78.8995364  78.9443085 131.2420651
  78.1573296  79.5300823 130.0597479  73.7728244  80.9684463 118.3465466
  73.4440950  80.0881842 118.1640572  74.1267614  80.9132131 119.2341855
  83.0207823  92.6039365 122.8560452  82.8732785  91.6756073 123.0368022
  83.8461316  92.6259456 122.3717527  76.8870067  81.2557432 118.7140944
  77.2266139  81.7843354 117.9919552  77.3342187  81.5937839 119.4899510
  86.6241944  93.4267924 123.9425325  87.5488492  93.2210785 123.8049776
  86.4557248  93.1784325 124.8514666  79.5813508  79.6394483 128.1644012
  79.2410328  78.8402296 128.5664692  78.8752514  79.9396194 127.5920845
  80.2329979  76.7243796 126.6171335  81.0556049  76.2504274 126.4950225
  80.4768043  77.5034279 127.1170021  78.8738214  79.7532054 116.9134237
  79.5946576  80.1313307 116.4097954  78.2503518  80.4720931 117.0169215
  83.0169337  80.4577203 117.8492569  83.2332951  81.3401841 117.5481397
  82.5363404  80.0663416 117.1198211  77.7568558  83.4162916 124.4263314
  77.6113139  83.7303219 125.3187595  77.2793762  84.0347817 123.8734212
  79.6164941  80.4065464 124.4744203  79.6026510  79.5106558 124.1376501
  80.3337369  80.4136128 125.1082489  81.4691072  80.8402804 126.5197331
  81.2108850  81.7619875 126.5181661  80.9376112  80.4433239 127.2097795
  86.4137261  93.9453592 119.2987416  86.5874138  93.3800014 118.5461268
  86.9066152  94.7454486 119.1166906  72.2314220  85.9568261 127.3650975
  71.6867688  86.7328069 127.4971249  73.1093570  86.3039065 127.2070096
  79.0201837  79.2879844 119.7431773  79.1417748  78.3596491 119.9422661
  78.7303879  79.3018530 118.8310089  81.8893027  76.9734755 122.8798493
  81.9114724  77.0374088 121.9250473  82.3061086  76.1339264 123.0738999
  92.2676652  86.7090014 120.9177716  92.7107798  85.9597340 120.5196839
  91.3903162  86.7000151 120.5351448  87.4012433  93.2620356 116.3984314
  88.0963338  93.8827049 116.6171629  87.7435583  92.4115707 116.6736692
  73.0180242  85.0838157 130.2581132  72.2761978  85.2320792 130.8445762
  72.6972987  85.3446423 129.3947881  89.3003856  90.7120061 117.9271645
  89.8255180  91.0507334 117.2020965  89.2126209  89.7767077 117.7434780
  80.9623905  94.6254135 130.0561522  81.2711031  94.3803282 130.9284221
  81.7599387  94.8300774 129.5680392  80.9844517  96.7792045 122.2866898
  80.5449507  96.2868423 122.9799755  81.7352634  96.2365012 122.0458973
  73.4636856  92.9703586 122.2891526  74.2894876  92.6707357 121.9090170
  73.1130908  92.2011208 122.7381315  78.4318389  92.3230054 124.3589200
  77.8098398  91.6600759 124.0591428  79.1023256  92.3491186 123.6762848
  71.6645461  90.8889912 123.2480460  70.8277369  90.4612086 123.0664461
  71.6369106  91.0822355 124.1851251  78.5042917  80.8011842 133.9521706
  78.5531072  81.6773965 133.5699476  79.0465431  80.2589235 133.3793349
  88.9897762  91.3452965 133.2322843  88.1993306  91.3277104 132.6927342
  88.7531117  91.8841259 133.9871880  89.1095637  88.1945431 130.5455572
  89.1593642  88.0295439 131.4871094  89.0009561  87.3272691 130.1553452
  77.9931896  90.8733977 117.8347660  78.1420016  91.5569442 117.1814333
  78.7998339  90.8539067 118.3497116  86.3999400  84.1776360 131.8614878
  87.3009262  84.0382824 131.5698876  86.4747374  84.3430814 132.8013056
  80.7342205  81.5543214 130.7068065  79.8645514  81.8476780 130.4350653
  80.9701685  82.1383659 131.4275328  90.6113834  90.6142373 130.7897593
  90.3198642  90.9772354 131.6261054  89.9985965  89.9009381 130.6110925
  91.8109516  88.1795253 123.3100163  92.6456408  88.6185057 123.4737724
  91.9468645  87.7033906 122.4908409  88.8601022  85.7374988 129.2577651
  89.3355144  85.9302634 128.4496502  87.9366588  85.7934173 129.0121035
  75.7484529  86.8999155 118.8408729  75.5030571  85.9961485 119.0388939
  75.9180444  86.9016305 117.8988207  83.4381239  77.7722831 128.2233485
  83.9563183  78.5083858 127.8979974  83.0836372  78.0786824 129.0580244
  75.0180177  82.6327512 116.3394891  74.3249421  82.7071867 115.6834927
  74.7731928  81.8687856 116.8616408  83.6893833  74.1923114 123.7434382
  83.9695587  73.5246303 124.3694808  84.4744440  74.3852209 123.2309045
  81.4927302  93.3682108 115.3059408  80.9201269  93.9872295 114.8529880
  82.0660095  93.9181469 115.8399330  87.5602691  82.6140748 127.4905957
  88.5120114  82.7138845 127.5118181  87.3906142  81.8219016 128.0004041
  85.5817071  79.6996331 127.6765358  84.9867003  79.9801344 126.9811846
  85.2966768  80.1890232 128.4482099  84.7124561  93.6519258 116.4367990
  85.6455234  93.5864819 116.6400866  84.6247774  94.4875525 115.9782523
  90.0390769  85.8346867 126.6048256  90.0067089  84.8962868 126.7907940
  90.6491393  85.9130904 125.8714081  81.8774100  84.7042920 112.6475460
  82.8233205  84.5749128 112.7163878  81.4988345  83.9657582 113.1244889
  90.1885258  82.6257911 126.6506540  89.6724306  81.8416367 126.4636468
  91.0725206  82.2976627 126.8153059  87.8495985  76.3698926 122.6102352
  87.6520806  76.0614015 123.4945684  88.4595690  77.0960565 122.7400282
  95.8567319  86.8962874 125.7454293  96.5870708  86.6348162 126.3061996
  95.2474265  86.1591596 125.7856361  93.9382616  85.0370737 126.3428744
  93.2115780  84.9026702 125.7345236  93.5229903  85.3447565 127.1485462
  81.7612793  88.7560667 134.1076117  82.6815802  88.9339266 134.3016164
  81.7262376  87.8116712 133.9555817  80.0617017  82.6292897 112.5830346
  79.1548473  82.3326009 112.6593059  80.3392998  82.3322715 111.7164632
  70.9794958  83.9499260 123.0329392  70.6597742  83.0964568 122.7403766
  70.4328386  84.1647838 123.7887359  74.7574865  86.6661701 126.7498899
  74.9760875  87.5978809 126.7686932  75.1700639  86.3069676 127.5353702
  81.6779083  77.1729786 118.7374587  80.8679811  76.8276871 119.1129833
  82.3663500  76.8637330 119.3262198  83.6069631  76.2507833 120.3598884
  84.1600670  76.6703287 121.0188907  83.8439718  75.3243581 120.4021840
  79.6302730  82.2394907 136.1401647  79.5299457  83.1889264 136.0713739
  79.4124273  81.9113146 135.2677718  78.8315802  79.4879832 112.7242325
  79.6934966  79.8134730 112.9838142  79.0166146  78.7011328 112.2115391
  70.8483218  87.5702172 125.0022514  70.1546689  87.1556124 124.4892468
  71.5956209  87.6122708 124.4055932  86.9848438  78.3608358 119.8677548
  86.4047107  79.0193162 119.4855600  86.7184371  77.5385703 119.4564965
  85.4352005  77.7613416 122.0698868  85.9351783  77.8729951 121.2613187
  86.0787613  77.4574469 122.7099677  79.4934001  85.6692046 134.9566709
  79.0101082  86.4692406 135.1630598  79.5794940  85.6799991 134.0034153
  72.7619960  87.5020425 122.8788528  72.7390648  87.6008113 121.9270412
  73.0720597  88.3485576 123.2005695  75.4207338  89.5596580 126.9935143
  76.3750592  89.5280523 126.9265074  75.2219862  89.0987204 127.8085369
  76.0106720  88.1297697 129.5605941  76.8299609  88.6241775 129.5840778
  76.2843528  87.2129665 129.5323508  85.7673316  80.5208449 118.9233896
  84.8799171  80.8058099 118.7054091  86.1827305  80.3602212 118.0761173
  89.1187852  80.5454970 122.6388235  89.8948243  81.0351422 122.9112852
  88.3935987  80.9713024 123.0960105  91.5560411  81.2582589 123.6962176
  92.1504902  81.0178325 122.9855484  91.6286995  80.5389720 124.3235712
  73.7757567  95.1016200 124.0105341  73.6412035  94.3416601 123.4443339
  73.3589629  95.8257100 123.5434130  84.9116530  90.2853123 113.0181916
  85.6152380  90.4903126 113.6339572  84.1879179  90.8529885 113.2831000
  85.7414340  86.0362985 119.1384186  85.6849541  86.4931536 118.2991819
  86.2942683  85.2753669 118.9607029  89.5519146  81.8252717 119.9634306
  89.2956080  81.4249352 120.7942513  88.9272014  82.5396511 119.8384445
  93.8631484  84.5648790 122.4705597  93.3031042  84.6341979 123.2437159
  93.2574987  84.3889774 121.7505093  76.9326693  95.9985517 124.2223783
  76.8159077  96.9430949 124.1202474  76.1119139  95.6959079 124.6109583
  86.8203227  90.7235653 115.0680376  87.6548831  90.2916851 114.8857851
  86.6587570  90.5517666 115.9957271  86.4749119  87.2267766 116.4336715
  86.4197923  87.0612037 115.4925159  85.8495175  87.9343799 116.5898905
  71.2641634  82.4635830 130.2598138  71.9100498  81.9534784 130.7485363
  71.0558785  83.2004512 130.8341563  83.7895027  89.5316678 135.7590278
  84.6586186  89.7057330 135.3976913  83.3101778  90.3511095 135.6366008
  79.7845245  76.7275875 116.0122034  79.7723915  77.6717715 116.1690305
  80.6768667  76.5446020 115.7181495  77.9581207  96.6513779 127.4379712
  78.8608453  96.6837389 127.7546207  77.7318577  95.7214230 127.4526048
  79.7134809  95.4044765 124.0989790  78.7630440  95.4046627 123.9854163
  80.0167295  94.6577500 123.5825825  83.5997364  73.3218652 120.2667971
  82.8329760  72.7677138 120.4124653  84.0108069  73.3940520 121.1282122
  75.6039125  79.6103447 134.3573152  76.4670587  79.2540252 134.5676476
  75.0304536  79.2717342 135.0448556  95.4487502 101.2405304 125.1635553
  96.0865912 101.1212051 124.4598893  95.3308345 102.1886148 125.2223505
  92.2577209 101.1932732 125.0997078  91.9195720 101.0773797 124.2117612
  93.1266977 100.7923897 125.0798084  88.1164024 103.0468208 121.0893968
  87.5528889 102.9558145 120.3210256  88.0016419 102.2268113 121.5696461
  85.6628456 104.5419400 123.9278189  86.4549748 104.2010225 123.5124488
  85.9025106 104.6514375 124.8480342  93.6963583 106.7139176 116.4008433
  93.0451563 107.2993256 116.0142447  94.4907946 107.2445371 116.4603471
  87.6219210 103.8028313 116.7995568  88.3950086 103.2557300 116.6608444
  87.9744609 104.6672563 117.0110029  90.3860460 102.5081544 126.5963827
  90.9824032 102.2837566 125.8820790  90.4435431 101.7666289 127.1989275
  89.9585488  99.9620979 114.4314018  90.2111009  99.4402501 113.6697481
  89.0210047  99.7987125 114.5340701  95.0028771  98.9656758 122.2388761
  95.7891860  98.5476181 121.8879178  95.2667475  99.8702850 122.4070409
  95.1738848 104.4029608 116.9377418  94.5384681 104.4764234 117.6498322
  94.8436255 104.9923207 116.2596497 100.4037198  98.9031991 123.1421739
 101.1362370  98.3331208 123.3759569  99.6476554  98.5153591 123.5828245
  89.6781777 101.8649085 116.6338393  89.5618035 101.1893989 117.3019477
  89.7884037 101.3781459 115.8170546  92.0213318 101.3259232 120.3385082
  91.6571525 100.7989853 121.0498003  92.8780434 100.9357701 120.1651567
  97.9262618  92.6153565 127.6016348  97.5945943  93.4848976 127.3777563
  97.3308232  92.2989849 128.2810378  91.6618805  96.3549132 115.3346430
  91.8293207  97.2229368 115.7016901  91.4715974  96.5176414 114.4107720
  94.4194138 104.8166111 127.0012261  94.1194861 105.7191150 126.8928068
  94.0745197 104.5498294 127.8533414  87.8706619 101.2679908 123.0348965
  86.9457116 101.1356122 123.2426657  88.1191032 102.0474127 123.5318908
  97.8191282  97.3348651 124.6809698  96.9108159  97.2664060 124.3868459
  97.7678877  97.8120596 125.5091524  91.6408025  98.8106790 116.3193097
  91.5207651  99.2563840 117.1578577  90.9460614  99.1592107 115.7606635
  85.2315430 100.9113181 123.8692754  85.3607811 101.1647660 124.7832166
  84.5512882 101.5040889 123.5497409  89.4014918 111.5810431 119.9683228
  89.3238947 112.5318256 120.0471709  88.7976561 111.2356304 120.6258155
  99.6852928  95.5365090 126.4587572  99.0427308  95.8297623 125.8127367
  99.1807857  95.4218010 127.2640769  97.3393092  99.2828263 117.1473431
  98.2510948  99.5155649 116.9721129  96.8302739  99.8665307 116.5848510
  91.9764929  98.6425497 128.1568281  92.8226125  99.0664911 128.3002930
  91.9163567  97.9859122 128.8506844  95.9462674 104.2654081 124.5387013
  95.3171536 104.4299795 123.8363081  95.5588336 104.6795691 125.3097977
  99.8251906 105.2008519 121.8931376  99.1402944 105.5807420 121.3428410
  99.9095755 105.8103846 122.6263324  95.1264375  96.3029866 129.8149454
  94.8825307  97.0571926 129.2783730  95.4024305  96.6815213 130.6496701
  94.6829066  95.4586299 125.3963292  93.8213545  95.7567552 125.6880030
  94.7091501  95.6756698 124.4644325  91.4990636 104.0028489 121.8037098
  91.9628981 104.2816192 121.0141720  91.2347434 103.1011934 121.6210188
  88.3914717 103.5499971 124.7416861  88.9616074 103.9787239 124.1034346
  88.9822829 103.2682556 125.4401047  90.4359522 100.1251642 118.6126663
  91.1383565 100.5772685 119.0800589  90.1040150  99.4835461 119.2406556
  88.8839883  98.7163398 132.9877872  88.2538544  99.3979679 133.2213269
  88.7775971  98.6046480 132.0431011  84.1784856  98.3835194 123.9143796
  83.3883910  98.6392723 123.4383907  84.6696103  99.1983532 124.0195837
  86.1299601  98.7479774 120.8727273  85.3330765  98.8598468 121.3910769
  85.9025193  99.0866426 120.0068164  82.4622559  98.6365685 126.3458787
  82.7130597  99.5212695 126.6116363  82.9982107  98.4570286 125.5733879
 106.2854658 102.0679182 123.0134049 105.5318367 101.4986580 122.8578053
 106.4202200 102.0341846 123.9604683  91.6753286 106.9392584 118.6888768
  91.5398961 107.7844120 119.1173616  92.2163099 107.1411862 117.9254702
  88.1620626  93.0184164 135.3503123  87.7687572  92.4650363 136.0250768
  88.9786766  93.3294743 135.7409641  85.1282684 104.4568022 119.2616693
  85.6407204 105.2511273 119.4122258  85.7805397 103.7594313 119.1950295
  86.9377569 107.5733779 121.3439446  87.1144197 108.4951743 121.1560430
  87.7334402 107.2592198 121.7733826  91.0788587  94.4342043 132.9423380
  91.8198301  95.0349196 132.8627842  91.3106510  93.6919681 132.3841422
  86.2229925  99.6198410 131.2201610  86.1083440  98.7183668 131.5208709
  85.3674443  99.8662107 130.8686426  88.0608884 109.0911952 127.3449789
  88.6116309 108.9629016 126.5726783  87.2220360 109.3906841 126.9944682
  95.0245750  90.4623146 127.2187662  94.6810019  91.3524788 127.1426772
  95.3924713  90.2724804 126.3557247  83.0931601 102.7856677 120.0376264
  83.9306823 103.1953685 119.8209971  83.2709868 101.8456119 120.0076458
  94.9896033 100.4531757 115.7260097  94.4742656 101.2236362 115.9648484
  94.7173341  99.7796893 116.3493158  92.5743144  95.2981458 120.7845335
  91.7184740  94.9088308 120.6050974  92.9870096  95.3773419 119.9245121
  94.1042290  92.8327801 125.1836895  93.6007086  92.7957936 124.3704700
  94.3972897  93.7420544 125.2433552  90.3485176  92.9166531 124.1903077
  91.2138173  92.7209340 123.8308966  90.4162685  92.6876883 125.1172433
  99.9630307 103.2064112 117.6613270  99.1859750 102.8675271 117.2168432
 100.6421788 103.2116735 116.9868235  94.7782336  98.3258849 117.5519878
  94.4732472  98.6404999 118.4030021  95.7312778  98.4040269 117.5947211
  93.2228768 104.4849073 119.2012832  92.6950129 103.7501832 118.8886069
  92.7216271 105.2623749 118.9552800  98.2021614 102.6798093 124.3179878
  97.5445288 103.3697355 124.4060007  99.0062013 103.0694525 124.6613865
  87.9547495  95.1468739 121.5619443  88.5291247  94.9243920 120.8292636
  88.5418478  95.2157433 122.3148045  97.0127073 101.0342466 122.3683820
  97.5258954 101.6672458 122.8705530  97.6628297 100.4343661 122.0027180
  88.2817083  97.1773200 115.5815329  87.4454395  97.5147887 115.9024603
  88.1421852  97.0422180 114.6442466  90.2570163  92.0209988 120.2894513
  89.6034575  91.7059005 119.6651128  90.2150637  91.3985728 121.0154336
  91.3681368 102.3029283 112.2047805  90.4608430 102.0718536 112.4038954
  91.8652400 101.5066902 112.3921786  94.2749447 111.0126790 115.1244491
  93.6011146 111.3158487 115.7329449  94.6615269 111.8155870 114.7749948
  93.4907903  98.5091921 124.6142160  92.5730465  98.7306868 124.4563849
  93.9068047  98.5838232 123.7553868  94.2742951  99.9083337 119.7444841
  95.0214770 100.4204734 119.4351963  94.5434541  99.5867390 120.6049234
  92.5469601 102.4041878 116.7271795  91.6380821 102.1200911 116.8244265
  92.5764685 102.8240956 115.8675102  97.7788869 106.0148467 120.4962963
  97.3251196 105.1739377 120.5528153  97.1482836 106.6509866 120.8337743
  96.7221788  96.9440453 121.7263630  95.9844545  96.4317840 122.0573873
  96.9748562  96.5040835 120.9146907  96.2221808 107.8524964 121.4312781
  96.5144782 108.4130021 120.7125146  96.7320429 108.1453525 122.1865940
  96.8233416  89.7216705 122.3205399  97.1292293  88.8614069 122.0331314
  97.5486021  90.3134326 122.1204393  83.1157772 100.1247392 120.7086997
  82.9182172  99.5316753 119.9838064  82.5604436  99.8199602 121.4262936
  91.0954495 100.0170498 122.8281590  91.1503105  99.0644335 122.7524067
  90.2845697 100.1729937 123.3122889  92.2445689 103.9450621 114.0659874
  91.8065119 103.2286480 113.6065511  92.9856130 104.1726736 113.5044965
  89.0346855  98.6347558 120.5871969  88.2214721  98.9341729 120.9937161
  89.5305850  98.2403247 121.3046451  91.1855433 108.6305315 122.5206234
  91.1431612 108.8566161 121.5914766  92.1018132 108.3968690 122.6692035
  94.6321067  99.0989383 129.4186863  94.9870455  99.3260856 130.2781329
  95.2793198  99.4307759 128.7964118 100.3618804 102.2207819 120.1236192
 100.2236703 102.4109414 119.1957381 100.0055023 102.9827201 120.5804243
  88.5260930  96.2065914 126.2033204  89.1660309  96.0654673 125.5056167
  87.6938461  95.9200427 125.8271806  89.3021234 105.5068344 122.3168197
  90.0961833 105.0118664 122.1150772  88.5912926 104.9786207 121.9535902
  85.6103998  99.6511426 118.3927949  84.6801586  99.5895881 118.6097911
  85.7061470  99.1287379 117.5964591  85.5289547  96.1766239 120.9806191
  85.7896364  97.0911572 120.8715351  86.3506719  95.7090681 121.1302804
  87.0014472  97.5903996 128.1505015  87.6737525  97.3821358 127.5017664
  86.1744258  97.3926082 127.7110248  92.9040044  94.2165937 130.1670676
  92.2567959  94.9155886 130.0735153  93.6741059  94.6502081 130.5346925
  93.0804178 102.0546702 128.2267496  94.0096238 102.2057861 128.0536463
  92.6595208 102.1430722 127.3716143  91.8792510 106.0797366 125.9966034
  91.7403596 105.7116150 126.8691972  91.0907106 106.5945006 125.8249992
  92.4740662 111.1806463 117.3391570  92.6492418 110.7094506 118.1537193
  91.7873450 111.8072229 117.5672831  93.4297725 105.4578969 123.3854871
  93.0947558 105.4179739 124.2812521  92.9301671 104.7923685 122.9125282
  87.4041969 100.8646599 128.9107453  87.2661767 100.1326838 129.5118992
  88.3146893 100.7755499 128.6291640  96.3656917 102.8035003 113.6591931
  95.7486087 102.0781831 113.5624984  95.8973405 103.5644363 113.3159005
  90.0324270 100.5766558 128.3991132  90.7423888  99.9359750 128.3577751
  89.9893578 100.8279453 129.3217313  88.7453204  97.5631776 130.2186772
  88.2090561  97.1122514 130.8708368  88.1569912  97.6977685 129.4757236
  79.6757603 101.8097587 122.8754743  80.3628643 101.4959317 122.2875758
  79.5205732 102.7138952 122.6021994  84.4792325  96.6987784 127.3039766
  84.3950514  96.0913453 126.5690176  83.6575031  97.1896802 127.3049263
  91.3419389 109.3746718 120.0275756  90.5586911 109.9168398 120.1213980
  92.0412134 109.8920697 120.4269997  94.6516039  95.1841347 122.6709961
  95.1484738  94.4311310 122.3511032  93.8803020  95.2205664 122.1053171
 102.5045796 100.8881713 124.3128253 102.4935673 101.7706428 123.9422186
 101.6363176 100.5353264 124.1182790  95.7345820 103.9413034 120.2448385
  94.8002098 104.0614497 120.0753089  95.9122488 103.0385501 119.9808395
  91.2351008  97.3258730 122.3981646  90.8648795  96.7729771 123.0862552
  91.7310100  96.7216864 121.8456646  99.1218371  99.7830354 120.7798419
  99.5878823 100.6158345 120.7058722  99.5725871  99.3175335 121.4843677
  97.1894602 106.1274175 117.7784571  97.4654446 106.0130770 118.6878445
  96.3199101 105.7291660 117.7396744  97.0935034  92.1510941 124.8189320
  96.1798113  92.3815168 124.9871527  97.5228135  92.2349385 125.6703353
  96.8641492 100.3400833 127.3189214  96.2112942 100.5876740 126.6641667
  97.2421872  99.5264971 126.9851692  93.8248666 110.3760526 121.4217385
  94.0071061 109.5582182 121.8845137  94.6481652 110.5928218 120.9842275
  94.1590832 109.3028711 118.6832433  94.6878598 108.7921166 118.0702595
  94.4219051 108.9871241 119.5477966  84.6607924 107.3192580 126.4267767
  85.2461361 106.5736268 126.5595671  84.4632763 107.6296537 127.3104430
  87.5146580 110.3543828 121.4430209  86.8456955 110.8389955 120.9594249
  87.3759449 110.6013048 122.3573587  79.2525579  99.8898181 125.1472210
  79.2909679  99.3561771 125.9409328  78.7465872  99.3633386 124.5283187
  86.6316341  94.7362721 128.6434752  86.6957668  95.5977552 128.2312150
  86.5683462  94.1236723 127.9107111  86.1068614  96.8085854 132.2907786
  86.7340653  96.4262931 132.9045311  85.2496533  96.5900055 132.6563479
  82.8834157  98.6162283 118.2226141  83.1787598  97.7072961 118.1693195
  81.9822192  98.5950022 117.9007143  86.4128404  96.6918279 124.2053690
  85.6914989  97.3054247 124.0661163  87.2021659  97.2276044 124.1270336
  89.2154717  94.0272706 130.4794341  89.7389119  94.2735002 131.2420651
  88.9967050  94.8592741 130.0597479  84.6121998  96.2976380 118.3465466
  84.2834704  95.4173759 118.1640572  84.9661369  96.2424049 119.2341855
  93.8601577 107.9331283 122.8560452  93.7126539 107.0047990 123.0368022
  94.6855071 107.9551374 122.3717527  87.7263821  96.5849350 118.7140944
  88.0659894  97.1135271 117.9919552  88.1735942  96.9229756 119.4899510
  90.4207262  94.9686401 128.1644012  90.0804083  94.1694214 128.5664692
  89.7146268  95.2688112 127.5920845  91.0723734  92.0535713 126.6171335
  91.8949803  91.5796191 126.4950225  91.3161798  92.8326197 127.1170021
  89.7131968  95.0823972 116.9134237  90.4340331  95.4605224 116.4097954
  89.0897273  95.8012849 117.0169215  93.8563091  95.7869121 117.8492569
  94.0726706  96.6693759 117.5481397  93.3757159  95.3955334 117.1198211
  88.5962313  98.7454834 124.4263314  88.4506893  99.0595137 125.3187595
  88.1187516  99.3639734 123.8734212  90.4558696  95.7357382 124.4744203
  90.4420264  94.8398475 124.1376501  91.1731124  95.7428046 125.1082489
  92.3084826  96.1694722 126.5197331  92.0502604  97.0911793 126.5181661
  91.7769867  95.7725157 127.2097795  97.2531015 109.2745509 119.2987416
  97.4267893 108.7091932 118.5461268  97.7459906 110.0746404 119.1166906
  83.0707975 101.2860178 127.3650975  82.5261443 102.0619986 127.4971249
  83.9487325 101.6330983 127.2070096  89.8595592  94.6171762 119.7431773
  89.9811503  93.6888408 119.9422661  89.5697634  94.6310448 118.8310089
  92.7286782  92.3026673 122.8798493  92.7508479  92.3666006 121.9250473
  93.1454841  91.4631181 123.0738999 103.1070406 102.0381932 120.9177716
 103.5501552 101.2889257 120.5196839 102.2296917 102.0292069 120.5351448
  98.2406188 108.5912274 116.3984314  98.9357092 109.2118966 116.6171629
  98.5829338 107.7407625 116.6736692  83.8573997 100.4130075 130.2581132
  83.1155733 100.5612710 130.8445762  83.5366741 100.6738340 129.3947881
 100.1397611 106.0411979 117.9271645 100.6648935 106.3799252 117.2020965
 100.0519963 105.1058994 117.7434780  91.8238271 112.1083962 122.2866898
  91.3843262 111.6160341 122.9799755  92.5746388 111.5656930 122.0458973
  84.3030610 108.2995503 122.2891526  85.1288630 107.9999275 121.9090170
  83.9524662 107.5303126 122.7381315  89.2712144 107.6521972 124.3589200
  88.6492153 106.9892677 124.0591428  89.9417011 107.6783103 123.6762848
  82.5039215 106.2181830 123.2480460  81.6671124 105.7904004 123.0664461
  82.4762861 106.4114273 124.1851251  89.3436671  96.1303760 133.9521706
  89.3924827  97.0065882 133.5699476  89.8859185  95.5881153 133.3793349
  88.8325651 106.2025895 117.8347660  88.9813771 106.8861359 117.1814333
  89.6392094 106.1830985 118.3497116  91.5735960  96.8835132 130.7068065
  90.7039269  97.1768698 130.4350653  91.8095440  97.4675577 131.4275328
 102.6503271 103.5087170 123.3100163 103.4850162 103.9476975 123.4737724
 102.7862400 103.0325824 122.4908409  86.5878284 102.2291072 118.8408729
  86.3424325 101.3253402 119.0388939  86.7574198 102.2308223 117.8988207
  94.2774993  93.1014749 128.2233485  94.7956937  93.8375776 127.8979974
  93.9230126  93.4078742 129.0580244  85.8573931  97.9619430 116.3394891
  85.1643176  98.0363785 115.6834927  85.6125683  97.1979774 116.8616408
  94.5287588  89.5215031 123.7434382  94.8089341  88.8538220 124.3694808
  95.3138194  89.7144127 123.2309045  92.3321056 108.6974025 115.3059408
  91.7595023 109.3164212 114.8529880  92.9053850 109.2473387 115.8399330
  98.3996446  97.9432665 127.4905957  99.3513869  98.0430763 127.5118181
  98.2299896  97.1510934 128.0004041  96.4210825  95.0288249 127.6765358
  95.8260757  95.3093261 126.9811846  96.1360522  95.5182150 128.4482099
  95.5518316 108.9811175 116.4367990  96.4848989 108.9156737 116.6400866
  95.4641529 109.8167442 115.9782523 100.8784524 101.1638785 126.6048256
 100.8460844 100.2254786 126.7907940 101.4885147 101.2422822 125.8714081
  92.7167855 100.0334838 112.6475460  93.6626959  99.9041046 112.7163878
  92.3382100  99.2949500 113.1244889 101.0279012  97.9549829 126.6506540
 100.5118061  97.1708285 126.4636468 101.9118961  97.6268545 126.8153059
  98.6889739  91.6990844 122.6102352  98.4914560  91.3905932 123.4945684
  99.2989445  92.4252483 122.7400282  90.9010772  97.9584814 112.5830346
  89.9942227  97.6617927 112.6593059  91.1786753  97.6614633 111.7164632
  81.8188712  99.2791178 123.0329392  81.4991496  98.4256486 122.7403766
  81.2722140  99.4939756 123.7887359  85.5968620 101.9953619 126.7498899
  85.8154629 102.9270727 126.7686932  86.0094393 101.6361593 127.5353702
  92.5172837  92.5021704 118.7374587  91.7073566  92.1568789 119.1129833
  93.2057254  92.1929248 119.3262198  94.4463386  91.5799751 120.3598884
  94.9994424  91.9995204 121.0188907  94.6833472  90.6535499 120.4021840
  81.6876972 102.8994089 125.0022514  80.9940444 102.4848042 124.4892468
  82.4349963 102.9414626 124.4055932  97.8242193  93.6900276 119.8677548
  97.2440862  94.3485080 119.4855600  97.5578125  92.8677621 119.4564965
  96.2745759  93.0905334 122.0698868  96.7745538  93.2021868 121.2613187
  96.9181367  92.7866387 122.7099677  83.6013715 102.8312343 122.8788528
  83.5784403 102.9300030 121.9270412  83.9114351 103.6777494 123.2005695
  86.2601092 104.8888498 126.9935143  87.2144346 104.8572440 126.9265074
  86.0613616 104.4279122 127.8085369  86.8500475 103.4589614 129.5605941
  87.6693364 103.9533693 129.5840778  87.1237282 102.5421582 129.5323508
  96.6067071  95.8500367 118.9233896  95.7192926  96.1350017 118.7054091
  97.0221060  95.6894130 118.0761173  99.9581607  95.8746887 122.6388235
 100.7341997  96.3643340 122.9112852  99.2329741  96.3004942 123.0960105
 102.3954166  96.5874507 123.6962176 102.9898656  96.3470243 122.9855484
 102.4680749  95.8681637 124.3235712  84.6151321 110.4308118 124.0105341
  84.4805789 109.6708519 123.4443339  84.1983384 111.1549018 123.5434130
  96.5808095 101.3654902 119.1384186  96.5243296 101.8223454 118.2991819
  97.1336437 100.6045587 118.9607029 100.3912900  97.1544634 119.9634306
 100.1349835  96.7541270 120.7942513  99.7665769  97.8688428 119.8384445
 104.7025238  99.8940708 122.4705597 104.1424796  99.9633897 123.2437159
 104.0968742  99.7181692 121.7505093  87.7720447 111.3277435 124.2223783
  87.6552831 112.2722867 124.1202474  86.9512893 111.0250996 124.6109583
  97.6596982 106.0527570 115.0680376  98.4942586 105.6208769 114.8857851
  97.4981325 105.8809584 115.9957271  97.3142874 102.5559684 116.4336715
  97.2591678 102.3903955 115.4925159  96.6888929 103.2635717 116.5898905
  82.1035389  97.7927748 130.2598138  82.7494252  97.2826702 130.7485363
  81.8952540  98.5296430 130.8341563  90.6238999  92.0567793 116.0122034
  90.6117669  93.0009633 116.1690305  91.5162421  91.8737938 115.7181495
  90.5528563 110.7336683 124.0989790  89.6024194 110.7338545 123.9854163
  90.8561049 109.9869418 123.5825825  94.4391119  88.6510569 120.2667971
  93.6723515  88.0969056 120.4124653  94.8501824  88.7232438 121.1282122
  86.4432880  94.9395365 134.3573152  87.3064341  94.5832170 134.5676476
  85.8698291  94.6009260 135.0448556  98.4612965 119.1320231 116.7995568
  99.2343841 118.5849218 116.6608444  98.8138364 119.9964480 117.0110029
 100.7979242 115.2912897 114.4314018 101.0504763 114.7694418 113.6697481
  99.8603802 115.1279042 114.5340701 100.5175531 117.1941003 116.6338393
 100.4011789 116.5185906 117.3019477 100.6277791 116.7073377 115.8170546
 102.5012559 111.6841050 115.3346430 102.6686961 112.5521286 115.7016901
 102.3109728 111.8468331 114.4107720 102.4801780 114.1398707 116.3193097
 102.3601405 114.5855758 117.1578577 101.7854368 114.4884025 115.7606635
  96.9693356 114.0771691 120.8727273  96.1724519 114.1890385 121.3910769
  96.7418948 114.4158343 120.0068164 105.8289787 115.7823675 115.7260097
 105.3136411 116.5528280 115.9648484 105.5567096 115.1088811 116.3493158
  99.1210837 112.5065118 115.5815329  98.2848149 112.8439804 115.9024603
  98.9815607 112.3714097 114.6442466 101.0963918 107.3501906 120.2894513
 100.4428330 107.0350923 119.6651128 101.0544392 106.7277646 121.0154336
 102.2075122 117.6321201 112.2047805 101.3002184 117.4010454 112.4038954
 102.7046154 116.8358820 112.3921786  93.9551526 115.4539310 120.7086997
  93.7575926 114.8608670 119.9838064  93.3998190 115.1491520 121.4262936
 103.0839444 119.2742539 114.0659874 102.6458874 118.5578398 113.6065511
 103.8249885 119.5018654 113.5044965  96.4497752 114.9803344 118.3927949
  95.5195340 114.9187799 118.6097911  96.5455224 114.4579296 117.5964591
  96.3683301 111.5058156 120.9806191  96.6290118 112.4203490 120.8715351
  97.1900473 111.0382599 121.1302804 107.2050671 118.1326921 113.6591931
 106.5879842 117.4073749 113.5624984 106.7367160 118.8936281 113.3159005
  98.9949217 112.3512345 112.7813235  98.1178684 112.2301146 112.4175482
  99.4706970 111.5598423 112.5292124  93.7227911 113.9454200 118.2226141
  94.0181352 113.0364879 118.1693195  92.8215947 113.9241940 117.9007143
  95.4515753 111.6268298 118.3465466  95.1228459 110.7465677 118.1640572
  95.8055123 111.5715967 119.2341855  98.5657576 111.9141268 118.7140944
  98.9053648 112.4427189 117.9919552  99.0129696 112.2521674 119.4899510
 100.5525723 110.4115889 116.9134237 101.2734085 110.7897142 116.4097954
  99.9291027 111.1304766 117.0169215 104.6956846 111.1161038 117.8492569
 104.9120460 111.9985676 117.5481397 104.2150913 110.7247252 117.1198211
 100.6989346 109.9463680 119.7431773 100.8205257 109.0180326 119.9422661
 100.4091388 109.9602366 118.8310089  97.4272038 117.5582990 118.8408729
  97.1818080 116.6545320 119.0388939  97.5967953 117.5600141 117.8988207
  96.6967686 113.2911348 116.3394891  96.0036930 113.3655703 115.6834927
  96.4519437 112.5271691 116.8616408 103.5561609 115.3626756 112.6475460
 104.5020714 115.2332964 112.7163878 103.1775854 114.6241418 113.1244889
 101.7404526 113.2876732 112.5830346 100.8335982 112.9909845 112.6593059
 102.0180507 112.9906550 111.7164632 103.3566592 107.8313622 118.7374587
 102.5467320 107.4860707 119.1129833 104.0451009 107.5221166 119.3262198
 105.2857140 106.9091669 120.3598884 105.8388179 107.3287122 121.0188907
 105.5227227 105.9827417 120.4021840 100.5103311 110.1463667 112.7242325
 101.3722475 110.4718566 112.9838142 100.6953655 109.3595163 112.2115391
 101.4632754 107.3859710 116.0122034 101.4511424 108.3301550 116.1690305
 102.3556176 107.2029856 115.7181495 105.2784873 103.9802487 120.2667971
 104.5117269 103.4260974 120.4124653 105.6895578 104.0524356 121.1282122
  39.4994812   7.0741710 103.1253740  38.8482792   7.6595791 102.7387754
  40.2939175   7.6047905 103.1848777  35.7616717   0.3223514 101.1559324
  36.0142237  -0.1994965 100.3942787  34.8241276   0.1589659 101.2586008
  40.9770077   4.7632142 103.6622724  40.3415910   4.8366769 104.3743629
  40.6467483   5.3525741 102.9841804  35.2046146  11.9412966 106.6928535
  35.1270176  12.8920791 106.7717016  34.6007790  11.5958838 107.3503461
  43.1424320  -0.3569203 103.8718738  44.0542177  -0.1241816 103.6966435
  42.6333968   0.2267841 103.3093816  45.6283135   5.5611053 108.6176683
  44.9434173   5.9409955 108.0673716  45.7126984   6.1706380 109.3508631
  37.4784515   7.2995118 105.4134075  37.3430190   8.1446654 105.8418923
  38.0194328   7.5014396 104.6500009  40.7927262   0.8134291 102.4505403
  40.2773885   1.5838896 102.6893791  40.5204570   0.1399428 103.0738465
  45.7661536   3.5666646 104.3858577  44.9890979   3.2277806 103.9413739
  46.4453017   3.5719269 103.7113542  37.1712597   2.6631817  98.9293112
  36.2639659   2.4321071  99.1284261  37.6683629   1.8669436  99.1167093
  40.0780676  11.3729324 101.8489798  39.4042374  11.6761021 102.4574756
  40.4646498  12.1758405 101.4995255  38.3500830   2.7644412 103.4517102
  37.4412050   2.4803445 103.5489571  38.3795914   3.1843491 102.5920408
  43.5820098   6.3751002 107.2208269  43.1282425   5.5341911 107.2773460
  42.9514064   7.0112400 107.5583049  42.0253037   8.2127498 108.1558087
  42.3176011   8.7732555 107.4370453  42.5351657   8.5056059 108.9111246
  38.0476918   4.3053156 100.7905180  37.6096348   3.5889015 100.3310818
  38.7887359   4.5329271 100.2290272  46.1650033   2.5810353 106.8481499
  46.0267931   2.7711949 105.9202688  45.8086252   3.3429736 107.3049550
  38.2771891  11.5408997 104.0636877  38.4523647  11.0697040 104.8782500
  37.5904679  12.1674763 104.2918138  42.1688146   3.1637537 100.3837238
  41.5517316   2.4384365 100.2870290  41.7004634   3.9246898 100.0404312
  37.1450618   9.7349252 106.7521063  36.3618139  10.2770932 106.8459287
  37.8443363  10.2523232 107.1515304  42.9925831   6.4876709 104.5029878
  43.2685675   6.3733304 105.4123752  42.1230330   6.0894194 104.4642051
  39.6279895  10.7363060 108.1462691  39.8102289   9.9184716 108.6090443
  40.4512881  10.9530752 107.7087581  39.9622060   9.6631245 105.4077740
  40.4909827   9.1523700 104.7947902  40.2250280   9.3473775 106.2723273
  43.0562244   9.6348043 106.0232723  43.2299121   9.0694466 105.2706575
  43.5491135  10.4348938 105.8412213  48.9101635   2.3984466 107.6423022
  49.3532781   1.6491792 107.2442146  48.0328145   2.3894603 107.2596754
  44.0437416   8.9514808 103.1229621  44.7388321   9.5721501 103.3416936
  44.3860567   8.1010159 103.3981999  45.9428840   6.4014513 104.6516952
  46.4680164   6.7401786 103.9266272  45.8551192   5.4661529 104.4680086
  34.6356879   6.5628429 104.5592967  34.7845000   7.2463893 103.9059640
  35.4423323   6.5433519 105.0742423  38.1352285   9.0576560 102.0304714
  37.5626252   9.6766747 101.5775186  38.7085079   9.6075921 102.5644636
  41.3549545   9.3413710 103.1613297  42.2880218   9.2759271 103.3646172
  41.2672757  10.1769976 102.7027829  43.9837561   8.6579580 100.1217244
  43.9051193   8.3239444 101.0153002  44.8047228   9.1501348 100.1208717
  38.5199083   0.3937372  99.3720767  39.4658188   0.2643580  99.4409185
  38.1413328  -0.3447966  99.8490195  36.7042001  -1.6812651  99.3075652
  35.7973456  -1.9779539  99.3838366  36.9817982  -1.9782833  98.4409938
  41.5541513   5.9747575  99.7427223  42.2577363   6.1797578 100.3584878
  40.8304162   6.5424337 100.0076306  43.4628211   6.4130105 101.7925683
  44.2973814   5.9811303 101.6103158  43.3012553   6.2412118 102.7202577
  43.1174103   2.9162218 103.1582022  43.0622906   2.7506489 102.2170466
  42.4920158   3.6238251 103.3144212  52.0912486  16.9299756 111.8880859
  52.7290896  16.8106503 111.1844200  51.9733328  17.8780600 111.9468812
  48.9002192  16.8827184 111.8242384  48.5620703  16.7668249 110.9362919
  49.7691960  16.4818349 111.8043390  44.7589008  18.7362660 107.8139275
  44.1953873  18.6452597 107.0455563  44.6441403  17.9162565 108.2941768
  42.3053440  20.2313852 110.6523496  43.0974731  19.8904676 110.2369795
  42.5450090  20.3408827 111.5725649  50.3388566  22.4033628 103.1253740
  49.6876546  22.9887708 102.7387754  51.1332929  22.9339823 103.1848777
  44.2644193  19.4922765 103.5240874  45.0375069  18.9451752 103.3853750
  44.6169592  20.3567014 103.7355336  46.1029236  20.8199147 116.7307774
  45.8119102  21.7244778 116.6154440  46.7386220  20.8615675 117.4451843
  47.0285443  18.1975996 113.3209133  47.6249015  17.9732018 112.6066096
  47.0860414  17.4560741 113.9234581  46.6010471  15.6515431 101.1559324
  46.8535992  15.1296952 100.3942787  45.6635030  15.4881577 101.2586008
  51.6453754  14.6551210 108.9634067  52.4316843  14.2370633 108.6124485
  51.9092458  15.5597302 109.1315716  51.8163831  20.0924060 103.6622724
  51.1809664  20.1658686 104.3743629  51.4861238  20.6817659 102.9841804
  57.0462181  14.5926443 109.8667046  57.7787353  14.0225660 110.1004875
  56.2901537  14.2048043 110.3073552  46.3206760  17.5543537 103.3583699
  46.2043018  16.8788441 104.0264784  46.4309020  17.0675911 102.5415852
  48.6638301  17.0153684 107.0630388  48.2996508  16.4884305 107.7743310
  49.5205417  16.6252153 106.8896874  48.3043788  12.0443584 102.0591737
  48.4718190  12.9123820 102.4262208  48.1140957  12.2070866 101.1353026
  51.0619121  20.5060563 113.7257567  50.7619844  21.4085602 113.6173375
  50.7170181  20.2392746 114.5778720  44.5131603  16.9574360 109.7594272
  43.5882099  16.8250574 109.9671964  44.7616016  17.7368579 110.2564214
  54.4616265  13.0243103 111.4055005  53.5533142  12.9558511 111.1113766
  54.4103861  13.5015048 112.2336830  48.2833009  14.5001241 103.0438404
  48.1632634  14.9458292 103.8823884  47.5885597  14.8486559 102.4851942
  41.8740414  16.6007633 110.5938061  42.0032795  16.8542112 111.5077473
  41.1937865  17.1935341 110.2742716  46.0439901  27.2704883 106.6928535
  45.9663931  28.2212708 106.7717016  45.4401544  26.9250756 107.3503461
  56.3277911  11.2259541 113.1832879  55.6852292  11.5192075 112.5372673
  55.8232840  11.1112462 113.9886075  53.9818075  14.9722715 103.8718738
  54.8935931  15.2050101 103.6966435  53.4727722  15.5559759 103.3093816
  52.2658843  19.3947342 117.5080030  52.6742199  18.9529753 116.7634663
  51.5436104  18.8199970 117.7614223  52.5887657  19.9548533 111.2632319
  51.9596520  20.1194247 110.5608387  52.2013319  20.3690143 112.0343283
  56.4676889  20.8902971 108.6176683  55.7827927  21.2701872 108.0673716
  56.5520738  21.4998298 109.3508631  53.7227821  18.5362930 115.2172027
  53.9344716  19.1794690 114.5406408  53.6757569  17.7025247 114.7493957
  51.3254050  11.1480751 112.1208599  50.4638529  11.4462004 112.4125336
  51.3516484  11.3651149 111.1889631  48.1415619  19.6922941 108.5282404
  48.6053965  19.9710644 107.7387027  47.8772417  18.7906386 108.3455495
  45.0339700  19.2394423 111.4662168  45.6041057  19.6681691 110.8279652
  45.6247812  18.9577007 112.1646353  47.0784505  15.8146094 105.3371970
  47.7808549  16.2667137 105.8045896  46.7465134  15.1729912 105.9651863
  40.8209839  14.0729646 110.6389103  40.0308893  14.3287175 110.1629214
  41.3121087  14.8877984 110.7441144  54.8373649  21.4134885 113.3894384
  55.6591092  21.0115073 113.1077066  54.8336052  21.3103120 114.3410500
  42.7724585  14.4374225 107.5972580  41.9755748  14.5492920 108.1156075
  42.5450177  14.7760878 106.7313470  48.6030252  20.9618929 115.5455094
  48.6674685  21.4239336 116.3813266  47.8941176  20.3316294 115.6737404
  62.9279642  17.7573634 109.7379355  62.1743350  17.1881032 109.5823360
  63.0627183  17.7236298 110.6849990  48.3178270  22.6287036 105.4134075
  48.1823945  23.4738572 105.8418923  48.8588082  22.8306314 104.6500009
  41.7707667  20.1462474 105.9862000  42.2832188  20.9405724 106.1367565
  42.4230380  19.4488765 105.9195601  43.5802552  23.2628230 108.0684753
  43.7569180  24.1846195 107.8805737  44.3759385  22.9486650 108.4979133
  49.9446746  23.2510603 119.5434417  49.5010600  22.4646981 119.2255321
  50.6063960  23.4389753 118.8778308  44.7033867  24.7806404 114.0695095
  45.2541292  24.6523468 113.2972089  43.8645343  25.0801293 113.7189988
  52.0427984  23.5313403 117.5715818  52.0246460  24.3522284 117.0796087
  52.9647904  23.4067478 117.7965959  39.7356584  18.4751128 106.7621570
  40.5731806  18.8848137 106.5455278  39.9134852  17.5350571 106.7321764
  51.6321016  16.1426209 102.4505403  51.1167640  16.9130814 102.6893791
  51.3598325  15.4691345 103.0738465  49.2168127  10.9875910 107.5090642
  48.3609723  10.5982760 107.3296280  49.6295079  11.0667871 106.6490427
  50.7467274   8.5222253 111.9082201  50.2432069   8.4852388 111.0950007
  51.0397881   9.4314996 111.9678858  56.6055290  18.8958564 104.3858577
  55.8284733  18.5569723 103.9413739  57.2846771  18.9011187 103.7113542
  51.4207319  14.0153301 104.2765185  51.1157455  14.3299450 105.1275328
  52.3737761  14.0934721 104.3192518  49.8653751  20.1743525 105.9258138
  49.3375113  19.4396284 105.6131376  49.3641254  20.9518201 105.6798107
  54.8446597  18.3692545 111.0425185  54.1870272  19.0591806 111.1305313
  55.6486996  18.7588977 111.3859171  44.5972479  10.8363191 108.2864750
  45.1716231  10.6138372 107.5537943  45.1843461  10.9051885 109.0393351
  53.6552056  16.7236918 109.0929127  54.1683938  17.3566910 109.5950836
  54.3053280  16.1238113 108.7272487  44.9242066  12.8667652 102.3060635
  44.0879378  13.2042338 102.6269910  44.7846835  12.7316632 101.3687772
  46.8995146   7.7104440 107.0139819  46.2459559   7.3953457 106.3896434
  46.8575621   7.0880180 107.7399642  48.0106351  17.9923735  98.9293112
  47.1033413  17.7612988  99.1284261  48.5077383  17.1961354  99.1167093
  50.9174430  26.7021242 101.8489798  50.2436129  27.0052939 102.4574756
  51.3040252  27.5050322 101.4995255  50.1332887  14.1986373 111.3387467
  49.2155448  14.4201320 111.1809155  50.5493030  14.2732684 110.4799174
  50.9167935  15.5977789 106.4690147  51.6639754  16.1099186 106.1597269
  51.1859524  15.2761842 107.3294541  49.1894585  18.0936330 103.4517102
  48.2805804  17.8095363 103.5489571  49.2189669  18.5135408 102.5920408
  54.4213852  21.7042919 107.2208269  53.9676179  20.8633829 107.2773460
  53.7907819  22.3404318 107.5583049  53.3646772  12.6334905 108.4508937
  52.6269529  12.1212291 108.7819179  53.6173545  12.1935287 107.6392214
  52.8646791  23.5419416 108.1558087  53.1569766  24.1024473 107.4370453
  53.3745412  23.8347977 108.9111246  53.4658399   5.4111157 109.0450706
  53.7717276   4.5508521 108.7576621  54.1911004   6.0028777 108.8449700
  39.7582755  15.8141844 107.4332304  39.5607155  15.2211205 106.7083370
  39.2029419  15.5094054 108.1508243  47.7379479  15.7064950 109.5526897
  47.7928089  14.7538787 109.4769374  46.9270681  15.8624389 110.0368195
  48.8870673  19.6345073 100.7905180  48.4490102  18.9180932 100.3310818
  49.6281113  19.8621188 100.2290272  45.6771839  14.3242010 107.3117276
  44.8639704  14.6236181 107.7182468  46.1730833  13.9297699 108.0291758
  47.8280417  24.3199767 109.2451541  47.7856595  24.5460613 108.3160073
  48.7443115  24.0863142 109.3937342  57.0043787  17.9102270 106.8481499
  56.8661686  18.1003866 105.9202688  56.6480006  18.6721653 107.3049550
  57.0313167  19.9778797 111.8592770  57.4649674  19.8854086 112.7075824
  57.7444748  19.9536298 111.2212786  45.9446217  21.1962796 109.0413503
  46.7386816  20.7013116 108.8396078  45.2337910  20.6680659 108.6781209
  50.7641062  23.5780892 113.3925871  50.8178084  24.1471828 114.1603587
  49.8955843  23.7482777 113.0279908  42.2528981  15.3405878 105.1173256
  41.3226569  15.2790333 105.3343218  42.3486453  14.8181830 104.3209897
  42.1714530  11.8660691 107.7051498  42.4321347  12.7806024 107.5960658
  42.9931702  11.3985133 107.8548110  57.8928716  20.0202498 114.3925656
  58.0864607  20.9248309 114.6384931  57.7929335  19.5609917 115.2264241
  52.9543825  20.1709241 119.9666536  52.8029332  19.9419792 119.0496620
  52.9448505  21.1279842 119.9797881  49.7229162  17.7441154 114.9512803
  50.6521222  17.8952313 114.7781770  49.3020192  17.8325174 114.0961449
  48.5217493  21.7691818 112.7211340  48.3828579  21.4010602 113.5937278
  47.7332090  22.2839457 112.5495298  49.1165645  26.8700914 104.0636877
  49.2917401  26.3988958 104.8782500  48.4298433  27.4966681 104.2918138
  50.0722709  21.1473421 110.1100178  49.7372541  21.1074191 111.0057828
  49.5726654  20.4818137 109.6370588  53.0081900  18.4929455 100.3837238
  52.3911071  17.7676283 100.2870290  52.5398389  19.2538815 100.0404312
  54.6636032  23.2028363 118.0443018  54.6048578  22.5187583 117.3773601
  55.0655550  23.9447353 117.5923644  43.6826731  30.0190277 110.8376737
  43.9223329  30.6508801 111.5155756  42.8395927  29.6678317 111.1242096
  44.7980446  12.7114879  99.5058542  43.9209912  12.5903680  99.1420789
  45.2738199  11.9200958  99.2537431  54.6653439  21.1667947 116.2756998
  53.7780218  20.8293869 116.3983397  55.2351990  20.4350979 116.5125763
  36.3182586  17.4992039 109.6000049  37.0053626  17.1853769 109.0121065
  36.1630715  18.4033404 109.3267301  48.1954592  25.8269400 113.2418241
  48.1224764  26.6324371 113.7537546  47.7531986  26.0261365 112.4166262
  47.9844372  25.0641170 106.7521063  47.2011894  25.6062850 106.8459287
  48.6837117  25.5815149 107.1515304  51.2941022  10.8735799 109.3955268
  51.7909722  10.1205761 109.0756338  50.5228004  10.9100116 108.8298477
  59.1470780  16.5776165 111.0373559  59.1360656  17.4600880 110.6667493
  58.2788159  16.2247715 110.8428097  50.6553276  25.7256234 115.3976400
  51.3681248  26.3603698 115.3252301  50.1643305  25.8220100 114.5816402
  52.3770803  19.6307486 106.9693691  51.4427082  19.7508949 106.7998396
  52.5547471  18.7279953 106.7053701  47.8775991  13.0153182 109.1226953
  47.5073778  12.4624223 109.8107858  48.3735083  12.4111316 108.5701953
  55.7643354  15.4724806 107.5043726  56.2303806  16.3052797 107.4304028
  56.2150855  15.0069787 108.2088984  45.7065190  23.4750677 116.2181971
  46.4074649  24.1087160 116.3711365  45.2360305  23.8165409 115.4577610
  53.8319585  21.8168627 104.5029878  54.1079429  21.7025222 105.4123752
  52.9624084  21.4186112 104.4642051  53.7360017   7.8405393 111.5434627
  52.8223097   8.0709619 111.7116834  54.1653118   7.9243837 112.3948659
  53.5066475  16.0295285 114.0434521  52.8537926  16.2771192 113.3886974
  53.8846855  15.2159423 113.7096998  50.4673649  26.0654978 108.1462691
  50.6496044  25.2476634 108.6090443  51.2906635  26.2822670 107.7087581
  50.8015815  24.9923163 105.4077740  51.3303581  24.4815617 104.7947902
  51.0644034  24.6765693 106.2723273  41.3032908  23.0087032 113.1513073
  41.8886344  22.2630720 113.2840977  41.1057746  23.3190989 114.0349737
  44.1571563  26.0438280 108.1675516  43.4881938  26.5284407 107.6839556
  44.0184433  26.2907500 109.0818894  48.2976831  28.0782023 114.7658174
  48.8495139  28.2413645 115.5307259  48.6383025  28.6686461 114.0938199
  53.1487706  22.9043281 120.6206828  53.6927610  23.5173239 120.1261783
  52.5674551  23.4622859 121.1373841  39.5259140  14.3056735 104.9471448
  39.8212581  13.3967413 104.8938501  38.6247176  14.2844474 104.6252450
  51.4345219  26.0263999 111.7521856  51.3096358  25.2253738 111.2432802
  52.0924310  26.5210192 111.2635826  43.0553387  12.3812731 110.9298996
  42.3339973  12.9948699 110.7906470  43.8446643  12.9170496 110.8515642
  53.4980127  23.8273019 113.3801406  52.5510463  23.7078370 113.3079733
  53.8462900  22.9395517 113.4627668  41.2546981  11.9870832 105.0710773
  40.9259688  11.1068211 104.8885879  41.6086352  11.9318501 105.9587162
  50.5026560  23.6225735 109.5805758  50.3551523  22.6942442 109.7613328
  51.3280054  23.6445826 109.0962834  44.3688805  12.2743802 105.4386251
  44.7084877  12.8029723 104.7164859  44.8160925  12.6124208 106.2144817
  54.1060682  24.4454294 110.6670631  55.0307230  24.2397155 110.5295082
  53.9375986  24.1970695 111.5759973  46.3556952  10.7718424 103.6379543
  47.0765314  11.1499676 103.1343260  45.7322256  11.4907300 103.7414521
  50.4988075  11.4763573 104.5737876  50.7151689  12.3588210 104.2726704
  50.0182142  11.0849786 103.8443518  45.2387296  14.4349286 111.1508620
  45.0931877  14.7489589 112.0432902  44.7612500  15.0534186 110.5979519
  47.0983679  11.4251834 111.1989510  47.0845248  10.5292927 110.8621808
  47.8156107  11.4322498 111.8327796  53.8955998  24.9639961 106.0232723
  54.0692876  24.3986384 105.2706575  54.3884890  25.7640856 105.8412213
  46.5020575  10.3066214 106.4677080  46.6236486   9.3782860 106.6667967
  46.2122617  10.3204900 105.5555395  49.3711765   7.9921124 109.6043800
  49.3933462   8.0560458 108.6495779  49.7879824   7.1525633 109.7984306
  59.7495390  17.7276384 107.6423022  60.1926536  16.9783709 107.2442146
  58.8721900  17.7186520 107.2596754  54.8831171  24.2806726 103.1229621
  55.5782076  24.9013418 103.3416936  55.2254321  23.4302077 103.3981999
  56.7822594  21.7306431 104.6516952  57.3073918  22.0693704 103.9266272
  56.6944947  20.7953446 104.4680086  48.4442643  25.6440505 116.7806828
  48.7529769  25.3989651 117.6529528  49.2418125  25.8487143 116.2925699
  48.4663255  27.7978414 109.0112205  48.0268245  27.3054793 109.7045062
  49.2171372  27.2551382 108.7704280  40.9455594  23.9889955 109.0136833
  41.7713614  23.6893727 108.6335476  40.5949646  23.2197578 109.4626622
  45.9137127  23.3416423 111.0834507  45.2917136  22.6787128 110.7836734
  46.5841994  23.3677555 110.4008154  39.1464199  21.9076282 109.9725767
  38.3096107  21.4798456 109.7909768  39.1187844  22.1008725 110.9096558
  56.4716500  22.3639335 119.9568150  55.6812044  22.3463474 119.4172649
  56.2349855  22.9027628 120.7117186  56.5914375  19.2131801 117.2700878
  56.6412380  19.0481808 118.2116401  56.4828298  18.3459060 116.8798759
  45.4750634  21.8920347 104.5592967  45.6238754  22.5755811 103.9059640
  46.2817077  21.8725437 105.0742423  58.0932572  21.6328743 117.5142900
  57.8017380  21.9958723 118.3506361  57.4804703  20.9195751 117.3356232
  59.2928254  19.1981622 110.0345470  60.1275146  19.6371426 110.1983030
  59.4287383  18.7220276 109.2153716  56.3419760  16.7561357 115.9822958
  56.8173882  16.9489004 115.1741809  55.4185326  16.8120543 115.7366341
  43.2303267  17.9185524 105.5654036  42.9849309  17.0147854 105.7634246
  43.3999181  17.9202675 104.6233514  42.4998914  13.6513882 103.0640197
  41.8068159  13.7258237 102.4080233  42.2550666  12.8874226 103.5861714
  48.9746039  24.3868477 102.0304714  48.4020006  25.0058664 101.5775186
  49.5478833  24.9367839 102.5644636  55.0421429  13.6327117 114.2151263
  55.9938852  13.7325215 114.2363487  54.8724880  12.8405386 114.7249348
  53.0635809  10.7182700 114.4010664  52.4685741  10.9987713 113.7057153
  52.7785505  11.2076601 115.1727405  52.1943299  24.6705627 103.1613297
  53.1273972  24.6051189 103.3646172  52.1066512  25.5061894 102.7027829
  54.8231316  23.9871498 100.1217244  54.7444947  23.6531361 101.0153002
  55.6440983  24.4793266 100.1208717  57.5209507  16.8533237 113.3293563
  57.4885827  15.9149238 113.5153247  58.1310131  16.9317274 112.5959388
  49.3592838  15.7229290  99.3720767  50.3051943  15.5935498  99.4409185
  48.9807083  14.9843952  99.8490195  57.6703995  13.6444280 113.3751846
  57.1543044  12.8602737 113.1881775  58.5543944  13.3162997 113.5398366
  55.3314722   7.3885296 109.3347659  55.1339544   7.0800384 110.2190991
  55.9414428   8.1146935 109.4645589  63.3386057  17.9149244 112.4699600
  64.0689445  17.6534532 113.0307303  62.7293002  17.1777966 112.5101668
  61.4201354  16.0557106 113.0674051  60.6934518  15.9213071 112.4590543
  61.0048641  16.3633935 113.8730769  47.5435755  13.6479266  99.3075652
  46.6367210  13.3512379  99.3838366  47.8211736  13.3509084  98.4409938
  38.4613695  14.9685630 109.7574699  38.1416480  14.1150938 109.4649073
  37.9147124  15.1834208 110.5132666  42.2393603  17.6848071 113.4744205
  42.4579613  18.6165179 113.4932239  42.6519377  17.3256045 114.2599009
  49.1597821   8.1916156 105.4619894  48.3498549   7.8463241 105.8375140
  49.8482238   7.8823700 106.0507505  51.0888369   7.2694203 107.0844190
  51.6419408   7.6889656 107.7434213  51.3258455   6.3429951 107.1267146
  46.3134540  10.5066202  99.4487631  47.1753704  10.8321100  99.7083449
  46.4984884   9.7197697  98.9360697  38.3301955  18.5888541 111.7267820
  37.6365427  18.1742494 111.2137775  39.0774946  18.6309078 111.1301239
  54.4667176   9.3794728 106.5922854  53.8865845  10.0379532 106.2100907
  54.2003109   8.5572073 106.1810272  52.9170742   8.7799786 108.7944175
  53.4170521   8.8916320 107.9858494  53.5606350   8.4760839 109.4344983
  40.2438698  18.5206795 109.6033835  40.2209386  18.6194482 108.6515718
  40.5539334  19.3671946 109.9251001  42.9026076  20.5782950 113.7180449
  43.8569329  20.5466892 113.6510381  42.7038599  20.1173574 114.5330675
  53.2492054  11.5394818 105.6479203  52.3617909  11.8244469 105.4299397
  53.6646043  11.3788582 104.8006480  56.6006590  11.5641339 109.3633542
  57.3766980  12.0537792 109.6358159  55.8754724  11.9899394 109.8205411
  59.0379149  12.2768959 110.4207483  59.6323640  12.0364695 109.7100791
  59.1105733  11.5576089 111.0481019  41.2576305  26.1202570 110.7350647
  41.1230773  25.3602970 110.1688645  40.8408367  26.8443469 110.2679436
  52.3935268  21.3039493  99.7427223  53.0971118  21.5089496 100.3584878
  51.6697916  21.8716255 100.0076306  53.2233078  17.0549354 105.8629493
  53.1668279  17.5117906 105.0237125  53.7761420  16.2940039 105.6852336
  57.0337884  12.8439086 106.6879612  56.7774818  12.4435722 107.5187820
  56.4090752  13.5582880 106.5629751  61.3450222  15.5835159 109.1950904
  60.7849780  15.6528349 109.9682466  60.7393725  15.4076144 108.4750400
  44.4145430  27.0171887 110.9469090  44.2977815  27.9617319 110.8447780
  43.5937877  26.7145448 111.3354889  54.3021965  21.7422022 101.7925683
  55.1367569  21.3103221 101.6103158  54.1406308  21.5704036 102.7202577
  53.9567857  18.2454136 103.1582022  53.9016661  18.0798407 102.2170466
  53.3313912  18.9530168 103.3144212  47.2663983   7.7462245 102.7367340
  47.2542652   8.6904084 102.8935611  48.1587405   7.5632390 102.4426802
  45.4399945  27.6700148 114.1625018  46.3427191  27.7023759 114.4791513
  45.2137315  26.7400599 114.1771354  47.1953547  26.4231135 110.8235097
  46.2449178  26.4232997 110.7099469  47.4986033  25.6763870 110.3071132
  51.0816102   4.3405021 106.9913277  50.3148498   3.7863508 107.1369960
  51.4926807   4.4126890 107.8527429  62.9306240  32.2591673 111.8880859
  63.5684650  32.1398421 111.1844200  62.8127083  33.2072517 111.9468812
  59.7395946  32.2119101 111.8242384  59.4014458  32.0960166 110.9362919
  60.6085715  31.8110267 111.8043390  55.5982762  34.0654578 107.8139275
  55.0347627  33.9744515 107.0455563  55.4835157  33.2454482 108.2941768
  60.2215729  33.3653953 117.7828590  60.2104370  32.9706751 116.9109093
  60.3836369  32.6320026 118.3762361  53.1447194  35.5605769 110.6523496
  53.9368486  35.2196594 110.2369795  53.3843844  35.6700745 111.5725649
  61.1782321  37.7325546 103.1253740  60.5270301  38.3179626 102.7387754
  61.9726684  38.2631741 103.1848777  55.1037948  34.8214683 103.5240874
  55.8768824  34.2743670 103.3853750  55.4563347  35.6858932 103.7355336
  56.9422990  36.1491065 116.7307774  56.6512856  37.0536696 116.6154440
  57.5779975  36.1907593 117.4451843  57.8679197  33.5267914 113.3209133
  58.4642770  33.3023936 112.6066096  57.9254169  32.7852659 113.9234581
  57.4404226  30.9807349 101.1559324  57.6929746  30.4588870 100.3942787
  56.5028785  30.8173494 101.2586008  62.4847509  29.9843127 108.9634067
  63.2710598  29.5662550 108.6124485  62.7486213  30.8889219 109.1315716
  62.6557586  35.4215978 103.6622724  62.0203419  35.4950604 104.3743629
  62.3254992  36.0109576 102.9841804  67.8855936  29.9218360 109.8667046
  68.6181108  29.3517577 110.1004875  67.1295291  29.5339961 110.3073552
  57.1600514  32.8835455 103.3583699  57.0436773  32.2080358 104.0264784
  57.2702774  32.3967829 102.5415852  59.5032055  32.3445602 107.0630388
  59.1390263  31.8176223 107.7743310  60.3599171  31.9544071 106.8896874
  65.4081356  23.6339935 114.3261655  65.0764681  24.5035345 114.1022870
  64.8126969  23.3176219 115.0055685  59.1437542  27.3735502 102.0591737
  59.3111945  28.2415738 102.4262208  58.9534711  27.5362783 101.1353026
  61.9012876  35.8352481 113.7257567  61.6013599  36.7377519 113.6173375
  61.5563935  35.5684664 114.5778720  55.3525357  32.2866277 109.7594272
  54.4275854  32.1542491 109.9671964  55.6009770  33.0660497 110.2564214
  65.3010019  28.3535021 111.4055005  64.3926897  28.2850429 111.1113766
  65.2497615  28.8306966 112.2336830  59.1226763  29.8293159 103.0438404
  59.0026388  30.2750210 103.8823884  58.4279352  30.1778477 102.4851942
  52.7134168  31.9299551 110.5938061  52.8426549  32.1834030 111.5077473
  52.0331619  32.5227259 110.2742716  56.8833655  42.5996801 106.6928535
  56.8057685  43.5504626 106.7717016  56.2795299  42.2542673 107.3503461
  59.3750885  29.7724666 119.3489902  58.5984219  30.3318586 119.3392767
  60.0141448  30.2581449 119.8704772  67.1671666  26.5551459 113.1832879
  66.5246046  26.8483992 112.5372673  66.6626594  26.4404379 113.9886075
  64.8211829  30.3014632 103.8718738  65.7329686  30.5342019 103.6966435
  64.3121477  30.8851677 103.3093816  57.6297257  32.5810120 118.9107869
  58.3711942  33.1195164 118.6342693  56.9234243  33.2076408 119.0679421
  63.1052597  34.7239260 117.5080030  63.5135953  34.2821671 116.7634663
  62.3829859  34.1491888 117.7614223  59.4583667  29.6611867 114.8813587
  60.3044862  30.0851280 115.0248236  59.3982305  29.0045491 115.5752150
  63.4281412  35.2840451 111.2632319  62.7990274  35.4486165 110.5608387
  63.0407074  35.6982060 112.0343283  67.3070644  36.2194889 108.6176683
  66.6221682  36.5993790 108.0673716  67.3914493  36.8290215 109.3508631
  62.6083112  27.3216235 116.5394761  62.3644044  28.0758296 116.0029037
  62.8843043  27.7001583 117.3742008  64.5621575  33.8654848 115.2172027
  64.7738470  34.5086608 114.5406408  64.5151323  33.0317164 114.7493957
  62.1647804  26.4772668 112.1208599  61.3032283  26.7753922 112.4125336
  62.1910239  26.6943067 111.1889631  58.9809374  35.0214859 108.5282404
  59.4447719  35.3002562 107.7387027  58.7166172  34.1198303 108.3455495
  55.8733455  34.5686340 111.4662168  56.4434812  34.9973609 110.8279652
  56.4641567  34.2868925 112.1646353  57.9178260  31.1438011 105.3371970
  58.6202303  31.5959055 105.8045896  57.5858888  30.5021830 105.9651863
  56.3658621  29.7349768 119.7123179  55.7357282  30.4166049 119.9458576
  56.2594709  29.6232849 118.7676317  51.6603594  29.4021564 110.6389103
  50.8702648  29.6579092 110.1629214  52.1514841  30.2169902 110.7441144
  65.6767403  36.7426803 113.3894384  66.4984847  36.3406990 113.1077066
  65.6729806  36.6395037 114.3410500  53.6118339  29.7666143 107.5972580
  52.8149502  29.8784837 108.1156075  53.3843931  30.1052795 106.7313470
  59.4424007  36.2910846 115.5455094  59.5068439  36.7531254 116.3813266
  58.7334931  35.6608211 115.6737404  49.9441297  29.6552054 113.0704094
  50.1949335  30.5399064 113.3361670  50.4800845  29.4756656 112.2979186
  73.7673396  33.0865552 109.7379355  73.0137105  32.5172950 109.5823360
  73.9020937  33.0528216 110.6849990  59.1572024  37.9578954 105.4134075
  59.0217699  38.8030490 105.8418923  59.6981837  38.1598231 104.6500009
  55.6439364  24.0370534 122.0748430  55.2506309  23.4836732 122.7496074
  56.4605504  24.3481112 122.4654948  52.6101422  35.4754392 105.9862000
  53.1225942  36.2697642 106.1367565  53.2624135  34.7780682 105.9195601
  54.4196306  38.5920148 108.0684753  54.5962935  39.5138113 107.8805737
  55.2153140  38.2778567 108.4979133  58.5607325  25.4528413 119.6668687
  59.3017038  26.0535566 119.5873149  58.7925248  24.7106051 119.1086729
  53.7048663  30.6384780 117.9446916  53.5902178  29.7370037 118.2454015
  52.8493181  30.8848477 117.5931733  60.7840501  38.5802520 119.5434417
  60.3404355  37.7938899 119.2255321  61.4457714  38.7681671 118.8778308
  55.5427622  40.1098322 114.0695095  56.0935047  39.9815385 113.2972089
  54.7039098  40.4093211 113.7189988  62.8821739  38.8605320 117.5715818
  62.8640214  39.6814201 117.0796087  63.8041659  38.7359395 117.7965959
  59.3394793  36.3749450 118.4139326  59.8723130  35.6137738 118.1838634
  58.8108874  36.0823102 119.1563481  62.5064488  21.4809516 113.9432968
  62.1628757  22.3711157 113.8672079  62.8743450  21.2911173 113.0802553
  50.5750338  33.8043046 106.7621570  51.4125560  34.2140055 106.5455278
  50.7528606  32.8642488 106.7321764  62.4714771  31.4718127 102.4505403
  61.9561394  32.2422731 102.6893791  62.1992079  30.7983263 103.0738465
  60.0561882  26.3167828 107.5090642  59.2003478  25.9274678 107.3296280
  60.4688833  26.3959788 106.6490427  61.5861028  23.8514171 111.9082201
  61.0825824  23.8144306 111.0950007  61.8791635  24.7606914 111.9678858
  57.8303914  23.9352901 110.9148383  58.6956911  23.7395709 110.5554273
  57.8981423  23.7063252 111.8417740  67.4449045  34.2250481 104.3858577
  66.6678487  33.8861641 103.9413739  68.1240526  34.2303105 103.7113542
  62.2601074  29.3445219 104.2765185  61.9551209  29.6591368 105.1275328
  63.2131516  29.4226639 104.3192518  60.7047506  35.5035442 105.9258138
  60.1768867  34.7688202 105.6131376  60.2035008  36.2810119 105.6798107
  65.6840352  33.6984463 111.0425185  65.0264026  34.3883724 111.1305313
  66.4880751  34.0880895 111.3859171  55.4366233  26.1655109 108.2864750
  56.0109985  25.9430290 107.5537943  56.0237216  26.2343803 109.0393351
  64.4945810  32.0528835 109.0929127  65.0077692  32.6858827 109.5950836
  65.1447034  31.4530031 108.7272487  55.7635820  28.1959570 102.3060635
  54.9273133  28.5334256 102.6269910  55.6240590  28.0608549 101.3687772
  57.7388901  23.0396357 107.0139819  57.0853313  22.7245375 106.3896434
  57.6969375  22.4172098 107.7399642  58.8500106  33.3215652  98.9293112
  57.9427168  33.0904906  99.1284261  59.3471138  32.5253272  99.1167093
  61.7568185  42.0313160 101.8489798  61.0829883  42.3344856 102.4574756
  62.1434007  42.8342240 101.4995255  60.9726641  29.5278291 111.3387467
  60.0549203  29.7493238 111.1809155  61.3886785  29.6024601 110.4799174
  61.7561689  30.9269707 106.4690147  62.5033508  31.4391104 106.1597269
  62.0253279  30.6053759 107.3294541  60.0288339  33.4228247 103.4517102
  59.1199558  33.1387280 103.5489571  60.0583423  33.8427326 102.5920408
  65.2607607  37.0334837 107.2208269  64.8069934  36.1925747 107.2773460
  64.6301573  37.6696235 107.5583049  64.2040526  27.9626823 108.4508937
  63.4663283  27.4504209 108.7819179  64.4567300  27.5227205 107.6392214
  63.7040546  38.8711334 108.1558087  63.9963520  39.4316391 107.4370453
  64.2139166  39.1639895 108.9111246  64.3052154  20.7403075 109.0450706
  64.6111030  19.8800438 108.7576621  65.0304758  21.3320695 108.8449700
  50.5976510  31.1433761 107.4332304  50.4000909  30.5503122 106.7083370
  50.0423174  30.8385972 108.1508243  58.5773233  31.0356868 109.5526897
  58.6321843  30.0830704 109.4769374  57.7664435  31.1916307 110.0368195
  59.7264427  34.9636991 100.7905180  59.2883857  34.2472850 100.3310818
  60.4674868  35.1913106 100.2290272  56.5165593  29.6533928 107.3117276
  55.7033459  29.9528098 107.7182468  57.0124587  29.2589616 108.0291758
  58.6674171  39.6491685 109.2451541  58.6250350  39.8752531 108.3160073
  59.5836870  39.4155059 109.3937342  62.1139805  30.1175752 116.1432170
  62.4689193  30.3447225 117.0026635  62.7611936  30.4494129 115.5209425
  67.8437542  33.2394188 106.8481499  67.7055440  33.4295784 105.9202688
  67.4873761  34.0013571 107.3049550  56.0079668  27.2252283 112.9278511
  56.6479047  27.0841042 112.2301474  55.1757198  26.9386797 112.5517113
  67.8706921  35.3070715 111.8592770  68.3043428  35.2146004 112.7075824
  68.5838502  35.2828216 111.2212786  56.7839972  36.5254714 109.0413503
  57.5780570  36.0305034 108.8396078  56.0731664  35.9972577 108.6781209
  61.6034816  38.9072809 113.3925871  61.6571839  39.4763746 114.1603587
  60.7349598  39.0774694 113.0279908  53.0922735  30.6697795 105.1173256
  52.1620323  30.6082251 105.3343218  53.1880207  30.1473748 104.3209897
  53.0108284  27.1952608 107.7051498  53.2715102  28.1097941 107.5960658
  53.8325457  26.7277051 107.8548110  54.4833210  28.6090365 114.8750322
  55.1556263  28.4007728 114.2262971  53.6562996  28.4112451 114.4355554
  68.7322471  35.3494416 114.3925656  68.9258361  36.2540226 114.6384931
  68.6323089  34.8901835 115.2264241  60.3858782  25.2352306 116.8915983
  59.7386697  25.9342256 116.7980459  61.1559797  25.6688450 117.2592231
  63.7937580  35.5001158 119.9666536  63.6423086  35.2711710 119.0496620
  63.7842259  36.4571760 119.9797881  60.5622916  33.0733071 114.9512803
  61.4914976  33.2244231 114.7781770  60.1413946  33.1617092 114.0961449
  59.3611248  37.0983736 112.7211340  59.2222334  36.7302520 113.5937278
  58.5725844  37.6131375 112.5495298  59.9559400  42.1992832 104.0636877
  60.1311156  41.7280875 104.8782500  59.2692188  42.8258598 104.2918138
  60.9116463  36.4765338 110.1100178  60.5766296  36.4366108 111.0057828
  60.4120409  35.8110054 109.6370588  54.8860707  31.8832968 115.6352759
  54.7480505  31.1513207 116.2364298  55.7965630  31.7941868 115.3536947
  63.8475655  33.8221373 100.3837238  63.2304825  33.0968201 100.2870290
  63.3792143  34.5830733 100.0404312  57.5143008  31.5952928 115.1236439
  58.2242626  30.9546120 115.0823057  57.4712316  31.8465823 116.0462620
  65.5029786  38.5320281 118.0443018  65.4442332  37.8479501 117.3773601
  65.9049305  39.2739271 117.5923644  56.2271942  28.5818146 116.9432078
  55.6909299  28.1308884 117.5953675  55.6388650  28.7164054 116.2002543
  54.5220485  45.3482195 110.8376737  54.7617083  45.9800719 111.5155756
  53.6789682  44.9970235 111.1242096  55.6374201  28.0406797  99.5058542
  54.7603667  27.9195598  99.1420789  56.1131954  27.2492875  99.2537431
  65.5047194  36.4959865 116.2756998  64.6173972  36.1585787 116.3983397
  66.0745745  35.7642896 116.5125763  47.1576341  32.8283957 109.6000049
  47.8447381  32.5145687 109.0121065  47.0024469  33.7325321 109.3267301
  51.9611063  27.7174153 114.0285073  51.8769252  27.1099823 113.2935483
  51.1393769  28.2083172 114.0294569  59.0348347  41.1561317 113.2418241
  58.9618518  41.9616289 113.7537546  58.5925740  41.3553283 112.4166262
  58.8238127  40.3933087 106.7521063  58.0405648  40.9354768 106.8459287
  59.5230872  40.9107067 107.1515304  62.1334777  26.2027717 109.3955268
  62.6303476  25.4497679 109.0756338  61.3621758  26.2392033 108.8298477
  69.9864534  31.9068082 111.0373559  69.9754410  32.7892798 110.6667493
  69.1181914  31.5539633 110.8428097  61.4947030  41.0548151 115.3976400
  62.2075003  41.6895616 115.3252301  61.0037059  41.1512017 114.5816402
  63.2164557  34.9599404 106.9693691  62.2820836  35.0800866 106.7998396
  63.3941226  34.0571871 106.7053701  58.7169745  28.3445100 109.1226953
  58.3467533  27.7916140 109.8107858  59.2128838  27.7403233 108.5701953
  66.6037109  30.8016723 107.5043726  67.0697561  31.6344715 107.4304028
  67.0544609  30.3361705 108.2088984  56.5458944  38.8042595 116.2181971
  57.2468404  39.4379078 116.3711365  56.0754059  39.1457326 115.4577610
  64.6713340  37.1460545 104.5029878  64.9473184  37.0317139 105.4123752
  63.8017839  36.7478029 104.4642051  64.5753771  23.1697310 111.5434627
  63.6616851  23.4001537 111.7116834  65.0046873  23.2535754 112.3948659
  64.3460230  31.3587202 114.0434521  63.6931680  31.6063110 113.3886974
  64.7240610  30.5451340 113.7096998  61.3067404  41.3946895 108.1462691
  61.4889798  40.5768551 108.6090443  62.1300390  41.6114588 107.7087581
  61.6409569  40.3215081 105.4077740  62.1697336  39.8107535 104.7947902
  61.9037789  40.0057611 106.2723273  60.3947803  32.1007013 120.5300558
  59.7188440  32.0001143 121.2002933  61.2175437  31.9446227 120.9936555
  52.1426662  38.3378950 113.1513073  52.7280099  37.5922638 113.2840977
  51.9451501  38.6482907 114.0349737  54.9965317  41.3730197 108.1675516
  54.3275693  41.8576325 107.6839556  54.8578187  41.6199418 109.0818894
  46.7344317  30.9084550 111.8717516  46.7728416  30.3748141 112.6654634
  46.2284610  30.3819756 111.2528494  59.1370586  43.4073941 114.7658174
  59.6888894  43.5705562 115.5307259  59.4776779  43.9978379 114.0938199
  54.1135079  25.7549091 115.3680059  54.1776406  26.6163921 114.9557456
  54.0502199  25.1423092 114.6352417  53.5887352  27.8272223 119.0153093
  54.2159390  27.4449300 119.6290617  52.7315270  27.6086425 119.3808785
  63.9881460  38.2335198 120.6206828  64.5321364  38.8465157 120.1261783
  63.4068305  38.7914777 121.1373841  50.3652894  29.6348652 104.9471448
  50.6606335  28.7259331 104.8938501  49.4640930  29.6136392 104.6252450
  62.2738973  41.3555916 111.7521856  62.1490113  40.5545656 111.2432802
  62.9318064  41.8502110 111.2635826  53.8947141  27.7104649 110.9298996
  53.1733727  28.3240617 110.7906470  54.6840397  28.2462414 110.8515642
  64.3373882  39.1564936 113.3801406  63.3904217  39.0370288 113.3079733
  64.6856655  38.2687434 113.4627668  56.6973455  25.0459075 117.2039648
  57.2207857  25.2921372 117.9665957  56.4785788  25.8779110 116.7842785
  52.0940736  27.3162750 105.0710773  51.7653442  26.4360129 104.8885879
  52.4480107  27.2610419 105.9587162  61.3420315  38.9517653 109.5805758
  61.1945277  38.0234360 109.7613328  62.1673808  38.9737743 109.0962834
  55.2082559  27.6035720 105.4386251  55.5478632  28.1321641 104.7164859
  55.6554680  27.9416126 106.2144817  64.9454437  39.7746211 110.6670631
  65.8700984  39.5689073 110.5295082  64.7769740  39.5262612 111.5759973
  57.9026000  25.9872770 114.8889319  57.5622820  25.1880583 115.2909998
  57.1965006  26.2874481 114.3166152  58.5542472  23.0722083 113.3416642
  59.3768541  22.5982561 113.2195532  58.7980535  23.8512567 113.8415328
  57.1950706  26.1010341 103.6379543  57.9159069  26.4791594 103.1343260
  56.5716010  26.8199218 103.7414521  61.3381829  26.8055490 104.5737876
  61.5545444  27.6880128 104.2726704  60.8575896  26.4141704 103.8443518
  56.0781051  29.7641203 111.1508620  55.9325631  30.0781507 112.0432902
  55.6006254  30.3826104 110.5979519  57.9377433  26.7543751 111.1989510
  57.9239002  25.8584845 110.8621808  58.6549862  26.7614415 111.8327796
  59.7903564  27.1881092 113.2442637  59.5321342  28.1098162 113.2426968
  59.2588605  26.7911526 113.9343101  64.7349753  40.2931879 106.0232723
  64.9086630  39.7278301 105.2706575  65.2278644  41.0932774 105.8412213
  50.5526713  32.3046548 114.0896281  50.0080181  33.0806356 114.2216556
  51.4306063  32.6517352 113.9315403  57.3414329  25.6358132 106.4677080
  57.4630241  24.7074778 106.6667967  57.0516372  25.6496818 105.5555395
  60.2105520  23.3213042 109.6043800  60.2327217  23.3852375 108.6495779
  60.6273579  22.4817551 109.7984306  70.5889144  33.0568302 107.6423022
  71.0320290  32.3075627 107.2442146  69.7115654  33.0478438 107.2596754
  65.7224925  39.6098643 103.1229621  66.4175830  40.2305336 103.3416936
  66.0648076  38.7593994 103.3981999  51.3392735  31.4316444 116.9826438
  50.5974471  31.5799079 117.5691069  51.0185479  31.6924710 116.1193188
  67.6216349  37.0598349 104.6516952  68.1467673  37.3985621 103.9266272
  67.5338701  36.1245364 104.4680086  59.2836397  40.9732422 116.7806828
  59.5923524  40.7281569 117.6529528  60.0811879  41.1779061 116.2925699
  59.3057009  43.1270332 109.0112205  58.8662000  42.6346711 109.7045062
  60.0565126  42.5843300 108.7704280  51.7849348  39.3181873 109.0136833
  52.6107368  39.0185645 108.6335476  51.4343400  38.5489495 109.4626622
  56.7530881  38.6708341 111.0834507  56.1310891  38.0079046 110.7836734
  57.4235748  38.6969473 110.4008154  49.9857953  37.2368199 109.9725767
  49.1489862  36.8090374 109.7909768  49.9581599  37.4300643 110.9096558
  56.8255409  27.1490129 120.6767013  56.8743564  28.0252252 120.2944782
  57.3677923  26.6067522 120.1038656  67.3110255  37.6931252 119.9568150
  66.5205798  37.6755391 119.4172649  67.0743609  38.2319546 120.7117186
  67.4308130  34.5423719 117.2700878  67.4806135  34.3773726 118.2116401
  67.3222053  33.6750978 116.8798759  56.3144388  37.2212264 104.5592967
  56.4632509  37.9047729 103.9059640  57.1210832  37.2017354 105.0742423
  64.7211892  30.5254647 118.5860185  65.6221755  30.3861112 118.2944183
  64.7959867  30.6909102 119.5258362  59.0554697  27.9021502 117.4313371
  58.1858007  28.1955068 117.1595960  59.2914178  28.4861947 118.1520635
  68.9326326  36.9620660 117.5142900  68.6411135  37.3250641 118.3506361
  68.3198458  36.2487669 117.3356232  70.1322009  34.5273540 110.0345470
  70.9668900  34.9663344 110.1983030  70.2681138  34.0512193 109.2153716
  67.1813515  32.0853275 115.9822958  67.6567636  32.2780921 115.1741809
  66.2579080  32.1412461 115.7366341  54.0697021  33.2477442 105.5654036
  53.8243063  32.3439772 105.7634246  54.2392936  33.2494593 104.6233514
  61.7593731  24.1201118 114.9478792  62.2775675  24.8562145 114.6225280
  61.4048864  24.4265112 115.7825551  53.3392669  28.9805800 103.0640197
  52.6461914  29.0550155 102.4080233  53.0944421  28.2166143 103.5861714
  62.0106325  20.5401401 110.4679688  62.2908079  19.8724590 111.0940115
  62.7956932  20.7330497 109.9554352  59.8139794  39.7160395 102.0304714
  59.2413761  40.3350582 101.5775186  60.3872588  40.2659757 102.5644636
  65.8815184  28.9619035 114.2151263  66.8332607  29.0617133 114.2363487
  65.7118634  28.1697304 114.7249348  63.9029563  26.0474618 114.4010664
  63.3079495  26.3279631 113.7057153  63.6179260  26.5368519 115.1727405
  63.0337054  39.9997545 103.1613297  63.9667727  39.9343107 103.3646172
  62.9460266  40.8353812 102.7027829  65.6625070  39.3163415 100.1217244
  65.5838702  38.9823279 101.0153002  66.4834737  39.8085183 100.1208717
  68.3603261  32.1825155 113.3293563  68.3279582  31.2441155 113.5153247
  68.9703885  32.2609191 112.5959388  60.1986592  31.0521208  99.3720767
  61.1445697  30.9227416  99.4409185  59.8200837  30.3135870  99.8490195
  68.5097750  28.9736198 113.3751846  67.9936799  28.1894655 113.1881775
  69.3937698  28.6454915 113.5398366  66.1708477  22.7177214 109.3347659
  65.9733298  22.4092302 110.2190991  66.7808182  23.4438853 109.4645589
  74.1779811  33.2441161 112.4699600  74.9083200  32.9826450 113.0307303
  73.5686757  32.5069883 112.5101668  72.2595108  31.3849024 113.0674051
  71.5328272  31.2504989 112.4590543  71.8442395  31.6925853 113.8730769
  60.0825285  35.1038954 120.8321424  61.0028294  35.2817553 121.0261470
  60.0474868  34.1594999 120.6801123  58.3829509  28.9771184  99.3075652
  57.4760965  28.6804297  99.3838366  58.6605490  28.6801002  98.4409938
  49.3007450  30.2977547 109.7574699  48.9810234  29.4442856 109.4649073
  48.7540878  30.5126126 110.5132666  53.0787357  33.0139988 113.4744205
  53.2973367  33.9457096 113.4932239  53.4913131  32.6547963 114.2599009
  59.9991575  23.5208074 105.4619894  59.1892304  23.1755159 105.8375140
  60.6875992  23.2115617 106.0507505  61.9282124  22.5986121 107.0844190
  62.4813162  23.0181574 107.7434213  62.1652210  21.6721869 107.1267146
  57.9515223  28.5873194 122.8646954  57.8511950  29.5367551 122.7959045
  57.7336765  28.2591433 121.9923024  57.1528294  25.8358119  99.4487631
  58.0147458  26.1613018  99.7083449  57.3378638  25.0489615  98.9360697
  49.1695710  33.9180459 111.7267820  48.4759181  33.5034412 111.2137775
  49.9168701  33.9600995 111.1301239  65.3060931  24.7086646 106.5922854
  64.7259600  25.3671450 106.2100907  65.0396863  23.8863990 106.1810272
  63.7564497  24.1091703 108.7944175  64.2564275  24.2208238 107.9858494
  64.4000105  23.8052756 109.4344983  57.8146493  32.0170333 121.6812016
  57.3313574  32.8170693 121.8875905  57.9007432  32.0278278 120.7279460
  51.0832452  33.8498713 109.6033835  51.0603141  33.9486400 108.6515718
  51.3933089  34.6963863 109.9251001  53.7419830  35.9074868 113.7180449
  54.6963084  35.8758810 113.6510381  53.5432354  35.4465491 114.5330675
  54.3319212  34.4775984 116.2851247  55.1512101  34.9720062 116.3086084
  54.6056020  33.5607952 116.2568815  64.0885809  26.8686736 105.6479203
  63.2011664  27.1536387 105.4299397  64.5039798  26.7080499 104.8006480
  67.4400345  26.8933257 109.3633542  68.2160735  27.3829709 109.6358159
  66.7148479  27.3191311 109.8205411  69.8772903  27.6060876 110.4207483
  70.4717394  27.3656612 109.7100791  69.9499487  26.8868007 111.0481019
  52.0970059  41.4494487 110.7350647  51.9624527  40.6894888 110.1688645
  51.6802121  42.1735387 110.2679436  63.2329022  36.6331411  99.7427223
  63.9364872  36.8381413 100.3584878  62.5091671  37.2008173 100.0076306
  64.0626832  32.3841272 105.8629493  64.0062034  32.8409823 105.0237125
  64.6155175  31.6231957 105.6852336  67.8731638  28.1731004 106.6879612
  67.6168573  27.7727640 107.5187820  67.2484506  28.8874798 106.5629751
  72.1843976  30.9127077 109.1950904  71.6243534  30.9820266 109.9682466
  71.5787479  30.7368062 108.4750400  55.2539185  42.3463804 110.9469090
  55.1371569  43.2909237 110.8447780  54.4331631  42.0437366 111.3354889
  65.1415719  37.0713940 101.7925683  65.9761323  36.6395138 101.6103158
  64.9800062  36.8995954 102.7202577  64.7961612  33.5746053 103.1582022
  64.7410415  33.4090325 102.2170466  64.1707667  34.2822086 103.3144212
  49.5854127  28.8114118 116.9843444  50.2312990  28.3013072 117.4730669
  49.3771278  29.5482799 117.5586869  62.1107519  35.8794965 122.4835585
  62.9798678  36.0535617 122.1222220  61.6314270  36.6989382 122.3611314
  58.1057737  23.0754162 102.7367340  58.0936407  24.0196002 102.8935611
  58.9981159  22.8924308 102.4426802  56.2793699  42.9992066 114.1625018
  57.1820946  43.0315676 114.4791513  56.0531069  42.0692517 114.1771354
  58.0347301  41.7523053 110.8235097  57.0842932  41.7524914 110.7099469
  58.3379787  41.0055787 110.3071132  61.9209857  19.6696939 106.9913277
  61.1542252  19.1155426 107.1369960  62.3320562  19.7418808 107.8527429
  53.9251618  25.9581735 121.0818458  54.7883079  25.6018540 121.2921783
  53.3517028  25.6195630 121.7693863  73.7699995  47.5883591 111.8880859
  74.4078405  47.4690338 111.1844200  73.6520837  48.5364435 111.9468812
  70.5789701  47.5411019 111.8242384  70.2408212  47.4252084 110.9362919
  71.4479469  47.1402184 111.8043390  66.4376517  49.3946496 107.8139275
  65.8741382  49.3036433 107.0455563  66.3228912  48.5746400 108.2941768
  71.0609484  48.6945871 117.7828590  71.0498125  48.2998669 116.9109093
  71.2230123  47.9611944 118.3762361  63.9840948  50.8897687 110.6523496
  64.7762240  50.5488512 110.2369795  64.2237599  50.9992662 111.5725649
  72.0176075  53.0617463 103.1253740  71.3664055  53.6471544 102.7387754
  72.8120438  53.5923658 103.1848777  65.9431702  50.1506600 103.5240874
  66.7162578  49.6035588 103.3853750  66.2957101  51.0150850 103.7355336
  67.7816745  51.4782983 116.7307774  67.4906611  52.3828614 116.6154440
  68.4173729  51.5199510 117.4451843  68.7072952  48.8559831 113.3209133
  69.3036524  48.6315854 112.6066096  68.7647923  48.1144577 113.9234581
  68.2797980  46.3099267 101.1559324  68.5323501  45.7880788 100.3942787
  67.3422539  46.1465412 101.2586008  73.3241263  45.3135045 108.9634067
  74.1104352  44.8954468 108.6124485  73.5879967  46.2181137 109.1315716
  73.4951340  50.7507895 103.6622724  72.8597173  50.8242522 104.3743629
  73.1648747  51.3401494 102.9841804  78.7249690  45.2510278 109.8667046
  79.4574862  44.6809495 110.1004875  77.9689046  44.8631879 110.3073552
  67.9994269  48.2127373 103.3583699  67.8830527  47.5372276 104.0264784
  68.1096529  47.7259746 102.5415852  70.3425810  47.6737520 107.0630388
  69.9784017  47.1468141 107.7743310  71.1992926  47.2835989 106.8896874
  76.2475111  38.9631852 114.3261655  75.9158435  39.8327263 114.1022870
  75.6520724  38.6468136 115.0055685  69.9831297  42.7027419 102.0591737
  70.1505699  43.5707656 102.4262208  69.7928466  42.8654701 101.1353026
  72.7406630  51.1644398 113.7257567  72.4407353  52.0669437 113.6173375
  72.3957690  50.8976581 114.5778720  66.1919112  47.6158195 109.7594272
  65.2669608  47.4834409 109.9671964  66.4403525  48.3952414 110.2564214
  76.1403774  43.6826938 111.4055005  75.2320651  43.6142347 111.1113766
  76.0891370  44.1598883 112.2336830  69.9620518  45.1585077 103.0438404
  69.8420143  45.6042128 103.8823884  69.2673106  45.5070394 102.4851942
  63.5527923  47.2591469 110.5938061  63.6820304  47.5125948 111.5077473
  62.8725374  47.8519177 110.2742716  67.7227410  57.9288719 106.6928535
  67.6451440  58.8796544 106.7717016  67.1189053  57.5834591 107.3503461
  70.2144640  45.1016584 119.3489902  69.4377974  45.6610504 119.3392767
  70.8535203  45.5873367 119.8704772  78.0065420  41.8843377 113.1832879
  77.3639801  42.1775910 112.5372673  77.5020349  41.7696297 113.9886075
  75.6605584  45.6306550 103.8718738  76.5723440  45.8633937 103.6966435
  75.1515231  46.2143594 103.3093816  68.4691012  47.9102037 118.9107869
  69.2105696  48.4487081 118.6342693  67.7627997  48.5368326 119.0679421
  73.9446352  50.0531178 117.5080030  74.3529708  49.6113588 116.7634663
  73.2223613  49.4783805 117.7614223  70.2977422  44.9903785 114.8813587
  71.1438617  45.4143198 115.0248236  70.2376059  44.3337409 115.5752150
  74.2675166  50.6132368 111.2632319  73.6384029  50.7778083 110.5608387
  73.8800828  51.0273978 112.0343283  78.1464398  51.5486806 108.6176683
  77.4615436  51.9285708 108.0673716  78.2308247  52.1582133 109.3508631
  73.4476867  42.6508153 116.5394761  73.2037799  43.4050213 116.0029037
  73.7236797  43.0293501 117.3742008  75.4015330  49.1946765 115.2172027
  75.6132225  49.8378525 114.5406408  75.3545078  48.3609082 114.7493957
  73.0041559  41.8064586 112.1208599  72.1426038  42.1045840 112.4125336
  73.0303993  42.0234985 111.1889631  69.8203128  50.3506777 108.5282404
  70.2841474  50.6294480 107.7387027  69.5559926  49.4490221 108.3455495
  66.7127209  49.8978258 111.4662168  67.2828566  50.3265526 110.8279652
  67.3035321  49.6160843 112.1646353  68.7572014  46.4729929 105.3371970
  69.4596058  46.9250973 105.8045896  68.4252643  45.8313748 105.9651863
  67.2052376  45.0641686 119.7123179  66.5751036  45.7457966 119.9458576
  67.0988464  44.9524767 118.7676317  62.4997348  44.7313482 110.6389103
  61.7096402  44.9871010 110.1629214  62.9908595  45.5461819 110.7441144
  76.5161158  52.0718721 113.3894384  77.3378601  51.6698908 113.1077066
  76.5123561  51.9686955 114.3410500  64.4512094  45.0958061 107.5972580
  63.6543257  45.2076755 108.1156075  64.2237686  45.4344713 106.7313470
  70.2817761  51.6202764 115.5455094  70.3462194  52.0823171 116.3813266
  69.5728685  50.9900129 115.6737404  60.7835051  44.9843972 113.0704094
  61.0343090  45.8690982 113.3361670  61.3194600  44.8048574 112.2979186
  84.6067151  48.4157469 109.7379355  83.8530859  47.8464867 109.5823360
  84.7414692  48.3820134 110.6849990  69.9965779  53.2870872 105.4134075
  69.8611454  54.1322407 105.8418923  70.5375591  53.4890149 104.6500009
  66.4833118  39.3662451 122.0748430  66.0900064  38.8128650 122.7496074
  67.2999259  39.6773030 122.4654948  63.4495176  50.8046310 105.9862000
  63.9619697  51.5989560 106.1367565  64.1017889  50.1072600 105.9195601
  65.2590061  53.9212066 108.0684753  65.4356689  54.8430031 107.8805737
  66.0546894  53.6070485 108.4979133  69.4001079  40.7820330 119.6668687
  70.1410793  41.3827484 119.5873149  69.6319002  40.0397968 119.1086729
  64.5442417  45.9676698 117.9446916  64.4295933  45.0661955 118.2454015
  63.6886935  46.2140394 117.5931733  71.6234255  53.9094438 119.5434417
  71.1798109  53.1230817 119.2255321  72.2851469  54.0973589 118.8778308
  66.3821376  55.4390240 114.0695095  66.9328801  55.3107303 113.2972089
  65.5432852  55.7385129 113.7189988  73.7215493  54.1897238 117.5715818
  73.7033969  55.0106119 117.0796087  74.6435413  54.0651313 117.7965959
  70.1788547  51.7041367 118.4139326  70.7116884  50.9429656 118.1838634
  69.6502628  51.4115019 119.1563481  73.3458242  36.8101433 113.9432968
  73.0022512  37.7003075 113.8672079  73.7137205  36.6203091 113.0802553
  61.4144093  49.1334964 106.7621570  62.2519315  49.5431972 106.5455278
  61.5922361  48.1934406 106.7321764  73.3108525  46.8010044 102.4505403
  72.7955149  47.5714649 102.6893791  73.0385834  46.1275181 103.0738465
  70.8955636  41.6459745 107.5090642  70.0397232  41.2566596 107.3296280
  71.3082588  41.7251706 106.6490427  72.4254783  39.1806089 111.9082201
  71.9219578  39.1436224 111.0950007  72.7185390  40.0898831 111.9678858
  68.6697669  39.2644818 110.9148383  69.5350665  39.0687627 110.5554273
  68.7375178  39.0355170 111.8417740  78.2842799  49.5542399 104.3858577
  77.5072242  49.2153559 103.9413739  78.9634280  49.5595022 103.7113542
  73.0994828  44.6737137 104.2765185  72.7944964  44.9883286 105.1275328
  74.0525270  44.7518556 104.3192518  71.5441260  50.8327360 105.9258138
  71.0162622  50.0980119 105.6131376  71.0428763  51.6102036 105.6798107
  76.5234106  49.0276380 111.0425185  75.8657781  49.7175642 111.1305313
  77.3274505  49.4172812 111.3859171  66.2759988  41.4947026 108.2864750
  66.8503740  41.2722208 107.5537943  66.8630970  41.5635721 109.0393351
  75.3339565  47.3820753 109.0929127  75.8471447  48.0150745 109.5950836
  75.9840789  46.7821949 108.7272487  66.6029575  43.5251487 102.3060635
  65.7666887  43.8626174 102.6269910  66.4634344  43.3900467 101.3687772
  68.5782655  38.3688275 107.0139819  67.9247068  38.0537292 106.3896434
  68.5363130  37.7464016 107.7399642  69.6893860  48.6507570  98.9293112
  68.7820922  48.4196824  99.1284261  70.1864892  47.8545189  99.1167093
  72.5961939  57.3605077 101.8489798  71.9223638  57.6636774 102.4574756
  72.9827761  58.1634158 101.4995255  71.8120396  44.8570209 111.3387467
  70.8942957  45.0785156 111.1809155  72.2280539  44.9316519 110.4799174
  72.5955444  46.2561624 106.4690147  73.3427262  46.7683022 106.1597269
  72.8647033  45.9345677 107.3294541  70.8682094  48.7520165 103.4517102
  69.9593313  48.4679198 103.5489571  70.8977178  49.1719244 102.5920408
  76.1001361  52.3626755 107.2208269  75.6463688  51.5217664 107.2773460
  75.4695328  52.9988153 107.5583049  75.0434281  43.2918741 108.4508937
  74.3057037  42.7796127 108.7819179  75.2961054  42.8519122 107.6392214
  74.5434300  54.2003251 108.1558087  74.8357275  54.7608308 107.4370453
  75.0532921  54.4931812 108.9111246  75.1445908  36.0694993 109.0450706
  75.4504785  35.2092356 108.7576621  75.8698513  36.6612613 108.8449700
  61.4370264  46.4725679 107.4332304  61.2394664  45.8795040 106.7083370
  60.8816928  46.1677889 108.1508243  69.4166988  46.3648786 109.5526897
  69.4715598  45.4122622 109.4769374  68.6058190  46.5208225 110.0368195
  70.5658182  50.2928909 100.7905180  70.1277611  49.5764768 100.3310818
  71.3068622  50.5205024 100.2290272  67.3559348  44.9825845 107.3117276
  66.5427213  45.2820016 107.7182468  67.8518342  44.5881534 108.0291758
  69.5067926  54.9783602 109.2451541  69.4644104  55.2044449 108.3160073
  70.4230624  54.7446977 109.3937342  72.9533559  45.4467670 116.1432170
  73.3082947  45.6739143 117.0026635  73.6005691  45.7786047 115.5209425
  78.6831296  48.5686106 106.8481499  78.5449195  48.7587702 105.9202688
  78.3267515  49.3305489 107.3049550  66.8473422  42.5544201 112.9278511
  67.4872802  42.4132960 112.2301474  66.0150953  42.2678714 112.5517113
  78.7100676  50.6362633 111.8592770  79.1437183  50.5437922 112.7075824
  79.4232257  50.6120133 111.2212786  67.6233726  51.8546631 109.0413503
  68.4174325  51.3596951 108.8396078  66.9125419  51.3264494 108.6781209
  72.4428571  54.2364727 113.3925871  72.4965593  54.8055663 114.1603587
  71.5743352  54.4066612 113.0279908  63.9316490  45.9989713 105.1173256
  63.0014078  45.9374169 105.3343218  64.0273962  45.4765666 104.3209897
  63.8502039  42.5244526 107.7051498  64.1108856  43.4389859 107.5960658
  64.6719211  42.0568968 107.8548110  65.3226964  43.9382283 114.8750322
  65.9950018  43.7299645 114.2262971  64.4956751  43.7404369 114.4355554
  79.5716225  50.6786333 114.3925656  79.7652116  51.5832144 114.6384931
  79.4716844  50.2193752 115.2264241  71.2252536  40.5644224 116.8915983
  70.5780451  41.2634174 116.7980459  71.9953552  40.9980368 117.2592231
  74.6331334  50.8293076 119.9666536  74.4816841  50.6003628 119.0496620
  74.6236014  51.7863678 119.9797881  71.4016671  48.4024989 114.9512803
  72.3308731  48.5536149 114.7781770  70.9807701  48.4909010 114.0961449
  70.2005002  52.4275653 112.7211340  70.0616088  52.0594438 113.5937278
  69.4119599  52.9423293 112.5495298  70.7953154  57.5284750 104.0636877
  70.9704910  57.0572793 104.8782500  70.1085942  58.1550516 104.2918138
  71.7510217  51.8057256 110.1100178  71.4160050  51.7658026 111.0057828
  71.2514163  51.1401972 109.6370588  65.7254461  47.2124886 115.6352759
  65.5874259  46.4805125 116.2364298  66.6359385  47.1233786 115.3536947
  68.3536762  46.9244845 115.1236439  69.0636381  46.2838038 115.0823057
  68.3106070  47.1757740 116.0462620  76.3423541  53.8612199 118.0443018
  76.2836087  53.1771419 117.3773601  76.7443059  54.6031189 117.5923644
  67.0665696  43.9110063 116.9432078  66.5303053  43.4600802 117.5953675
  66.4782405  44.0455972 116.2002543  65.3614240  60.6774113 110.8376737
  65.6010838  61.3092637 111.5155756  64.5183436  60.3262153 111.1242096
  66.4767955  43.3698715  99.5058542  65.5997421  43.2487515  99.1420789
  66.9525708  42.5784793  99.2537431  76.3440948  51.8251783 116.2756998
  75.4567727  51.4877704 116.3983397  76.9139499  51.0934814 116.5125763
  57.9970095  48.1575874 109.6000049  58.6841135  47.8437604 109.0121065
  57.8418224  49.0617239 109.3267301  62.8004817  43.0466071 114.0285073
  62.7163006  42.4391741 113.2935483  61.9787524  43.5375089 114.0294569
  69.8742101  56.4853235 113.2418241  69.8012273  57.2908206 113.7537546
  69.4319495  56.6845201 112.4166262  69.6631881  55.7225005 106.7521063
  68.8799403  56.2646685 106.8459287  70.3624626  56.2398985 107.1515304
  72.9728531  41.5319634 109.3955268  73.4697231  40.7789597 109.0756338
  72.2015513  41.5683951 108.8298477  80.8258289  47.2360000 111.0373559
  80.8148165  48.1184715 110.6667493  79.9575668  46.8831551 110.8428097
  72.3340785  56.3840069 115.3976400  73.0468757  57.0187534 115.3252301
  71.8430814  56.4803935 114.5816402  74.0558312  50.2891322 106.9693691
  73.1214591  50.4092784 106.7998396  74.2334980  49.3863788 106.7053701
  69.5563500  43.6737017 109.1226953  69.1861287  43.1208058 109.8107858
  70.0522592  43.0695151 108.5701953  77.4430863  46.1308641 107.5043726
  77.9091315  46.9636633 107.4304028  77.8938364  45.6653623 108.2088984
  67.3852699  54.1334512 116.2181971  68.0862158  54.7670995 116.3711365
  66.9147813  54.4749244 115.4577610  75.5107094  52.4752462 104.5029878
  75.7866938  52.3609057 105.4123752  74.6411593  52.0769947 104.4642051
  75.4147526  38.4989228 111.5434627  74.5010606  38.7293455 111.7116834
  75.8440627  38.5827672 112.3948659  75.1853984  46.6879120 114.0434521
  74.5325435  46.9355027 113.3886974  75.5634364  45.8743258 113.7096998
  72.1461158  56.7238813 108.1462691  72.3283553  55.9060469 108.6090443
  72.9694144  56.9406505 107.7087581  72.4803324  55.6506998 105.4077740
  73.0091090  55.1399453 104.7947902  72.7431543  55.3349528 106.2723273
  71.2341557  47.4298931 120.5300558  70.5582195  47.3293060 121.2002933
  72.0569191  47.2738145 120.9936555  62.9820417  53.6670868 113.1513073
  63.5673853  52.9214555 113.2840977  62.7845255  53.9774824 114.0349737
  65.8359072  56.7022115 108.1675516  65.1669447  57.1868243 107.6839556
  65.6971941  56.9491335 109.0818894  57.5738071  46.2376468 111.8717516
  57.6122171  45.7040058 112.6654634  57.0678364  45.7111673 111.2528494
  69.9764340  58.7365858 114.7658174  70.5282648  58.8997480 115.5307259
  70.3170534  59.3270296 114.0938199  64.9528834  41.0841008 115.3680059
  65.0170160  41.9455839 114.9557456  64.8895954  40.4715010 114.6352417
  64.4281106  43.1564141 119.0153093  65.0553145  42.7741218 119.6290617
  63.5709025  42.9378343 119.3808785  74.8275215  53.5627116 120.6206828
  75.3715119  54.1757074 120.1261783  74.2462060  54.1206694 121.1373841
  61.2046649  44.9640570 104.9471448  61.5000090  44.0551248 104.8938501
  60.3034685  44.9428309 104.6252450  73.1132728  56.6847834 111.7521856
  72.9883867  55.8837574 111.2432802  73.7711819  57.1794027 111.2635826
  64.7340896  43.0396566 110.9298996  64.0127482  43.6532534 110.7906470
  65.5234152  43.5754331 110.8515642  75.1767636  54.4856854 113.3801406
  74.2297972  54.3662205 113.3079733  75.5250409  53.5979352 113.4627668
  67.5367209  40.3750993 117.2039648  68.0601611  40.6213290 117.9665957
  67.3179543  41.2071028 116.7842785  62.9334490  42.6454668 105.0710773
  62.6047197  41.7652046 104.8885879  63.2873861  42.5902336 105.9587162
  72.1814069  54.2809570 109.5805758  72.0339032  53.3526278 109.7613328
  73.0067563  54.3029661 109.0962834  66.0476314  42.9327637 105.4386251
  66.3872386  43.4613559 104.7164859  66.4948434  43.2708043 106.2144817
  75.7848191  55.1038129 110.6670631  76.7094739  54.8980990 110.5295082
  75.6163495  54.8554530 111.5759973  68.7419754  41.3164688 114.8889319
  68.4016575  40.5172501 115.2909998  68.0358761  41.6166399 114.3166152
  69.3936226  38.4014000 113.3416642  70.2162296  37.9274479 113.2195532
  69.6374290  39.1804484 113.8415328  68.0344461  41.4302259 103.6379543
  68.7552823  41.8083512 103.1343260  67.4109765  42.1491136 103.7414521
  72.1775584  42.1347408 104.5737876  72.3939198  43.0172046 104.2726704
  71.6969651  41.7433621 103.8443518  66.9174805  45.0933121 111.1508620
  66.7719386  45.4073424 112.0432902  66.4400009  45.7118021 110.5979519
  68.7771188  42.0835669 111.1989510  68.7632757  41.1876762 110.8621808
  69.4943616  42.0906333 111.8327796  70.6297319  42.5173009 113.2442637
  70.3715096  43.4390080 113.2426968  70.0982359  42.1203444 113.9343101
  75.5743507  55.6223796 106.0232723  75.7480385  55.0570219 105.2706575
  76.0672399  56.4224691 105.8412213  61.3920467  47.6338466 114.0896281
  60.8473935  48.4098274 114.2216556  62.2699817  47.9809270 113.9315403
  68.1808084  40.9650049 106.4677080  68.3023995  40.0366696 106.6667967
  67.8910126  40.9788735 105.5555395  71.0499274  38.6504960 109.6043800
  71.0720971  38.7144293 108.6495779  71.4667333  37.8109468 109.7984306
  81.4282899  48.3860219 107.6423022  81.8714045  47.6367545 107.2442146
  80.5509409  48.3770356 107.2596754  76.5618680  54.9390561 103.1229621
  77.2569585  55.5597254 103.3416936  76.9041830  54.0885912 103.3981999
  62.1786489  46.7608362 116.9826438  61.4368225  46.9090997 117.5691069
  61.8579233  47.0216627 116.1193188  78.4610103  52.3890266 104.6516952
  78.9861427  52.7277539 103.9266272  78.3732456  51.4537282 104.4680086
  70.1230152  56.3024340 116.7806828  70.4317278  56.0573487 117.6529528
  70.9205634  56.5070979 116.2925699  70.1450764  58.4562250 109.0112205
  69.7055754  57.9638628 109.7045062  70.8958881  57.9135217 108.7704280
  62.6243103  54.6473791 109.0136833  63.4501123  54.3477562 108.6335476
  62.2737155  53.8781413 109.4626622  67.5924636  54.0000259 111.0834507
  66.9704645  53.3370964 110.7836734  68.2629503  54.0261391 110.4008154
  60.8251708  52.5660117 109.9725767  59.9883616  52.1382291 109.7909768
  60.7975353  52.7592560 110.9096558  67.6649163  42.4782047 120.6767013
  67.7137319  43.3544170 120.2944782  68.2071678  41.9359440 120.1038656
  78.1504009  53.0223170 119.9568150  77.3599553  53.0047309 119.4172649
  77.9137364  53.5611464 120.7117186  78.2701884  49.8715636 117.2700878
  78.3199889  49.7065644 118.2116401  78.1615807  49.0042895 116.8798759
  67.1538143  52.5504182 104.5592967  67.3026263  53.2339646 103.9059640
  67.9604586  52.5309272 105.0742423  75.5605647  45.8546564 118.5860185
  76.4615509  45.7153029 118.2944183  75.6353621  46.0201019 119.5258362
  69.8948452  43.2313419 117.4313371  69.0251761  43.5246985 117.1595960
  70.1307932  43.8153864 118.1520635  79.7720081  52.2912578 117.5142900
  79.4804889  52.6542558 118.3506361  79.1592212  51.5779586 117.3356232
  80.9715763  49.8565458 110.0345470  81.8062655  50.2955262 110.1983030
  81.1074892  49.3804111 109.2153716  78.0207269  47.4145193 115.9822958
  78.4961391  47.6072839 115.1741809  77.0972835  47.4704378 115.7366341
  64.9090776  48.5769360 105.5654036  64.6636818  47.6731690 105.7634246
  65.0786690  48.5786510 104.6233514  72.5987486  39.4493036 114.9478792
  73.1169430  40.1854063 114.6225280  72.2442618  39.7557029 115.7825551
  64.1786423  44.3097717 103.0640197  63.4855668  44.3842072 102.4080233
  63.9338175  43.5458061 103.5861714  72.8500080  35.8693319 110.4679688
  73.1301834  35.2016508 111.0940115  73.6350687  36.0622414 109.9554352
  70.6533548  55.0452313 102.0304714  70.0807515  55.6642500 101.5775186
  71.2266342  55.5951674 102.5644636  76.7208938  44.2910953 114.2151263
  77.6726361  44.3909050 114.2363487  76.5512389  43.4989221 114.7249348
  74.7423318  41.3766536 114.4010664  74.1473250  41.6571549 113.7057153
  74.4573014  41.8660437 115.1727405  73.8730808  55.3289463 103.1613297
  74.8061481  55.2635024 103.3646172  73.7854021  56.1645730 102.7027829
  76.5018825  54.6455333 100.1217244  76.4232456  54.3115197 101.0153002
  77.3228492  55.1377101 100.1208717  79.1997016  47.5117072 113.3293563
  79.1673336  46.5733073 113.5153247  79.8097640  47.5901109 112.5959388
  71.0380347  46.3813125  99.3720767  71.9839452  46.2519333  99.4409185
  70.6594592  45.6427787  99.8490195  79.3491504  44.3028116 113.3751846
  78.8330553  43.5186572 113.1881775  80.2331453  43.9746832 113.5398366
  77.0102231  38.0469131 109.3347659  76.8127053  37.7384220 110.2190991
  77.6201937  38.7730770 109.4645589  85.0173566  48.5733079 112.4699600
  85.7476954  48.3118367 113.0307303  84.4080511  47.8361801 112.5101668
  83.0988863  46.7140942 113.0674051  82.3722027  46.5796907 112.4590543
  82.6836150  47.0217770 113.8730769  70.9219039  50.4330871 120.8321424
  71.8422049  50.6109470 121.0261470  70.8868622  49.4886917 120.6801123
  69.2223264  44.3063102  99.3075652  68.3154719  44.0096214  99.3838366
  69.4999245  44.0092920  98.4409938  60.1401204  45.6269465 109.7574699
  59.8203989  44.7734773 109.4649073  59.5934633  45.8418043 110.5132666
  63.9181112  48.3431906 113.4744205  64.1367122  49.2749014 113.4932239
  64.3306886  47.9839880 114.2599009  70.8385330  38.8499991 105.4619894
  70.0286058  38.5047076 105.8375140  71.5269747  38.5407535 106.0507505
  72.7675878  37.9278038 107.0844190  73.3206917  38.3473492 107.7434213
  73.0045964  37.0013786 107.1267146  68.7908977  43.9165112 122.8646954
  68.6905704  44.8659469 122.7959045  68.5730519  43.5883351 121.9923024
  67.9922049  41.1650037  99.4487631  68.8541213  41.4904935  99.7083449
  68.1772393  40.3781533  98.9360697  60.0089464  49.2472377 111.7267820
  59.3152936  48.8326329 111.2137775  60.7562455  49.2892913 111.1301239
  76.1454685  40.0378563 106.5922854  75.5653354  40.6963367 106.2100907
  75.8790618  39.2155908 106.1810272  74.5958251  39.4383621 108.7944175
  75.0958030  39.5500156 107.9858494  75.2393859  39.1344674 109.4344983
  68.6540247  47.3462251 121.6812016  68.1707329  48.1462611 121.8875905
  68.7401186  47.3570196 120.7279460  61.9226207  49.1790630 109.6033835
  61.8996895  49.2778318 108.6515718  62.2326843  50.0255781 109.9251001
  64.5813585  51.2366785 113.7180449  65.5356838  51.2050728 113.6510381
  64.3826108  50.7757409 114.5330675  65.1712967  49.8067901 116.2851247
  65.9905856  50.3011980 116.3086084  65.4449775  48.8899870 116.2568815
  74.9279563  42.1978654 105.6479203  74.0405418  42.4828304 105.4299397
  75.3433552  42.0372417 104.8006480  78.2794099  42.2225175 109.3633542
  79.0554489  42.7121627 109.6358159  77.5542233  42.6483229 109.8205411
  80.7166658  42.9352794 110.4207483  81.3111149  42.6948530 109.7100791
  80.7893242  42.2159925 111.0481019  62.9363814  56.7786405 110.7350647
  62.8018281  56.0186806 110.1688645  62.5195876  57.5027305 110.2679436
  74.9020587  47.7133190 105.8629493  74.8455788  48.1701741 105.0237125
  75.4548929  46.9523874 105.6852336  78.7125393  43.5022922 106.6879612
  78.4562327  43.1019557 107.5187820  78.0878261  44.2166715 106.5629751
  83.0237731  46.2418995 109.1950904  82.4637289  46.3112184 109.9682466
  82.4181234  46.0659979 108.4750400  66.0932939  57.6755722 110.9469090
  65.9765324  58.6201154 110.8447780  65.2725386  57.3729283 111.3354889
  75.9809474  52.4005858 101.7925683  76.8155078  51.9687056 101.6103158
  75.8193817  52.2287871 102.7202577  75.6355366  48.9037971 103.1582022
  75.5804170  48.7382242 102.2170466  75.0101421  49.6114004 103.3144212
  60.4247881  44.1406035 116.9843444  61.0706745  43.6304989 117.4730669
  60.2165032  44.8774717 117.5586869  72.9501273  51.2086883 122.4835585
  73.8192433  51.3827535 122.1222220  72.4708025  52.0281300 122.3611314
  68.9451492  38.4046080 102.7367340  68.9330161  39.3487920 102.8935611
  69.8374913  38.2216225 102.4426802  67.1187454  58.3283984 114.1625018
  68.0214700  58.3607594 114.4791513  66.8924824  57.3984435 114.1771354
  68.8741056  57.0814970 110.8235097  67.9236687  57.0816832 110.7099469
  69.1773542  56.3347705 110.3071132  72.7603611  34.9988857 106.9913277
  71.9936007  34.4447343 107.1369960  73.1714316  35.0710725 107.8527429
  64.7645372  41.2873652 121.0818458  65.6276834  40.9310457 121.2921783
  64.1910783  40.9487547 121.7693863  84.6093749  62.9175509 111.8880859
  85.2472159  62.7982256 111.1844200  84.4914592  63.8656353 111.9468812
  81.4183455  62.8702937 111.8242384  81.0801967  62.7544002 110.9362919
  82.2873224  62.4694102 111.8043390  77.2770271  64.7238413 107.8139275
  76.7135136  64.6328350 107.0455563  77.1622666  63.9038318 108.2941768
  81.9003238  64.0237789 117.7828590  81.8891879  63.6290587 116.9109093
  82.0623878  63.2903861 118.3762361  74.8234703  66.2189605 110.6523496
  75.6155995  65.8780429 110.2369795  75.0631353  66.3284580 111.5725649
  82.8569830  68.3909381 103.1253740  82.2057810  68.9763461 102.7387754
  83.6514193  68.9215576 103.1848777  76.7825457  65.4798518 103.5240874
  77.5556333  64.9327505 103.3853750  77.1350856  66.3442767 103.7355336
  78.6210499  66.8074900 116.7307774  78.3300365  67.7120531 116.6154440
  79.2567484  66.8491428 117.4451843  79.5466706  64.1851749 113.3209133
  80.1430279  63.9607771 112.6066096  79.6041678  63.4436494 113.9234581
  79.1191735  61.6391184 101.1559324  79.3717255  61.1172705 100.3942787
  78.1816294  61.4757330 101.2586008  84.1635018  60.6426963 108.9634067
  84.9498107  60.2246386 108.6124485  84.4273722  61.5473055 109.1315716
  84.3345095  66.0799813 103.6622724  83.6990928  66.1534439 104.3743629
  84.0042501  66.6693412 102.9841804  89.5643445  60.5802196 109.8667046
  90.2968617  60.0101413 110.1004875  88.8082800  60.1923796 110.3073552
  78.8388023  63.5419290 103.3583699  78.7224282  62.8664194 104.0264784
  78.9490283  63.0551664 102.5415852  81.1819564  63.0029437 107.0630388
  80.8177772  62.4760058 107.7743310  82.0386680  62.6127906 106.8896874
  87.0868865  54.2923770 114.3261655  86.7552190  55.1619181 114.1022870
  86.4914478  53.9760054 115.0055685  80.8225051  58.0319337 102.0591737
  80.9899454  58.8999573 102.4262208  80.6322220  58.1946619 101.1353026
  83.5800385  66.4936316 113.7257567  83.2801108  67.3961355 113.6173375
  83.2351444  66.2268499 114.5778720  77.0312866  62.9450113 109.7594272
  76.1063363  62.8126327 109.9671964  77.2797279  63.7244332 110.2564214
  86.9797528  59.0118856 111.4055005  86.0714406  58.9434264 111.1113766
  86.9285124  59.4890801 112.2336830  80.8014272  60.4876994 103.0438404
  80.6813897  60.9334045 103.8823884  80.1066861  60.8362312 102.4851942
  74.3921677  62.5883386 110.5938061  74.5214058  62.8417865 111.5077473
  73.7119128  63.1811094 110.2742716  78.5621164  73.2580636 106.6928535
  78.4845194  74.2088461 106.7717016  77.9582808  72.9126509 107.3503461
  81.0538394  60.4308502 119.3489902  80.2771728  60.9902422 119.3392767
  81.6928957  60.9165285 119.8704772  88.8459175  57.2135294 113.1832879
  88.2033555  57.5067828 112.5372673  88.3414103  57.0988215 113.9886075
  86.4999338  60.9598468 103.8718738  87.4117195  61.1925854 103.6966435
  85.9908985  61.5435512 103.3093816  79.3084766  63.2393955 118.9107869
  80.0499451  63.7778999 118.6342693  78.6021752  63.8660244 119.0679421
  84.7840106  65.3823095 117.5080030  85.1923462  64.9405506 116.7634663
  84.0617368  64.8075723 117.7614223  81.1371176  60.3195702 114.8813587
  81.9832371  60.7435116 115.0248236  81.0769814  59.6629327 115.5752150
  85.1068921  65.9424286 111.2632319  84.4777783  66.1070000 110.5608387
  84.7194583  66.3565896 112.0343283  88.9858153  66.8778724 108.6176683
  88.3009191  67.2577625 108.0673716  89.0702002  67.4874051 109.3508631
  84.2870621  57.9800071 116.5394761  84.0431553  58.7342131 116.0029037
  84.5630552  58.3585418 117.3742008  86.2409084  64.5238683 115.2172027
  86.4525979  65.1670443 114.5406408  86.1938832  63.6901000 114.7493957
  83.8435313  57.1356504 112.1208599  82.9819792  57.4337757 112.4125336
  83.8697748  57.3526903 111.1889631  80.6596883  65.6798694 108.5282404
  81.1235228  65.9586397 107.7387027  80.3953681  64.7782139 108.3455495
  77.5520964  65.2270176 111.4662168  78.1222321  65.6557444 110.8279652
  78.1429076  64.9452760 112.1646353  79.5965769  61.8021847 105.3371970
  80.2989812  62.2542890 105.8045896  79.2646397  61.1605665 105.9651863
  78.0446130  60.3933603 119.7123179  77.4144791  61.0749884 119.9458576
  77.9382218  60.2816685 118.7676317  73.3391103  60.0605399 110.6389103
  72.5490157  60.3162928 110.1629214  73.8302350  60.8753737 110.7441144
  87.3554912  67.4010638 113.3894384  88.1772356  66.9990826 113.1077066
  87.3517315  67.2978873 114.3410500  75.2905848  60.4249978 107.5972580
  74.4937011  60.5368673 108.1156075  75.0631440  60.7636631 106.7313470
  81.1211516  66.9494682 115.5455094  81.1855948  67.4115089 116.3813266
  80.4122439  66.3192047 115.6737404  71.6228806  60.3135890 113.0704094
  71.8736844  61.1982900 113.3361670  72.1588354  60.1340491 112.2979186
  95.4460905  63.7449387 109.7379355  94.6924614  63.1756785 109.5823360
  95.5808446  63.7112051 110.6849990  80.8359533  68.6162789 105.4134075
  80.7005208  69.4614325 105.8418923  81.3769346  68.8182067 104.6500009
  77.3226873  54.6954369 122.0748430  76.9293818  54.1420568 122.7496074
  78.1393013  55.0064948 122.4654948  74.2888931  66.1338227 105.9862000
  74.8013451  66.9281477 106.1367565  74.9411643  65.4364518 105.9195601
  76.0983815  69.2503984 108.0684753  76.2750444  70.1721948 107.8805737
  76.8940649  68.9362403 108.4979133  80.2394834  56.1112248 119.6668687
  80.9804547  56.7119401 119.5873149  80.4712757  55.3689886 119.1086729
  75.3836172  61.2968615 117.9446916  75.2689687  60.3953873 118.2454015
  74.5280690  61.5432312 117.5931733  82.4628010  69.2386356 119.5434417
  82.0191864  68.4522734 119.2255321  83.1245223  69.4265506 118.8778308
  77.2215131  70.7682157 114.0695095  77.7722556  70.6399221 113.2972089
  76.3826607  71.0677046 113.7189988  84.5609248  69.5189156 117.5715818
  84.5427723  70.3398037 117.0796087  85.4829168  69.3943231 117.7965959
  81.0182302  67.0333285 118.4139326  81.5510639  66.2721573 118.1838634
  80.4896383  66.7406937 119.1563481  84.1851997  52.1393351 113.9432968
  83.8416266  53.0294993 113.8672079  84.5530959  51.9495009 113.0802553
  72.2537847  64.4626882 106.7621570  73.0913069  64.8723890 106.5455278
  72.4316115  63.5226324 106.7321764  84.1502280  62.1301962 102.4505403
  83.6348903  62.9006567 102.6893791  83.8779588  61.4567098 103.0738465
  81.7349391  56.9751663 107.5090642  80.8790987  56.5858513 107.3296280
  82.1476342  57.0543624 106.6490427  83.2648537  54.5098006 111.9082201
  82.7613333  54.4728141 111.0950007  83.5579144  55.4190749 111.9678858
  79.5091423  54.5936736 110.9148383  80.3744420  54.3979545 110.5554273
  79.5768932  54.3647088 111.8417740  89.1236554  64.8834317 104.3858577
  88.3465996  64.5445476 103.9413739  89.8028035  64.8886940 103.7113542
  83.9388583  60.0029054 104.2765185  83.6338718  60.3175203 105.1275328
  84.8919025  60.0810474 104.3192518  82.3835015  66.1619278 105.9258138
  81.8556376  65.4272037 105.6131376  81.8822517  66.9393954 105.6798107
  87.3627861  64.3568298 111.0425185  86.7051535  65.0467559 111.1305313
  88.1668260  64.7464730 111.3859171  77.1153742  56.8238944 108.2864750
  77.6897494  56.6014125 107.5537943  77.7024725  56.8927638 109.0393351
  86.1733319  62.7112671 109.0929127  86.6865201  63.3442663 109.5950836
  86.8234543  62.1113866 108.7272487  77.4423329  58.8543405 102.3060635
  76.6060642  59.1918091 102.6269910  77.3028099  58.7192385 101.3687772
  79.4176410  53.6980193 107.0139819  78.7640822  53.3829210 106.3896434
  79.3756884  53.0755933 107.7399642  80.5287615  63.9799488  98.9293112
  79.6214677  63.7488741  99.1284261  81.0258647  63.1837107  99.1167093
  83.4355694  72.6896995 101.8489798  82.7617392  72.9928692 102.4574756
  83.8221516  73.4926075 101.4995255  82.6514150  60.1862126 111.3387467
  81.7336712  60.4077073 111.1809155  83.0674294  60.2608437 110.4799174
  83.4349198  61.5853542 106.4690147  84.1821017  62.0974939 106.1597269
  83.7040788  61.2637595 107.3294541  81.7075848  64.0812083 103.4517102
  80.7987067  63.7971116 103.5489571  81.7370932  64.5011161 102.5920408
  86.9395116  67.6918672 107.2208269  86.4857443  66.8509582 107.2773460
  86.3089082  68.3280071 107.5583049  85.8828035  58.6210658 108.4508937
  85.1450792  58.1088044 108.7819179  86.1354809  58.1811040 107.6392214
  85.3828055  69.5295169 108.1558087  85.6751029  70.0900226 107.4370453
  85.8926675  69.8223730 108.9111246  85.9839662  51.3986910 109.0450706
  86.2898539  50.5384274 108.7576621  86.7092267  51.9904530 108.8449700
  72.2764019  61.8017597 107.4332304  72.0788418  61.2086958 106.7083370
  71.7210683  61.4969807 108.1508243  80.2560742  61.6940703 109.5526897
  80.3109352  60.7414540 109.4769374  79.4451944  61.8500142 110.0368195
  81.4051936  65.6220826 100.7905180  80.9671366  64.9056685 100.3310818
  82.1462377  65.8496941 100.2290272  78.1953102  60.3117763 107.3117276
  77.3820968  60.6111934 107.7182468  78.6912096  59.9173452 108.0291758
  80.3461680  70.3075520 109.2451541  80.3037859  70.5336366 108.3160073
  81.2624379  70.0738895 109.3937342  83.7927314  60.7759588 116.1432170
  84.1476702  61.0031061 117.0026635  84.4399445  61.1077964 115.5209425
  89.5225051  63.8978023 106.8481499  89.3842949  64.0879619 105.9202688
  89.1661270  64.6597406 107.3049550  77.6867177  57.8836119 112.9278511
  78.3266556  57.7424878 112.2301474  76.8544707  57.5970632 112.5517113
  89.5494430  65.9654550 111.8592770  89.9830937  65.8729840 112.7075824
  90.2626011  65.9412051 111.2212786  78.4627481  67.1838549 109.0413503
  79.2568079  66.6888869 108.8396078  77.7519173  66.6556412 108.6781209
  83.2822325  69.5656645 113.3925871  83.3359348  70.1347581 114.1603587
  82.4137107  69.7358530 113.0279908  74.7710244  61.3281631 105.1173256
  73.8407832  61.2666086 105.3343218  74.8667716  60.8057584 104.3209897
  74.6895793  57.8536444 107.7051498  74.9502611  58.7681777 107.5960658
  75.5112966  57.3860886 107.8548110  76.1620719  59.2674201 114.8750322
  76.8343772  59.0591563 114.2262971  75.3350505  59.0696287 114.4355554
  90.4109980  66.0078251 114.3925656  90.6045870  66.9124062 114.6384931
  90.3110598  65.5485670 115.2264241  82.0646291  55.8936142 116.8915983
  81.4174206  56.5926091 116.7980459  82.8347306  56.3272286 117.2592231
  85.4725089  66.1584994 119.9666536  85.3210595  65.9295546 119.0496620
  85.4629768  67.1155595 119.9797881  82.2410425  63.7316907 114.9512803
  83.1702485  63.8828066 114.7781770  81.8201455  63.8200927 114.0961449
  81.0398757  67.7567571 112.7211340  80.9009843  67.3886355 113.5937278
  80.2513353  68.2715210 112.5495298  81.6346909  72.8576667 104.0636877
  81.8098664  72.3864711 104.8782500  80.9479697  73.4842434 104.2918138
  82.5903972  67.1349174 110.1100178  82.2553805  67.0949944 111.0057828
  82.0907918  66.4693890 109.6370588  76.5648216  62.5416804 115.6352759
  76.4268014  61.8097043 116.2364298  77.4753139  62.4525704 115.3536947
  85.5263164  64.4805208 100.3837238  84.9092334  63.7552036 100.2870290
  85.0579652  65.2414568 100.0404312  79.1930517  62.2536763 115.1236439
  79.9030135  61.6129955 115.0823057  79.1499825  62.5049658 116.0462620
  87.1817295  69.1904116 118.0443018  87.1229841  68.5063337 117.3773601
  87.5836814  69.9323106 117.5923644  77.9059451  59.2401981 116.9432078
  77.3696808  58.7892719 117.5953675  77.3176159  59.3747890 116.2002543
  76.2007994  76.0066030 110.8376737  76.4404592  76.6384554 111.5155756
  75.3577191  75.6554070 111.1242096  77.3161710  58.6990632  99.5058542
  76.4391176  58.5779433  99.1420789  77.7919463  57.9076711  99.2537431
  87.1834703  67.1543700 116.2756998  86.2961481  66.8169622 116.3983397
  87.7533254  66.4226732 116.5125763  68.8363850  63.4867792 109.6000049
  69.5234890  63.1729522 109.0121065  68.6811978  64.3909157 109.3267301
  73.6398572  58.3757989 114.0285073  73.5556761  57.7683658 113.2935483
  72.8181278  58.8667007 114.0294569  80.7135856  71.8145153 113.2418241
  80.6406027  72.6200124 113.7537546  80.2713249  72.0137118 112.4166262
  80.5025636  71.0516923 106.7521063  79.7193157  71.5938603 106.8459287
  81.2018381  71.5690902 107.1515304  83.8122286  56.8611552 109.3955268
  84.3090985  56.1081514 109.0756338  83.0409267  56.8975869 108.8298477
  91.6652043  62.5651918 111.0373559  91.6541919  63.4476633 110.6667493
  90.7969423  62.2123469 110.8428097  83.1734539  71.7131987 115.3976400
  83.8862512  72.3479452 115.3252301  82.6824568  71.8095853 114.5816402
  84.8952066  65.6183239 106.9693691  83.9608345  65.7384702 106.7998396
  85.0728735  64.7155706 106.7053701  80.3957254  59.0028935 109.1226953
  80.0255042  58.4499976 109.8107858  80.8916347  58.3987069 108.5701953
  88.2824618  61.4600559 107.5043726  88.7485070  62.2928550 107.4304028
  88.7332118  60.9945540 108.2088984  78.2246453  69.4626430 116.2181971
  78.9255912  70.0962913 116.3711365  77.7541568  69.8041162 115.4577610
  86.3500849  67.8044380 104.5029878  86.6260693  67.6900975 105.4123752
  85.4805348  67.4061865 104.4642051  86.2541280  53.8281146 111.5434627
  85.3404360  54.0585372 111.7116834  86.6834382  53.9119590 112.3948659
  86.0247739  62.0171038 114.0434521  85.3719189  62.2646945 113.3886974
  86.4028119  61.2035176 113.7096998  82.9854913  72.0530731 108.1462691
  83.1677307  71.2352387 108.6090443  83.8087899  72.2698423 107.7087581
  83.3197078  70.9798916 105.4077740  83.8484845  70.4691371 104.7947902
  83.5825298  70.6641446 106.2723273  82.0735312  62.7590849 120.5300558
  81.3975949  62.6584978 121.2002933  82.8962946  62.6030062 120.9936555
  73.8214171  68.9962785 113.1513073  74.4067608  68.2506473 113.2840977
  73.6239010  69.3066742 114.0349737  76.6752826  72.0314033 108.1675516
  76.0063202  72.5160160 107.6839556  76.5365696  72.2783253 109.0818894
  68.4131826  61.5668385 111.8717516  68.4515925  61.0331976 112.6654634
  67.9072119  61.0403591 111.2528494  80.8158095  74.0657776 114.7658174
  81.3676403  74.2289398 115.5307259  81.1564288  74.6562214 114.0938199
  75.7922588  56.4132926 115.3680059  75.8563915  57.2747757 114.9557456
  75.7289708  55.8006928 114.6352417  75.2674861  58.4856058 119.0153093
  75.8946899  58.1033136 119.6290617  74.4102779  58.2670260 119.3808785
  85.6668969  68.8919034 120.6206828  86.2108873  69.5048992 120.1261783
  85.0855814  69.4498612 121.1373841  72.0440403  60.2932488 104.9471448
  72.3393844  59.3843166 104.8938501  71.1428439  60.2720227 104.6252450
  83.9526482  72.0139752 111.7521856  83.8277622  71.2129491 111.2432802
  84.6105573  72.5085945 111.2635826  75.5734650  58.3688484 110.9298996
  74.8521236  58.9824452 110.7906470  76.3627906  58.9046249 110.8515642
  86.0161391  69.8148772 113.3801406  85.0691726  69.6954123 113.3079733
  86.3644164  68.9271270 113.4627668  78.3760964  55.7042911 117.2039648
  78.8995366  55.9505207 117.9665957  78.1573297  56.5362945 116.7842785
  73.7728245  57.9746585 105.0710773  73.4440951  57.0943964 104.8885879
  74.1267616  57.9194254 105.9587162  83.0207824  69.6101488 109.5805758
  82.8732786  68.6818195 109.7613328  83.8461317  69.6321579 109.0962834
  76.8870068  58.2619555 105.4386251  77.2266141  58.7905476 104.7164859
  77.3342189  58.5999961 106.2144817  86.6241946  70.4330047 110.6670631
  87.5488493  70.2272908 110.5295082  86.4557249  70.1846448 111.5759973
  79.5813509  56.6456606 114.8889319  79.2410329  55.8464419 115.2909998
  78.8752515  56.9458317 114.3166152  80.2329981  53.7305918 113.3416642
  81.0556050  53.2566396 113.2195532  80.4768044  54.5096402 113.8415328
  78.8738215  56.7594177 103.6379543  79.5946578  57.1375429 103.1343260
  78.2503519  57.4783053 103.7414521  83.0169338  57.4639326 104.5737876
  83.2332953  58.3463963 104.2726704  82.5363405  57.0725539 103.8443518
  77.7568560  60.4225039 111.1508620  77.6113140  60.7365342 112.0432902
  77.2793763  61.0409939 110.5979519  79.6164942  57.4127587 111.1989510
  79.6026511  56.5168680 110.8621808  80.3337371  57.4198251 111.8327796
  81.4691073  57.8464927 113.2442637  81.2108851  58.7681998 113.2426968
  80.9376113  57.4495362 113.9343101  86.4137262  70.9515714 106.0232723
  86.5874139  70.3862137 105.2706575  86.9066153  71.7516609 105.8412213
  72.2314222  62.9630383 114.0896281  71.6867690  63.7390191 114.2216556
  73.1093572  63.3101188 113.9315403  79.0201838  56.2941967 106.4677080
  79.1417750  55.3658613 106.6667967  78.7303881  56.3080653 105.5555395
  81.8893029  53.9796878 109.6043800  81.9114726  54.0436211 108.6495779
  82.3061088  53.1401386 109.7984306  92.2676653  63.7152137 107.6423022
  92.7107799  62.9659462 107.2442146  91.3903163  63.7062273 107.2596754
  87.4012434  70.2682479 103.1229621  88.0963339  70.8889171 103.3416936
  87.7435585  69.4177830 103.3981999  73.0180244  62.0900279 116.9826438
  72.2761980  62.2382915 117.5691069  72.6972988  62.3508545 116.1193188
  89.3003857  67.7182184 104.6516952  89.8255182  68.0569457 103.9266272
  89.2126210  66.7829199 104.4680086  80.9623906  71.6316258 116.7806828
  81.2711033  71.3865404 117.6529528  81.7599388  71.8362896 116.2925699
  80.9844518  73.7854167 109.0112205  80.5449509  73.2930546 109.7045062
  81.7352635  73.2427135 108.7704280  73.4636857  69.9765708 109.0136833
  74.2894877  69.6769480 108.6335476  73.1130909  69.2073331 109.4626622
  78.4318390  69.3292176 111.0834507  77.8098400  68.6662881 110.7836734
  79.1023257  69.3553308 110.4008154  71.6645462  67.8952035 109.9725767
  70.8277371  67.4674209 109.7909768  71.6369108  68.0884478 110.9096558
  78.5042918  57.8073964 120.6767013  78.5531073  58.6836087 120.2944782
  79.0465432  57.2651358 120.1038656  88.9897764  68.3515088 119.9568150
  88.1993307  68.3339227 119.4172649  88.7531118  68.8903381 120.7117186
  89.1095639  65.2007554 117.2700878  89.1593644  65.0357562 118.2116401
  89.0009562  64.3334813 116.8798759  77.9931897  67.8796100 104.5592967
  78.1420018  68.5631564 103.9059640  78.7998341  67.8601190 105.0742423
  86.3999401  61.1838482 118.5860185  87.3009264  61.0444947 118.2944183
  86.4747376  61.3492937 119.5258362  80.7342206  58.5605337 117.4313371
  79.8645516  58.8538903 117.1595960  80.9701687  59.1445782 118.1520635
  90.6113835  67.6204496 117.5142900  90.3198644  67.9834476 118.3506361
  89.9985967  66.9071504 117.3356232  91.8109518  65.1857375 110.0345470
  92.6456409  65.6247179 110.1983030  91.9468647  64.7096029 109.2153716
  88.8601024  62.7437110 115.9822958  89.3355145  62.9364757 115.1741809
  87.9366589  62.7996296 115.7366341  75.7484530  63.9061277 105.5654036
  75.5030572  63.0023607 105.7634246  75.9180445  63.9078428 104.6233514
  83.4381240  54.7784954 114.9478792  83.9563184  55.5145981 114.6225280
  83.0836373  55.0848947 115.7825551  75.0180178  59.6389635 103.0640197
  74.3249423  59.7133990 102.4080233  74.7731930  58.8749979 103.5861714
  83.6893834  51.1985236 110.4679688  83.9695588  50.5308425 111.0940115
  84.4744441  51.3914332 109.9554352  81.4927303  70.3744230 102.0304714
  80.9201270  70.9934417 101.5775186  82.0660096  70.9243592 102.5644636
  87.5602693  59.6202870 114.2151263  88.5120116  59.7200968 114.2363487
  87.3906143  58.8281139 114.7249348  85.5817072  56.7058454 114.4010664
  84.9867004  56.9863466 113.7057153  85.2966769  57.1952354 115.1727405
  84.7124563  70.6581380 103.1613297  85.6455236  70.5926942 103.3646172
  84.6247775  71.4937647 102.7027829  87.3412579  69.9747251 100.1217244
  87.2626211  69.6407114 101.0153002  88.1622246  70.4669019 100.1208717
  90.0390770  62.8408990 113.3293563  90.0067091  61.9024991 113.5153247
  90.6491394  62.9193027 112.5959388  81.8774101  61.7105043  99.3720767
  82.8233206  61.5811251  99.4409185  81.4988346  60.9719705  99.8490195
  90.1885259  59.6320033 113.3751846  89.6724308  58.8478490 113.1881775
  91.0725207  59.3038750 113.5398366  87.8495986  53.3761049 109.3347659
  87.6520807  53.0676137 110.2190991  88.4595691  54.1022688 109.4645589
  95.8567320  63.9024997 112.4699600  96.5870709  63.6410285 113.0307303
  95.2474266  63.1653719 112.5101668  93.9382617  62.0432859 113.0674051
  93.2115781  61.9088824 112.4590543  93.5229904  62.3509688 113.8730769
  81.7612794  65.7622789 120.8321424  82.6815803  65.9401388 121.0261470
  81.7262377  64.8178834 120.6801123  80.0617018  59.6355019  99.3075652
  79.1548474  59.3388132  99.3838366  80.3392999  59.3384837  98.4409938
  70.9794959  60.9561383 109.7574699  70.6597743  60.1026691 109.4649073
  70.4328387  61.1709961 110.5132666  74.7574866  63.6723824 113.4744205
  74.9760876  64.6040932 113.4932239  75.1700640  63.3131798 114.2599009
  81.6779084  54.1791909 105.4619894  80.8679813  53.8338994 105.8375140
  82.3663501  53.8699453 106.0507505  83.6069632  53.2569956 107.0844190
  84.1600671  53.6765409 107.7434213  83.8439719  52.3305704 107.1267146
  79.6302732  59.2457030 122.8646954  79.5299459  60.1951386 122.7959045
  79.4124274  58.9175268 121.9923024  78.8315803  56.4941955  99.4487631
  79.6934967  56.8196853  99.7083449  79.0166147  55.7073450  98.9360697
  70.8483219  64.5764294 111.7267820  70.1546690  64.1618247 111.2137775
  71.5956210  64.6184831 111.1301239  86.9848440  55.3670481 106.5922854
  86.4047109  56.0255285 106.2100907  86.7184372  54.5447826 106.1810272
  85.4352006  54.7675539 108.7944175  85.9351784  54.8792073 107.9858494
  86.0787614  54.4636592 109.4344983  79.4934002  62.6754168 121.6812016
  79.0101083  63.4754528 121.8875905  79.5794941  62.6862113 120.7279460
  72.7619961  64.5082548 109.6033835  72.7390649  64.6070235 108.6515718
  73.0720598  65.3547699 109.9251001  75.4207339  66.5658703 113.7180449
  76.3750593  66.5342645 113.6510381  75.2219863  66.1049327 114.5330675
  76.0106721  65.1359819 116.2851247  76.8299610  65.6303898 116.3086084
  76.2843529  64.2191787 116.2568815  85.7673318  57.5270571 105.6479203
  84.8799173  57.8120222 105.4299397  86.1827307  57.3664335 104.8006480
  89.1187854  57.5517092 109.3633542  89.8948244  58.0413545 109.6358159
  88.3935988  57.9775147 109.8205411  91.5560412  58.2644712 110.4207483
  92.1504903  58.0240448 109.7100791  91.6286996  57.5451842 111.0481019
  73.7757568  72.1078323 110.7350647  73.6412036  71.3478723 110.1688645
  73.3589630  72.8319222 110.2679436  84.9116531  67.2915246  99.7427223
  85.6152381  67.4965249 100.3584878  84.1879180  67.8592008 100.0076306
  85.7414341  63.0425107 105.8629493  85.6849543  63.4993659 105.0237125
  86.2942684  62.2815792 105.6852336  89.5519147  58.8314839 106.6879612
  89.2956081  58.4311475 107.5187820  88.9272015  59.5458633 106.5629751
  93.8631485  61.5710912 109.1950904  93.3031043  61.6404102 109.9682466
  93.2574988  61.3951897 108.4750400  76.9326694  73.0047640 110.9469090
  76.8159078  73.9493072 110.8447780  76.1119140  72.7021201 111.3354889
  86.8203228  67.7297775 101.7925683  87.6548832  67.2978974 101.6103158
  86.6587571  67.5579789 102.7202577  86.4749121  64.2329889 103.1582022
  86.4197924  64.0674160 102.2170466  85.8495176  64.9405922 103.3144212
  71.2641636  59.4697953 116.9843444  71.9100499  58.9596907 117.4730669
  71.0558787  60.2066635 117.5586869  83.7895028  66.5378800 122.4835585
  84.6586187  66.7119453 122.1222220  83.3101779  67.3573217 122.3611314
  79.7845246  53.7337998 102.7367340  79.7723916  54.6779838 102.8935611
  80.6768668  53.5508143 102.4426802  77.9581208  73.6575901 114.1625018
  78.8608455  73.6899512 114.4791513  77.7318578  72.7276352 114.1771354
  79.7134810  72.4106888 110.8235097  78.7630441  72.4108750 110.7099469
  80.0167296  71.6639623 110.3071132  83.5997366  50.3280774 106.9913277
  82.8329761  49.7739261 107.1369960  84.0108071  50.4002643 107.8527429
  75.6039127  56.6165570 121.0818458  76.4670588  56.2602375 121.2921783
  75.0304537  56.2779465 121.7693863  95.4487504  78.2467426 111.8880859
  96.0865914  78.1274174 111.1844200  95.3308346  79.1948270 111.9468812
  92.2577210  78.1994855 111.8242384  91.9195721  78.0835919 110.9362919
  93.1266978  77.7986020 111.8043390  88.1164026  80.0530331 107.8139275
  87.5528891  79.9620268 107.0455563  88.0016421  79.2330235 108.2941768
  92.7396993  79.3529706 117.7828590  92.7285634  78.9582505 116.9109093
  92.9017632  78.6195779 118.3762361  85.6628457  81.5481523 110.6523496
  86.4549749  81.2072347 110.2369795  85.9025108  81.6576498 111.5725649
  89.4604254  82.1366818 116.7307774  89.1694120  83.0412449 116.6154440
  90.0961238  82.1783346 117.4451843  90.3860461  79.5143667 113.3209133
  90.9824033  79.2899689 112.6066096  90.4435432  78.7728412 113.9234581
  89.9585489  76.9683102 101.1559324  90.2111010  76.4464623 100.3942787
  89.0210048  76.8049247 101.2586008  95.0028772  75.9718880 108.9634067
  95.7891861  75.5538303 108.6124485  95.2667476  76.8764972 109.1315716
 100.4037199  75.9094113 109.8667046 101.1362371  75.3393330 110.1004875
  99.6476555  75.5215714 110.3073552  89.6781778  78.8711208 103.3583699
  89.5618036  78.1956111 104.0264784  89.7884038  78.3843582 102.5415852
  92.0213319  78.3321355 107.0630388  91.6571526  77.8051976 107.7743310
  92.8780435  77.9419824 106.8896874  97.9262620  69.6215688 114.3261655
  97.5945944  70.4911099 114.1022870  97.3308233  69.3051972 115.0055685
  91.6618806  73.3611255 102.0591737  91.8293208  74.2291491 102.4262208
  91.4715975  73.5238536 101.1353026  94.4194139  81.8228234 113.7257567
  94.1194862  82.7253272 113.6173375  94.0745199  81.5560417 114.5778720
  87.8706621  78.2742030 109.7594272  86.9457117  78.1418245 109.9671964
  88.1191034  79.0536250 110.2564214  97.8191283  74.3410774 111.4055005
  96.9108160  74.2726182 111.1113766  97.7678879  74.8182719 112.2336830
  91.6408027  75.8168912 103.0438404  91.5207652  76.2625963 103.8823884
  90.9460615  76.1654230 102.4851942  85.2315432  77.9175304 110.5938061
  85.3607813  78.1709783 111.5077473  84.5512883  78.5103012 110.2742716
  91.8932149  75.7600419 119.3489902  91.1165483  76.3194339 119.3392767
  92.5322712  76.2457202 119.8704772  99.6852929  72.5427212 113.1832879
  99.0427309  72.8359745 112.5372673  99.1807858  72.4280132 113.9886075
  97.3393093  76.2890385 103.8718738  98.2510949  76.5217772 103.6966435
  96.8302740  76.8727430 103.3093816  90.1478521  78.5685873 118.9107869
  90.8893205  79.1070917 118.6342693  89.4415506  79.1952161 119.0679421
  95.6233861  80.7115013 117.5080030  96.0317217  80.2697424 116.7634663
  94.9011122  80.1367641 117.7614223  91.9764931  75.6487620 114.8813587
  92.8226126  76.0727033 115.0248236  91.9163568  74.9921244 115.5752150
  95.9462675  81.2716204 111.2632319  95.3171538  81.4361918 110.5608387
  95.5588337  81.6857813 112.0343283  99.8251907  82.2070642 108.6176683
  99.1402945  82.5869543 108.0673716  99.9095756  82.8165968 109.3508631
  95.1264376  73.3091988 116.5394761  94.8825308  74.0634049 116.0029037
  95.4024306  73.6877336 117.3742008  97.0802839  79.8530601 115.2172027
  97.2919734  80.4962361 114.5406408  97.0332587  79.0192917 114.7493957
  94.6829068  72.4648421 112.1208599  93.8213547  72.7629675 112.4125336
  94.7091502  72.6818820 111.1889631  91.4990637  81.0090612 108.5282404
  91.9628983  81.2878315 107.7387027  91.2347435  80.1074056 108.3455495
  88.3914718  80.5562093 111.4662168  88.9616075  80.9849362 110.8279652
  88.9822830  80.2744678 112.1646353  90.4359523  77.1313764 105.3371970
  91.1383566  77.5834808 105.8045896  90.1040152  76.4897583 105.9651863
  88.8839885  75.7225521 119.7123179  88.2538545  76.4041802 119.9458576
  88.7775973  75.6108602 118.7676317  84.1784857  75.3897317 110.6389103
  83.3883911  75.6454845 110.1629214  84.6696104  76.2045655 110.7441144
  98.1948667  82.7302556 113.3894384  99.0166110  82.3282743 113.1077066
  98.1911070  82.6270790 114.3410500  86.1299602  75.7541896 107.5972580
  85.3330766  75.8660590 108.1156075  85.9025195  76.0928548 106.7313470
  91.9605270  82.2786599 115.5455094  92.0249703  82.7407007 116.3813266
  91.2516194  81.6483964 115.6737404  82.4622560  75.6427807 113.0704094
  82.7130599  76.5274817 113.3361670  82.9982108  75.4632409 112.2979186
 106.2854660  79.0741305 109.7379355 105.5318368  78.5048703 109.5823360
 106.4202201  79.0403969 110.6849990  88.1620627  70.0246287 122.0748430
  87.7687573  69.4712485 122.7496074  88.9786768  70.3356865 122.4654948
  86.9377570  84.5795901 108.0684753  87.1144198  85.5013866 107.8805737
  87.7334403  84.2654320 108.4979133  91.0788588  71.4404166 119.6668687
  91.8198302  72.0411319 119.5873149  91.3106511  70.6981804 119.1086729
  86.2229926  76.6260533 117.9446916  86.1083442  75.7245790 118.2454015
  85.3674444  76.8724230 117.5931733  93.3021764  84.5678273 119.5434417
  92.8585618  83.7814652 119.2255321  93.9638978  84.7557424 118.8778308
  88.0608885  86.0974075 114.0695095  88.6116310  85.9691138 113.2972089
  87.2220361  86.3968964 113.7189988  95.4003002  84.8481073 117.5715818
  95.3821478  85.6689954 117.0796087  96.3222922  84.7235149 117.7965959
  91.8576056  82.3625203 118.4139326  92.3904393  81.6013491 118.1838634
  91.3290137  82.0698855 119.1563481  95.0245751  67.4685269 113.9432968
  94.6810021  68.3586910 113.8672079  95.3924714  67.2786926 113.0802553
  83.0931602  79.7918799 106.7621570  83.9306824  80.2015808 106.5455278
  83.2709870  78.8518241 106.7321764  94.9896034  77.4593880 102.4505403
  94.4742657  78.2298484 102.6893791  94.7173342  76.7859016 103.0738465
  92.5743145  72.3043581 107.5090642  91.7184741  71.9150431 107.3296280
  92.9870097  72.3835541 106.6490427  94.1042292  69.8389924 111.9082201
  93.6007087  69.8020059 111.0950007  94.3972899  70.7482667 111.9678858
  90.3485178  69.9228654 110.9148383  91.2138174  69.7271462 110.5554273
  90.4162687  69.6939005 111.8417740  99.9630308  80.2126235 104.3858577
  99.1859751  79.8737394 103.9413739 100.6421789  80.2178858 103.7113542
  94.7782337  75.3320972 104.2765185  94.4732473  75.6467121 105.1275328
  95.7312779  75.4102392 104.3192518  98.2021615  79.6860216 111.0425185
  97.5445290  80.3759477 111.1305313  99.0062014  80.0756648 111.3859171
  87.9547497  72.1530862 108.2864750  88.5291249  71.9306043 107.5537943
  88.5418479  72.2219556 109.0393351  97.0127074  78.0404588 109.0929127
  97.5258956  78.6734580 109.5950836  97.6628298  77.4405784 108.7272487
  88.2817084  74.1835323 102.3060635  87.4454396  74.5210009 102.6269910
  88.1421853  74.0484302 101.3687772  90.2570164  69.0272110 107.0139819
  89.6034577  68.7121128 106.3896434  90.2150639  68.4047851 107.7399642
  91.3681369  79.3091406  98.9293112  90.4608431  79.0780659  99.1284261
  91.8652401  78.5129025  99.1167093  93.4907905  75.5154044 111.3387467
  92.5730466  75.7368991 111.1809155  93.9068048  75.5900354 110.4799174
  94.2742953  76.9145460 106.4690147  95.0214771  77.4266857 106.1597269
  94.5434542  76.5929512 107.3294541  92.5469603  79.4104000 103.4517102
  91.6380822  79.1263033 103.5489571  92.5764686  79.8303079 102.5920408
  96.7221790  73.9502576 108.4508937  95.9844546  73.4379962 108.7819179
  96.9748563  73.5102958 107.6392214  96.8233417  66.7278828 109.0450706
  97.1292294  65.8676191 108.7576621  97.5486022  67.3196448 108.8449700
  83.1157773  77.1309515 107.4332304  82.9182173  76.5378875 106.7083370
  82.5604437  76.8261725 108.1508243  91.0954497  77.0232621 109.5526897
  91.1503107  76.0706457 109.4769374  90.2845699  77.1792060 110.0368195
  92.2445690  80.9512744 100.7905180  91.8065120  80.2348603 100.3310818
  92.9856131  81.1788859 100.2290272  89.0346857  75.6409681 107.3117276
  88.2214722  75.9403851 107.7182468  89.5305851  75.2465370 108.0291758
  94.6321068  76.1051505 116.1432170  94.9870456  76.3322978 117.0026635
  95.2793200  76.4369882 115.5209425 100.3618805  79.2269941 106.8481499
 100.2236704  79.4171537 105.9202688 100.0055024  79.9889324 107.3049550
  88.5260931  73.2128036 112.9278511  89.1660311  73.0716795 112.2301474
  87.6938462  72.9262550 112.5517113 100.3888185  81.2946468 111.8592770
 100.8224692  81.2021757 112.7075824 101.1019766  81.2703969 111.2212786
  89.3021235  82.5130467 109.0413503  90.0961834  82.0180787 108.8396078
  88.5912928  81.9848330 108.6781209  85.6103999  76.6573548 105.1173256
  84.6801587  76.5958004 105.3343218  85.7061471  76.1349501 104.3209897
  85.5289548  73.1828361 107.7051498  85.7896365  74.0973695 107.5960658
  86.3506720  72.7152804 107.8548110  87.0014473  74.5966118 114.8750322
  87.6737527  74.3883481 114.2262971  86.1744260  74.3988204 114.4355554
 101.2503734  81.3370169 114.3925656 101.4439625  82.2415979 114.6384931
 101.1504353  80.8777588 115.2264241  92.9040045  71.2228059 116.8915983
  92.2567960  71.9218009 116.7980459  93.6741061  71.6564203 117.2592231
  96.3118843  81.4876912 119.9666536  96.1604350  81.2587463 119.0496620
  96.3023523  82.4447513 119.9797881  93.0804180  79.0608824 114.9512803
  94.0096240  79.2119984 114.7781770  92.6595210  79.1492845 114.0961449
  91.8792511  83.0859489 112.7211340  91.7403597  82.7178273 113.5937278
  91.0907108  83.6007128 112.5495298  93.4297726  82.4641091 110.1100178
  93.0947559  82.4241861 111.0057828  92.9301672  81.7985807 109.6370588
  87.4041970  77.8708721 115.6352759  87.2661768  77.1388960 116.2364298
  88.3146894  77.7817622 115.3536947  96.3656918  79.8097126 100.3837238
  95.7486089  79.0843954 100.2870290  95.8973407  80.5706486 100.0404312
  90.0324271  77.5828681 115.1236439  90.7423890  76.9421873 115.0823057
  89.9893579  77.8341576 116.0462620  98.0211050  84.5196034 118.0443018
  97.9623596  83.8355254 117.3773601  98.4230568  85.2615024 117.5923644
  88.7453205  74.5693899 116.9432078  88.2090562  74.1184637 117.5953675
  88.1569914  74.7039807 116.2002543  88.1555464  74.0282550  99.5058542
  87.2784930  73.9071351  99.1420789  88.6313217  73.2368628  99.2537431
  98.0228457  82.4835618 116.2756998  97.1355236  82.1461540 116.3983397
  98.5927008  81.7518649 116.5125763  79.6757604  78.8159710 109.6000049
  80.3628644  78.5021440 109.0121065  79.5205733  79.7201074 109.3267301
  84.4792326  73.7049906 114.0285073  84.3950515  73.0975576 113.2935483
  83.6575033  74.1958925 114.0294569  91.5529610  87.1437070 113.2418241
  91.4799782  87.9492042 113.7537546  91.1107004  87.3429036 112.4166262
  94.6516040  72.1903470 109.3955268  95.1484740  71.4373432 109.0756338
  93.8803022  72.2267786 108.8298477 102.5045798  77.8943835 111.0373559
 102.4935674  78.7768551 110.6667493 101.6363177  77.5415386 110.8428097
  94.0128294  87.0423904 115.3976400  94.7256266  87.6771369 115.3252301
  93.5218323  87.1387770 114.5816402  95.7345821  80.9475157 106.9693691
  94.8002100  81.0676620 106.7998396  95.9122489  80.0447624 106.7053701
  91.2351009  74.3320853 109.1226953  90.8648796  73.7791893 109.8107858
  91.7310101  73.7278986 108.5701953  99.1218372  76.7892476 107.5043726
  99.5878824  77.6220468 107.4304028  99.5725873  76.3237458 108.2088984
  89.0640207  84.7918348 116.2181971  89.7649667  85.4254831 116.3711365
  88.5935322  85.1333079 115.4577610  97.0935035  69.1573063 111.5434627
  96.1798115  69.3877290 111.7116834  97.5228136  69.2411507 112.3948659
  96.8641493  77.3462955 114.0434521  96.2112944  77.5938863 113.3886974
  97.2421873  76.5327093 113.7096998  92.9129066  78.0882766 120.5300558
  92.2369703  77.9876896 121.2002933  93.7356700  77.9321980 120.9936555
  84.6607926  84.3254703 113.1513073  85.2461362  83.5798391 113.2840977
  84.4632764  84.6358660 114.0349737  79.2525580  76.8960303 111.8717516
  79.2909680  76.3623894 112.6654634  78.7465873  76.3695509 111.2528494
  91.6551849  89.3949694 114.7658174  92.2070157  89.5581315 115.5307259
  91.9958043  89.9854132 114.0938199  86.6316343  71.7424844 115.3680059
  86.6957669  72.6039675 114.9557456  86.5683463  71.1298845 114.6352417
  86.1068615  73.8147976 119.0153093  86.7340654  73.4325053 119.6290617
  85.2496534  73.5962178 119.3808785  96.5062724  84.2210951 120.6206828
  97.0502628  84.8340910 120.1261783  95.9249569  84.7790530 121.1373841
  82.8834158  75.6224405 104.9471448  83.1787599  74.7135084 104.8938501
  81.9822194  75.6012145 104.6252450  86.4128405  73.6980402 110.9298996
  85.6914991  74.3116370 110.7906470  87.2021661  74.2338167 110.8515642
  89.2154718  71.0334828 117.2039648  89.7389120  71.2797125 117.9665957
  88.9967052  71.8654863 116.7842785  84.6121999  73.3038503 105.0710773
  84.2834706  72.4235882 104.8885879  84.9661370  73.2486172 105.9587162
  87.7263823  73.5911473 105.4386251  88.0659895  74.1197394 104.7164859
  88.1735943  73.9291879 106.2144817  90.4207263  71.9748523 114.8889319
  90.0804084  71.1756336 115.2909998  89.7146270  72.2750234 114.3166152
  91.0723735  69.0597836 113.3416642  91.8949805  68.5858314 113.2195532
  91.3161799  69.8388320 113.8415328  89.7131970  72.0886094 103.6379543
  90.4340332  72.4667347 103.1343260  89.0897274  72.8074971 103.7414521
  93.8563093  72.7931243 104.5737876  94.0726707  73.6755881 104.2726704
  93.3757160  72.4017457 103.8443518  88.5962314  75.7516957 111.1508620
  88.4506895  76.0657260 112.0432902  88.1187518  76.3701857 110.5979519
  90.4558697  72.7419504 111.1989510  90.4420266  71.8460598 110.8621808
  91.1731125  72.7490168 111.8327796  92.3084828  73.1756845 113.2442637
  92.0502605  74.0973915 113.2426968  91.7769868  72.7787279 113.9343101
  83.0707976  78.2922301 114.0896281  82.5261444  79.0682109 114.2216556
  83.9487326  78.6393105 113.9315403  89.8595593  71.6233885 106.4677080
  89.9811504  70.6950531 106.6667967  89.5697635  71.6372571 105.5555395
  92.7286783  69.3088795 109.6043800  92.7508480  69.3728128 108.6495779
  93.1454842  68.4693304 109.7984306 103.1070408  79.0444055 107.6423022
 103.5501554  78.2951380 107.2442146 102.2296918  79.0354191 107.2596754
  83.8573998  77.4192197 116.9826438  83.1155734  77.5674833 117.5691069
  83.5366742  77.6800463 116.1193188  91.8017661  86.9608175 116.7806828
  92.1104787  86.7157322 117.6529528  92.5993143  87.1654814 116.2925699
  82.5039217  83.2243952 109.9725767  81.6671125  82.7966127 109.7909768
  82.4762862  83.4176396 110.9096558  89.3436672  73.1365882 120.6767013
  89.3924828  74.0128005 120.2944782  89.8859187  72.5943275 120.1038656
  99.8291518  83.6807005 119.9568150  99.0387062  83.6631144 119.4172649
  99.5924873  84.2195299 120.7117186  99.9489393  80.5299472 117.2700878
  99.9987398  80.3649479 118.2116401  99.8403316  79.6626731 116.8798759
  97.2393155  76.5130400 118.5860185  98.1403018  76.3736865 118.2944183
  97.3141130  76.6784855 119.5258362  91.5735961  73.8897255 117.4313371
  90.7039270  74.1830821 117.1595960  91.8095441  74.4737700 118.1520635
 101.4507590  82.9496413 117.5142900 101.1592398  83.3126394 118.3506361
 100.8379721  82.2363422 117.3356232 102.6503272  80.5149293 110.0345470
 103.4850164  80.9539097 110.1983030 102.7862401  80.0387946 109.2153716
  99.6994778  78.0729028 115.9822958 100.1748900  78.2656674 115.1741809
  98.7760344  78.1288214 115.7366341  86.5878285  79.2353195 105.5654036
  86.3424327  78.3315525 105.7634246  86.7574199  79.2370346 104.6233514
  94.2774995  70.1076871 114.9478792  94.7956939  70.8437898 114.6225280
  93.9230127  70.4140865 115.7825551  85.8573932  74.9681553 103.0640197
  85.1643177  75.0425908 102.4080233  85.6125684  74.2041896 103.5861714
  94.5287589  66.5277154 110.4679688  94.8089343  65.8600343 111.0940115
  95.3138196  66.7206250 109.9554352  98.3996447  74.9494788 114.2151263
  99.3513870  75.0492886 114.2363487  98.2299898  74.1573057 114.7249348
  96.4210827  72.0350371 114.4010664  95.8260759  72.3155384 113.7057153
  96.1360523  72.5244272 115.1727405 100.8784525  78.1700908 113.3293563
 100.8460845  77.2316908 113.5153247 101.4885149  78.2484944 112.5959388
  92.7167856  77.0396961  99.3720767  93.6626961  76.9103169  99.4409185
  92.3382101  76.3011623  99.8490195 101.0279013  74.9611951 113.3751846
 100.5118062  74.1770408 113.1881775 101.9118962  74.6330668 113.5398366
  98.6889740  68.7052967 109.3347659  98.4914561  68.3968055 110.2190991
  99.2989446  69.4314606 109.4645589 106.6961075  79.2316915 112.4699600
 107.4264463  78.9702203 113.0307303 106.0868020  78.4945636 112.5101668
 104.7776372  77.3724777 113.0674051 104.0509535  77.2380742 112.4590543
 104.3623659  77.6801606 113.8730769  92.6006548  81.0914707 120.8321424
  93.5209558  81.2693306 121.0261470  92.5656131  80.1470752 120.6801123
  90.9010773  74.9646937  99.3075652  89.9942228  74.6680050  99.3838366
  91.1786754  74.6676755  98.4409938  81.8188713  76.2853300 109.7574699
  81.4991498  75.4318609 109.4649073  81.2722142  76.5001879 110.5132666
  85.5968621  79.0015741 113.4744205  85.8154631  79.9332849 113.4932239
  86.0094395  78.6423716 114.2599009  92.5172839  69.5083827 105.4619894
  91.7073567  69.1630912 105.8375140  93.2057256  69.1991370 106.0507505
  94.4463387  68.5861874 107.0844190  94.9994426  69.0057327 107.7434213
  94.6833473  67.6597622 107.1267146  90.4696486  74.5748947 122.8646954
  90.3693213  75.5243304 122.7959045  90.2518028  74.2467186 121.9923024
  89.6709558  71.8233872  99.4487631  90.5328722  72.1488771  99.7083449
  89.8559902  71.0365368  98.9360697  81.6876973  79.9056212 111.7267820
  80.9940445  79.4910165 111.2137775  82.4349964  79.9476748 111.1301239
  97.8242194  70.6962399 106.5922854  97.2440863  71.3547203 106.2100907
  97.5578127  69.8739743 106.1810272  96.2745760  70.0967456 108.7944175
  96.7745539  70.2083991 107.9858494  96.9181368  69.7928509 109.4344983
  90.3327756  78.0046086 121.6812016  89.8494838  78.8046446 121.8875905
  90.4188695  78.0154031 120.7279460  83.6013716  79.8374466 109.6033835
  83.5784404  79.9362153 108.6515718  83.9114352  80.6839617 109.9251001
  86.2601094  81.8950621 113.7180449  87.2144347  81.8634563 113.6510381
  86.0613617  81.4341244 114.5330675  86.8500476  80.4651737 116.2851247
  87.6693365  80.9595815 116.3086084  87.1237284  79.5483705 116.2568815
  96.6067072  72.8562489 105.6479203  95.7192927  73.1412140 105.4299397
  97.0221061  72.6956252 104.8006480  99.9581608  72.8809010 109.3633542
 100.7341998  73.3705463 109.6358159  99.2329742  73.3067064 109.8205411
 102.3954167  73.5936629 110.4207483 102.9898658  73.3532365 109.7100791
 102.4680751  72.8743760 111.0481019  84.6151323  87.4370240 110.7350647
  84.4805790  86.6770641 110.1688645  84.1983385  88.1611140 110.2679436
  96.5808096  78.3717025 105.8629493  96.5243297  78.8285576 105.0237125
  97.1336438  77.6107710 105.6852336 100.3912902  74.1606757 106.6879612
 100.1349836  73.7603393 107.5187820  99.7665770  74.8750551 106.5629751
 104.7025240  76.9002830 109.1950904 104.1424798  76.9696019 109.9682466
 104.0968743  76.7243815 108.4750400  97.3142875  79.5621806 103.1582022
  97.2591679  79.3966078 102.2170466  96.6888930  80.2697839 103.3144212
  82.1035390  74.7989871 116.9843444  82.7494254  74.2888825 117.4730669
  81.8952541  75.5358552 117.5586869  94.6288782  81.8670718 122.4835585
  95.4979942  82.0411370 122.1222220  94.1495534  82.6865135 122.3611314
  90.6239001  69.0629915 102.7367340  90.6117670  70.0071755 102.8935611
  91.5162422  68.8800061 102.4426802  88.7974963  88.9867819 114.1625018
  89.7002209  89.0191429 114.4791513  88.5712333  88.0568270 114.1771354
  94.4391120  65.6572692 106.9913277  93.6723516  65.1031179 107.1369960
  94.8501825  65.7294561 107.8527429  86.4432881  71.9457488 121.0818458
  87.3064343  71.5894293 121.2921783  85.8698292  71.6071383 121.7693863
 106.2881258  93.5759344 111.8880859 106.9259668  93.4566091 111.1844200
 106.1702101  94.5240188 111.9468812 103.0970964  93.5286772 111.8242384
 102.7589476  93.4127837 110.9362919 103.9660733  93.1277937 111.8043390
 103.5790747  94.6821624 117.7828590 103.5679388  94.2874422 116.9109093
 103.7411387  93.9487697 118.3762361 104.5357339  99.0493216 103.1253740
 103.8845318  99.6347297 102.7387754 105.3301702  99.5799411 103.1848777
 100.2998008  97.4658736 116.7307774 100.0087874  98.3704367 116.6154440
 100.9354993  97.5075263 117.4451843 101.2254215  94.8435584 113.3209133
 101.8217788  94.6191607 112.6066096 101.2829187  94.1020330 113.9234581
 105.8422527  91.3010798 108.9634067 106.6285616  90.8830221 108.6124485
 106.1061231  92.2056890 109.1315716 106.0132604  96.7383648 103.6622724
 105.3778437  96.8118275 104.3743629 105.6830010  97.3277247 102.9841804
 111.2430954  91.2386031 109.8667046 111.9756126  90.6685248 110.1004875
 110.4870309  90.8507632 110.3073552 102.8607073  93.6613273 107.0630388
 102.4965281  93.1343894 107.7743310 103.7174189  93.2711742 106.8896874
 108.7656374  84.9507605 114.3261655 108.4339699  85.8203016 114.1022870
 108.1701987  84.6343889 115.0055685 105.2587894  97.1520151 113.7257567
 104.9588617  98.0545190 113.6173375 104.9138953  96.8852334 114.5778720
  98.7100375  93.6033948 109.7594272  97.7850871  93.4710162 109.9671964
  98.9584788  94.3828167 110.2564214 108.6585037  89.6702691 111.4055005
 107.7501915  89.6018100 111.1113766 108.6072633  90.1474636 112.2336830
 102.7325903  91.0892337 119.3489902 101.9559237  91.6486257 119.3392767
 103.3716466  91.5749120 119.8704772 110.5246684  87.8719130 113.1832879
 109.8821064  88.1651663 112.5372673 110.0201612  87.7572050 113.9886075
 108.1786847  91.6182303 103.8718738 109.0904704  91.8509690 103.6966435
 107.6696494  92.2019347 103.3093816 100.9872275  93.8977790 118.9107869
 101.7286960  94.4362834 118.6342693 100.2809261  94.5244079 119.0679421
 106.4627615  96.0406931 117.5080030 106.8710971  95.5989341 116.7634663
 105.7404877  95.4659558 117.7614223 106.7856430  96.6008121 111.2632319
 106.1565292  96.7653836 110.5608387 106.3982092  97.0149731 112.0343283
 110.6645662  97.5362559 108.6176683 109.9796700  97.9161461 108.0673716
 110.7489511  98.1457886 109.3508631 105.9658130  88.6383906 116.5394761
 105.7219062  89.3925966 116.0029037 106.2418061  89.0169254 117.3742008
 107.9196593  95.1822518 115.2172027 108.1313488  95.8254278 114.5406408
 107.8726341  94.3484835 114.7493957 105.5222822  87.7940339 112.1208599
 104.6607301  88.0921593 112.4125336 105.5485257  88.0110738 111.1889631
 102.3384392  96.3382530 108.5282404 102.8022737  96.6170233 107.7387027
 102.0741190  95.4365974 108.3455495  99.2308473  95.8854011 111.4662168
  99.8009830  96.3141279 110.8279652  99.8216584  95.6036596 112.1646353
  99.7233639  91.0517439 119.7123179  99.0932300  91.7333719 119.9458576
  99.6169727  90.9400520 118.7676317 109.0342421  98.0594474 113.3894384
 109.8559865  97.6574661 113.1077066 109.0304824  97.9562708 114.3410500
 102.7999025  97.6078517 115.5455094 102.8643457  98.0698924 116.3813266
 102.0909948  96.9775882 115.6737404  93.3016315  90.9719725 113.0704094
  93.5524353  91.8566735 113.3361670  93.8375863  90.7924327 112.2979186
 117.1248414  94.4033222 109.7379355 116.3712123  93.8340620 109.5823360
 117.2595955  94.3695887 110.6849990 102.5147042  99.2746625 105.4134075
 102.3792717 100.1198160 105.8418923 103.0556855  99.4765902 104.6500009
  99.0014382  85.3538204 122.0748430  98.6081327  84.8004403 122.7496074
  99.8180522  85.6648783 122.4654948 101.9182343  86.7696083 119.6668687
 102.6592056  87.3703237 119.5873149 102.1500266  86.0273721 119.1086729
  97.0623681  91.9552451 117.9446916  96.9477196  91.0537708 118.2454015
  96.2068199  92.2016148 117.5931733 104.1415519  99.8970191 119.5434417
 103.6979373  99.1106570 119.2255321 104.8032732 100.0849342 118.8778308
  98.9002640 101.4265993 114.0695095  99.4510065 101.2983056 113.2972089
  98.0614116 101.7260882 113.7189988 106.2396757 100.1772991 117.5715818
 106.2215232 100.9981872 117.0796087 107.1616677 100.0527066 117.7965959
 102.6969811  97.6917120 118.4139326 103.2298148  96.9305409 118.1838634
 102.1683892  97.3990772 119.1563481 105.8639506  82.7977186 113.9432968
 105.5203775  83.6878828 113.8672079 106.2318468  82.6078844 113.0802553
 104.9436046  85.1681842 111.9082201 104.4400842  85.1311977 111.0950007
 105.2366653  86.0774584 111.9678858 110.8024063  95.5418152 104.3858577
 110.0253505  95.2029312 103.9413739 111.4815544  95.5470775 103.7113542
 105.6176092  90.6612890 104.2765185 105.3126227  90.9759039 105.1275328
 106.5706534  90.7394310 104.3192518 104.0622524  96.8203113 105.9258138
 103.5343885  96.0855873 105.6131376 103.5610026  97.5977789 105.6798107
 109.0415370  95.0152133 111.0425185 108.3839044  95.7051395 111.1305313
 109.8455769  95.4048565 111.3859171 107.8520828  93.3696506 109.0929127
 108.3652710  94.0026498 109.5950836 108.5022052  92.7697702 108.7272487
 101.0963919  84.3564028 107.0139819 100.4428331  84.0413045 106.3896434
 101.0544393  83.7339769 107.7399642 105.1143203 103.3480830 101.8489798
 104.4404901 103.6512527 102.4574756 105.5009025 104.1509911 101.4995255
 105.1136707  92.2437377 106.4690147 105.8608526  92.7558775 106.1597269
 105.3828297  91.9221430 107.3294541 108.6182625  98.3502508 107.2208269
 108.1644952  97.5093417 107.2773460 107.9876591  98.9863906 107.5583049
 107.5615544  89.2794494 108.4508937 106.8238301  88.7671880 108.7819179
 107.8142318  88.8394875 107.6392214 107.0615564 100.1879004 108.1558087
 107.3538538 100.7484061 107.4370453 107.5714184 100.4807565 108.9111246
 107.6627171  82.0570746 109.0450706 107.9686048  81.1968109 108.7576621
 108.3879776  82.6488366 108.8449700 102.0249189 100.9659355 109.2451541
 101.9825368 101.1920202 108.3160073 102.9411888 100.7322730 109.3937342
 105.4714823  91.4343423 116.1432170 105.8264211  91.6614896 117.0026635
 106.1186954  91.7661800 115.5209425 111.2012560  94.5561859 106.8481499
 111.0630458  94.7463455 105.9202688 110.8448779  95.3181242 107.3049550
 111.2281939  96.6238386 111.8592770 111.6618446  96.5313675 112.7075824
 111.9413520  96.5995886 111.2212786 100.1414990  97.8422384 109.0413503
 100.9355588  97.3472705 108.8396078  99.4306682  97.3140247 108.6781209
 104.9609834 100.2240480 113.3925871 105.0146857 100.7931416 114.1603587
 104.0924616 100.3942365 113.0279908 112.0897489  96.6662086 114.3925656
 112.2833379  97.5707897 114.6384931 111.9898107  96.2069506 115.2264241
 103.7433800  86.5519977 116.8915983 103.0961715  87.2509927 116.7980459
 104.5134815  86.9856121 117.2592231 107.1512598  96.8168829 119.9666536
 106.9998104  96.5879381 119.0496620 107.1417277  97.7739431 119.9797881
 103.9197934  94.3900742 114.9512803 104.8489994  94.5411902 114.7781770
 103.4988964  94.4784763 114.0961449 102.7186266  98.4151406 112.7211340
 102.5797351  98.0470191 113.5937278 101.9300862  98.9299046 112.5495298
 104.2691481  97.7933009 110.1100178 103.9341314  97.7533779 111.0057828
 103.7695427  97.1277725 109.6370588  98.2435725  93.2000639 115.6352759
  98.1055523  92.4680878 116.2364298  99.1540648  93.1109539 115.3536947
 108.8604804  99.8487952 118.0443018 108.8017350  99.1647172 117.3773601
 109.2624323 100.5906942 117.5923644 108.8622212  97.8127536 116.2756998
 107.9748990  97.4753457 116.3983397 109.4320763  97.0810567 116.5125763
 102.3923365 102.4728988 113.2418241 102.3193536 103.2783960 113.7537546
 101.9500758 102.6720954 112.4166262 102.1813145 101.7100758 106.7521063
 101.3980666 102.2522438 106.8459287 102.8805890 102.2274738 107.1515304
 105.4909795  87.5195388 109.3955268 105.9878494  86.7665350 109.0756338
 104.7196776  87.5559704 108.8298477 113.3439552  93.2235753 111.0373559
 113.3329428  94.1060468 110.6667493 112.4756931  92.8707304 110.8428097
 104.8522048 102.3715822 115.3976400 105.5650021 103.0063287 115.3252301
 104.3612077 102.4679688 114.5816402 106.5739575  96.2767075 106.9693691
 105.6395854  96.3968537 106.7998396 106.7516244  95.3739542 106.7053701
 109.9612127  92.1184394 107.5043726 110.4272579  92.9512386 107.4304028
 110.4119627  91.6529376 108.2088984  99.9033962 100.1210266 116.2181971
 100.6043421 100.7546748 116.3711365  99.4329077 100.4624997 115.4577610
 108.0288358  98.4628215 104.5029878 108.3048202  98.3484810 105.4123752
 107.1592857  98.0645700 104.4642051 107.9328789  84.4864981 111.5434627
 107.0191869  84.7169208 111.7116834 108.3621891  84.5703425 112.3948659
 107.7035248  92.6754873 114.0434521 107.0506698  92.9230780 113.3886974
 108.0815628  91.8619011 113.7096998 104.6642422 102.7114566 108.1462691
 104.8464816 101.8936222 108.6090443 105.4875408 102.9282258 107.7087581
 104.9984587 101.6382751 105.4077740 105.5272354 101.1275206 104.7947902
 105.2612807 101.3225281 106.2723273 103.7522821  93.4174684 120.5300558
 103.0763458  93.3168813 121.2002933 104.5750455  93.2613898 120.9936555
  95.5001680  99.6546621 113.1513073  96.0855117  98.9090308 113.2840977
  95.3026518  99.9650577 114.0349737 102.4945604 104.7241611 114.7658174
 103.0463912 104.8873233 115.5307259 102.8351797 105.3146049 114.0938199
  96.9462370  89.1439894 119.0153093  97.5734408  88.7616971 119.6290617
  96.0890288  88.9254096 119.3808785 107.3456478  99.5502869 120.6206828
 107.8896382 100.1632827 120.1261783 106.7643323 100.1082447 121.1373841
 105.6313991 102.6723587 111.7521856 105.5065131 101.8713327 111.2432802
 106.2893082 103.1669780 111.2635826 107.6948900 100.4732607 113.3801406
 106.7479235 100.3537958 113.3079733 108.0431673  99.5855105 113.4627668
 100.0548473  86.3626746 117.2039648 100.5782875  86.6089043 117.9665957
  99.8360806  87.1946781 116.7842785 104.6995333 100.2685323 109.5805758
 104.5520295  99.3402031 109.7613328 105.5248826 100.2905414 109.0962834
 108.3029455 101.0913882 110.6670631 109.2276002 100.8856743 110.5295082
 108.1344758 100.8430283 111.5759973 101.9117490  84.3889754 113.3416642
 102.7343559  83.9150232 113.2195532 102.1555553  85.1680237 113.8415328
 108.0924771 101.6099549 106.0232723 108.2661648 101.0445972 105.2706575
 108.5853662 102.4100444 105.8412213  93.9101731  93.6214219 114.0896281
  93.3655199  94.3974027 114.2216556  94.7881081  93.9685023 113.9315403
 103.5680538  84.6380713 109.6043800 103.5902235  84.7020046 108.6495779
 103.9848597  83.7985222 109.7984306 113.9464162  94.3735972 107.6423022
 114.3895308  93.6243298 107.2442146 113.0690672  94.3646109 107.2596754
 109.0799943 100.9266314 103.1229621 109.7750848 101.5473007 103.3416936
 109.4223093 100.0761665 103.3981999  94.6967753  92.7484115 116.9826438
  93.9549489  92.8966750 117.5691069  94.3760497  93.0092380 116.1193188
 110.9791366  98.3766019 104.6516952 111.5042691  98.7153292 103.9266272
 110.8913719  97.4413035 104.4680086 102.6411415 102.2900093 116.7806828
 102.9498542 102.0449240 117.6529528 103.4386897 102.4946732 116.2925699
 102.6632027 104.4438003 109.0112205 102.2237018 103.9514381 109.7045062
 103.4140144 103.9010970 108.7704280 100.1105899  99.9876012 111.0834507
  99.4885909  99.3246717 110.7836734 100.7810766 100.0137144 110.4008154
 100.1830427  88.4657800 120.6767013 100.2318582  89.3419923 120.2944782
 100.7252941  87.9235193 120.1038656 110.6685273  99.0098923 119.9568150
 109.8780816  98.9923062 119.4172649 110.4318627  99.5487217 120.7117186
 110.7883148  95.8591389 117.2700878 110.8381153  95.6941397 118.2116401
 110.6797071  94.9918648 116.8798759 108.0786910  91.8422317 118.5860185
 108.9796773  91.7028782 118.2944183 108.1534884  92.0076772 119.5258362
 102.4129715  89.2189172 117.4313371 101.5433025  89.5122738 117.1595960
 102.6489196  89.8029617 118.1520635 112.2901344  98.2788331 117.5142900
 111.9986153  98.6418312 118.3506361 111.6773476  97.5655339 117.3356232
 113.4897027  95.8441211 110.0345470 114.3243918  96.2831015 110.1983030
 113.6256156  95.3679864 109.2153716 110.5388533  93.4020946 115.9822958
 111.0142654  93.5948592 115.1741809 109.6154098  93.4580131 115.7366341
 105.1168749  85.4368789 114.9478792 105.6350693  86.1729816 114.6225280
 104.7623882  85.7432782 115.7825551 105.3681343  81.8569072 110.4679688
 105.6483097  81.1892261 111.0940115 106.1531950  82.0498167 109.9554352
 109.2390202  90.2786706 114.2151263 110.1907625  90.3784803 114.2363487
 109.0693652  89.4864974 114.7249348 107.2604581  87.3642289 114.4010664
 106.6654513  87.6447302 113.7057153 106.9754278  87.8536190 115.1727405
 106.3912072 101.3165216 103.1613297 107.3242745 101.2510777 103.3646172
 106.3035284 102.1521483 102.7027829 109.0200088 100.6331086 100.1217244
 108.9413720 100.2990950 101.0153002 109.8409755 101.1252854 100.1208717
 111.7178279  93.4992825 113.3293563 111.6854600  92.5608826 113.5153247
 112.3278903  93.5776862 112.5959388 111.8672768  90.2903869 113.3751846
 111.3511817  89.5062325 113.1881775 112.7512716  89.9622585 113.5398366
 109.5283495  84.0344884 109.3347659 109.3308316  83.7259973 110.2190991
 110.1383200  84.7606523 109.4645589 117.5354829  94.5608832 112.4699600
 118.2658218  94.2994120 113.0307303 116.9261775  93.8237554 112.5101668
 115.6170126  92.7016695 113.0674051 114.8903290  92.5672660 112.4590543
 115.2017413  93.0093523 113.8730769 103.4400303  96.4206624 120.8321424
 104.3603312  96.5985223 121.0261470 103.4049886  95.4762670 120.6801123
  96.4362375  94.3307659 113.4744205  96.6548385  95.2624767 113.4932239
  96.8488149  93.9715634 114.2599009 105.2857141  83.9153791 107.0844190
 105.8388180  84.3349245 107.7434213 105.5227228  82.9889539 107.1267146
 101.3090241  89.9040865 122.8646954 101.2086968  90.8535222 122.7959045
 101.0911783  89.5759104 121.9923024 108.6635949  86.0254316 106.5922854
 108.0834618  86.6839120 106.2100907 108.3971881  85.2031661 106.1810272
 107.1139515  85.4259374 108.7944175 107.6139293  85.5375909 107.9858494
 107.7575123  85.1220427 109.4344983 101.1721511  93.3338004 121.6812016
 100.6888592  94.1338364 121.8875905 101.2582450  93.3445949 120.7279460
  97.0994848  97.2242538 113.7180449  98.0538102  97.1926481 113.6510381
  96.9007372  96.7633162 114.5330675  97.6894230  95.7943654 116.2851247
  98.5087119  96.2887733 116.3086084  97.9631038  94.8775623 116.2568815
 107.4460827  88.1854407 105.6479203 106.5586682  88.4704057 105.4299397
 107.8614816  88.0248170 104.8006480 110.7975363  88.2100928 109.3633542
 111.5735753  88.6997380 109.6358159 110.0723497  88.6358982 109.8205411
 113.2347921  88.9228547 110.4207483 113.8292412  88.6824283 109.7100791
 113.3074505  88.2035678 111.0481019 107.4201850  93.7008943 105.8629493
 107.3637052  94.1577494 105.0237125 107.9730193  92.9399627 105.6852336
 111.2306656  89.4898675 106.6879612 110.9743590  89.0895310 107.5187820
 110.6059524  90.2042469 106.5629751 115.5418994  92.2294748 109.1950904
 114.9818552  92.2987937 109.9682466 114.9362497  92.0535732 108.4750400
  92.9429145  90.1281788 116.9843444  93.5888008  89.6180742 117.4730669
  92.7346296  90.8650470 117.5586869 105.4682537  97.1962636 122.4835585
 106.3373696  97.3703288 122.1222220 104.9889288  98.0157053 122.3611314
  99.6368717 104.3159737 114.1625018 100.5395964 104.3483347 114.4791513
  99.4106087 103.3860188 114.1771354 101.3922319 103.0690723 110.8235097
 100.4417950 103.0692585 110.7099469 101.6954805 102.3223458 110.3071132
 105.2784875  80.9864610 106.9913277 104.5117270  80.4323096 107.1369960
 105.6895580  81.0586478 107.8527429  97.2826636  87.2749405 121.0818458
  98.1458097  86.9186210 121.2921783  96.7092046  86.9363300 121.7693863
 117.1275013 108.9051262 111.8880859 117.7653422 108.7858009 111.1844200
 117.0095855 109.8532106 111.9468812 113.9364719 108.8578690 111.8242384
 113.5983230 108.7419755 110.9362919 114.8054487 108.4569855 111.8043390
 109.7951535 110.7114166 107.8139275 109.2316400 110.6204103 107.0455563
 109.6803930 109.8914071 108.2941768 107.3415966 112.2065358 110.6523496
 108.1337258 111.8656183 110.2369795 107.5812617 112.3160333 111.5725649
 115.3751093 114.3785134 103.1253740 114.7239073 114.9639214 102.7387754
 116.1695456 114.9091329 103.1848777 109.3006720 111.4674271 103.5240874
 110.0737596 110.9203258 103.3853750 109.6532119 112.3318520 103.7355336
 112.0647970 110.1727502 113.3209133 112.6611542 109.9483524 112.6066096
 112.1222941 109.4312247 113.9234581 111.6372998 107.6266937 101.1559324
 111.8898519 107.1048459 100.3942787 110.6997557 107.4633083 101.2586008
 116.6816281 106.6302716 108.9634067 117.4679370 106.2122139 108.6124485
 116.9454985 107.5348808 109.1315716 116.8526358 112.0675566 103.6622724
 116.2172191 112.1410192 104.3743629 116.5223765 112.6569165 102.9841804
 122.0824708 106.5677949 109.8667046 122.8149880 105.9977166 110.1004875
 121.3264064 106.1799549 110.3073552 111.3569287 109.5295043 103.3583699
 111.2405545 108.8539947 104.0264784 111.4671547 109.0427417 102.5415852
 113.7000828 108.9905190 107.0630388 113.3359035 108.4635811 107.7743310
 114.5567944 108.6003659 106.8896874 119.6050128 100.2799523 114.3261655
 119.2733453 101.1494934 114.1022870 119.0095742  99.9635807 115.0055685
 113.3406315 104.0195090 102.0591737 113.5080717 104.8875326 102.4262208
 113.1503484 104.1822372 101.1353026 116.0981648 112.4812069 113.7257567
 115.7982371 113.3837108 113.6173375 115.7532708 112.2144252 114.5778720
 109.5494129 108.9325866 109.7594272 108.6244626 108.8002080 109.9671964
 109.7978543 109.7120085 110.2564214 119.4978792 104.9994609 111.4055005
 118.5895669 104.9310018 111.1113766 119.4466388 105.4766554 112.2336830
 113.3195536 106.4752748 103.0438404 113.1995161 106.9209798 103.8823884
 112.6248124 106.8238065 102.4851942 106.9102941 108.5759139 110.5938061
 107.0395322 108.8293618 111.5077473 106.2300392 109.1686847 110.2742716
 111.0802428 119.2456389 106.6928535 111.0026458 120.1964214 106.7717016
 110.4764071 118.9002262 107.3503461 121.3640438 103.2011047 113.1832879
 120.7214818 103.4943581 112.5372673 120.8595367 103.0863968 113.9886075
 119.0180602 106.9474221 103.8718738 119.9298458 107.1801607 103.6966435
 118.5090249 107.5311265 103.3093816 113.6552440 106.3071455 114.8813587
 114.5013635 106.7310869 115.0248236 113.5951077 105.6505080 115.5752150
 117.6250184 111.9300039 111.2632319 116.9959047 112.0945753 110.5608387
 117.2375846 112.3441649 112.0343283 121.5039416 112.8654477 108.6176683
 120.8190454 113.2453378 108.0673716 121.5883265 113.4749804 109.3508631
 116.8051885 103.9675824 116.5394761 116.5612817 104.7217884 116.0029037
 117.0811815 104.3461171 117.3742008 116.3616577 103.1232257 112.1208599
 115.5001056 103.4213510 112.4125336 116.3879011 103.3402656 111.1889631
 113.1778146 111.6674447 108.5282404 113.6416492 111.9462150 107.7387027
 112.9134944 110.7657892 108.3455495 110.0702227 111.2145929 111.4662168
 110.6403584 111.6433197 110.8279652 110.6610339 110.9328513 112.1646353
 112.1147032 107.7897600 105.3371970 112.8171075 108.2418643 105.8045896
 111.7827661 107.1481418 105.9651863 110.5627394 106.3809356 119.7123179
 109.9326054 107.0625637 119.9458576 110.4563482 106.2692438 118.7676317
 105.8572366 106.0481152 110.6389103 105.0671420 106.3038681 110.1629214
 106.3483613 106.8629490 110.7441144 107.8087111 106.4125732 107.5972580
 107.0118275 106.5244426 108.1156075 107.5812704 106.7512384 106.7313470
 104.1410069 106.3011643 113.0704094 104.3918107 107.1858653 113.3361670
 104.6769617 106.1216244 112.2979186 127.9642169 109.7325140 109.7379355
 127.2105877 109.1632538 109.5823360 128.0989710 109.6987804 110.6849990
 113.3540797 114.6038542 105.4134075 113.2186472 115.4490078 105.8418923
 113.8950609 114.8057820 104.6500009 109.8408136 100.6830122 122.0748430
 109.4475082 100.1296321 122.7496074 110.6574277 100.9940701 122.4654948
 106.8070194 112.1213980 105.9862000 107.3194715 112.9157231 106.1367565
 107.4592907 111.4240271 105.9195601 108.6165079 115.2379737 108.0684753
 108.7931707 116.1597701 107.8805737 109.4121912 114.9238156 108.4979133
 112.7576097 102.0988001 119.6668687 113.4985811 102.6995154 119.5873149
 112.9894020 101.3565639 119.1086729 107.9017435 107.2844368 117.9446916
 107.7870951 106.3829626 118.2454015 107.0461953 107.5308065 117.5931733
 109.7396394 116.7557910 114.0695095 110.2903819 116.6274974 113.2972089
 108.9007870 117.0552799 113.7189988 116.7033260  98.1269104 113.9432968
 116.3597530  99.0170746 113.8672079 117.0712223  97.9370762 113.0802553
 104.7719111 110.4502635 106.7621570 105.6094333 110.8599643 106.5455278
 104.9497379 109.5102077 106.7321764 116.6683543 108.1177715 102.4505403
 116.1530166 108.8882320 102.6893791 116.3960851 107.4442851 103.0738465
 114.2530654 102.9627416 107.5090642 113.3972250 102.5734266 107.3296280
 114.6657606 103.0419377 106.6490427 115.7829801 100.4973759 111.9082201
 115.2794596 100.4603894 111.0950007 116.0760408 101.4066502 111.9678858
 112.0272687 100.5812489 110.9148383 112.8925683 100.3855298 110.5554273
 112.0950195 100.3522841 111.8417740 121.6417817 110.8710070 104.3858577
 120.8647260 110.5321229 103.9413739 122.3209298 110.8762693 103.7113542
 116.4569846 105.9904807 104.2765185 116.1519982 106.3050956 105.1275328
 117.4100288 106.0686227 104.3192518 114.9016278 112.1495031 105.9258138
 114.3737640 111.4147790 105.6131376 114.4003781 112.9269707 105.6798107
 119.8809124 110.3444051 111.0425185 119.2232799 111.0343312 111.1305313
 120.6849523 110.7340483 111.3859171 109.6335006 102.8114697 108.2864750
 110.2078758 102.5889878 107.5537943 110.2205988 102.8803391 109.0393351
 118.6914583 108.6988424 109.0929127 119.2046465 109.3318416 109.5950836
 119.3415807 108.0989619 108.7272487 109.9604593 104.8419158 102.3060635
 109.1241905 105.1793844 102.6269910 109.8209362 104.7068138 101.3687772
 111.9357673  99.6855946 107.0139819 111.2822086  99.3704963 106.3896434
 111.8938148  99.0631686 107.7399642 115.9536957 118.6772748 101.8489798
 115.2798656 118.9804445 102.4574756 116.3402779 119.4801828 101.4995255
 115.1695414 106.1737879 111.3387467 114.2517975 106.3952826 111.1809155
 115.5855557 106.2484190 110.4799174 115.9530461 107.5729295 106.4690147
 116.7002280 108.0850692 106.1597269 116.2222051 107.2513348 107.3294541
 114.2257112 110.0687836 103.4517102 113.3168331 109.7846869 103.5489571
 114.2552195 110.4886914 102.5920408 119.4576379 113.6794425 107.2208269
 119.0038706 112.8385335 107.2773460 118.8270346 114.3155824 107.5583049
 118.4009299 104.6086411 108.4508937 117.6632055 104.0963797 108.7819179
 118.6536072 104.1686793 107.6392214 117.9009318 115.5170922 108.1558087
 118.1932293 116.0775979 107.4370453 118.4107939 115.8099483 108.9111246
 118.5020926  97.3862663 109.0450706 118.8079803  96.5260027 108.7576621
 119.2273531  97.9780283 108.8449700 104.7945282 107.7893350 107.4332304
 104.5969682 107.1962711 106.7083370 104.2391946 107.4845560 108.1508243
 112.7742006 107.6816456 109.5526897 112.8290615 106.7290293 109.4769374
 111.9633208 107.8375895 110.0368195 113.9233199 111.6096579 100.7905180
 113.4852629 110.8932438 100.3310818 114.6643640 111.8372694 100.2290272
 110.7134366 106.2993516 107.3117276 109.9002231 106.5987687 107.7182468
 111.2093360 105.9049205 108.0291758 112.8642944 116.2951273 109.2451541
 112.8219122 116.5212119 108.3160073 113.7805642 116.0614648 109.3937342
 116.3108577 106.7635341 116.1432170 116.6657965 106.9906814 117.0026635
 116.9580709 107.0953717 115.5209425 122.0406314 109.8853776 106.8481499
 121.9024213 110.0755372 105.9202688 121.6842533 110.6473159 107.3049550
 110.2048440 103.8711872 112.9278511 110.8447820 103.7300631 112.2301474
 109.3725971 103.5846385 112.5517113 110.9808744 113.1714302 109.0413503
 111.7749343 112.6764622 108.8396078 110.2700437 112.6432165 108.6781209
 107.2891508 107.3157384 105.1173256 106.3589096 107.2541839 105.3343218
 107.3848980 106.7933337 104.3209897 107.2077057 103.8412197 107.7051498
 107.4683874 104.7557530 107.5960658 108.0294229 103.3736639 107.8548110
 108.6801982 105.2549954 114.8750322 109.3525036 105.0467316 114.2262971
 107.8531769 105.0572040 114.4355554 114.5827554 101.8811895 116.8915983
 113.9355469 102.5801844 116.7980459 115.3528570 102.3148039 117.2592231
 114.7591689 109.7192660 114.9512803 115.6883749 109.8703819 114.7781770
 114.3382719 109.8076680 114.0961449 113.5580020 113.7443324 112.7211340
 113.4191106 113.3762108 113.5937278 112.7694617 114.2590963 112.5495298
 114.1528172 118.8452420 104.0636877 114.3279928 118.3740464 104.8782500
 113.4660960 119.4718187 104.2918138 115.1085235 113.1224927 110.1100178
 114.7735068 113.0825697 111.0057828 114.6089181 112.4569643 109.6370588
 109.0829479 108.5292557 115.6352759 108.9449277 107.7972796 116.2364298
 109.9934403 108.4401457 115.3536947 118.0444427 110.4680961 100.3837238
 117.4273598 109.7427789 100.2870290 117.5760916 111.2290321 100.0404312
 111.7111780 108.2412516 115.1236439 112.4211399 107.6005708 115.0823057
 111.6681088 108.4925411 116.0462620 110.4240714 105.2277734 116.9432078
 109.8878071 104.7768472 117.5953675 109.8357422 105.3623643 116.2002543
 101.3545113 109.4743545 109.6000049 102.0416153 109.1605275 109.0121065
 101.1993242 110.3784910 109.3267301 106.1579835 104.3633742 114.0285073
 106.0738024 103.7559411 113.2935483 105.3362542 104.8542760 114.0294569
 113.0206899 117.0392676 106.7521063 112.2374421 117.5814356 106.8459287
 113.7199644 117.5566655 107.1515304 116.3303549 102.8487305 109.3955268
 116.8272249 102.0957268 109.0756338 115.5590531 102.8851622 108.8298477
 124.1833307 108.5527671 111.0373559 124.1723183 109.4352386 110.6667493
 123.3150686 108.1999222 110.8428097 117.4133330 111.6058992 106.9693691
 116.4789609 111.7260455 106.7998396 117.5909998 110.7031459 106.7053701
 112.9138518 104.9904688 109.1226953 112.5436305 104.4375729 109.8107858
 113.4097610 104.3862822 108.5701953 120.8005881 107.4476312 107.5043726
 121.2666333 108.2804303 107.4304028 121.2513382 106.9821293 108.2088984
 118.8682112 113.7920133 104.5029878 119.1441956 113.6776728 105.4123752
 117.9986611 113.3937618 104.4642051 118.7722544  99.8156899 111.5434627
 117.8585624 100.0461126 111.7116834 119.2015645  99.8995343 112.3948659
 118.5429002 108.0046791 114.0434521 117.8900453 108.2522698 113.3886974
 118.9209382 107.1910929 113.7096998 115.5036176 118.0406484 108.1462691
 115.6858571 117.2228140 108.6090443 116.3269162 118.2574176 107.7087581
 115.8378342 116.9674669 105.4077740 116.3666108 116.4567124 104.7947902
 116.1006561 116.6517199 106.2723273 106.3395435 114.9838538 113.1513073
 106.9248871 114.2382226 113.2840977 106.1420273 115.2942495 114.0349737
 109.1934090 118.0189786 108.1675516 108.5244465 118.5035913 107.6839556
 109.0546959 118.2659006 109.0818894 108.3103852 102.4008679 115.3680059
 108.3745178 103.2623510 114.9557456 108.2470972 101.7882681 114.6352417
 107.7856124 104.4731811 119.0153093 108.4128163 104.0908889 119.6290617
 106.9284043 104.2546013 119.3808785 104.5621667 106.2808241 104.9471448
 104.8575108 105.3718919 104.8938501 103.6609703 106.2595980 104.6252450
 108.0915914 104.3564237 110.9298996 107.3702500 104.9700205 110.7906470
 108.8809170 104.8922002 110.8515642 110.8942227 101.6918664 117.2039648
 111.4176629 101.9380960 117.9665957 110.6754561 102.5238698 116.7842785
 106.2909508 103.9622338 105.0710773 105.9622215 103.0819717 104.8885879
 106.6448879 103.9070007 105.9587162 115.5389087 115.5977241 109.5805758
 115.3914050 114.6693948 109.7613328 116.3642581 115.6197332 109.0962834
 109.4051332 104.2495308 105.4386251 109.7447404 104.7781229 104.7164859
 109.8523452 104.5875714 106.2144817 112.0994772 102.6332359 114.8889319
 111.7591593 101.8340172 115.2909998 111.3933779 102.9334070 114.3166152
 112.7511244  99.7181671 113.3416642 113.5737314  99.2442149 113.2195532
 112.9949308 100.4972155 113.8415328 111.3919479 102.7469930 103.6379543
 112.1127841 103.1251182 103.1343260 110.7684783 103.4658806 103.7414521
 115.5350602 103.4515079 104.5737876 115.7514216 104.3339717 104.2726704
 115.0544669 103.0601292 103.8443518 110.2749823 106.4100792 111.1508620
 110.1294404 106.7241095 112.0432902 109.7975027 107.0285692 110.5979519
 112.1346206 103.4003340 111.1989510 112.1207775 102.5044433 110.8621808
 112.8518634 103.4074004 111.8327796 113.9872337 103.8340680 113.2442637
 113.7290114 104.7557751 113.2426968 113.4557377 103.4371115 113.9343101
 118.9318525 116.9391467 106.0232723 119.1055403 116.3737890 105.2706575
 119.4247417 117.7392362 105.8412213 104.7495485 108.9506136 114.0896281
 104.2048953 109.7265944 114.2216556 105.6274835 109.2976941 113.9315403
 111.5383102 102.2817720 106.4677080 111.6599013 101.3534366 106.6667967
 111.2485144 102.2956406 105.5555395 114.4074292  99.9672631 109.6043800
 114.4295989 100.0311964 108.6495779 114.8242351  99.1277139 109.7984306
 124.7857917 109.7027890 107.6423022 125.2289063 108.9535215 107.2442146
 123.9084427 109.6938026 107.2596754 119.9193698 116.2558232 103.1229621
 120.6144602 116.8764924 103.3416936 120.2616848 115.4053583 103.3981999
 105.5361507 108.0776033 116.9826438 104.7943243 108.2258668 117.5691069
 105.2154251 108.3384298 116.1193188 121.8185121 113.7057937 104.6516952
 122.3436445 114.0445210 103.9266272 121.7307474 112.7704952 104.4680086
 113.5025782 119.7729920 109.0112205 113.0630772 119.2806299 109.7045062
 114.2533899 119.2302888 108.7704280 105.9818121 115.9641461 109.0136833
 106.8076141 115.6645233 108.6335476 105.6312173 115.1949084 109.4626622
 110.9499654 115.3167929 111.0834507 110.3279663 114.6538634 110.7836734
 111.6204521 115.3429061 110.4008154 104.1826726 113.8827788 109.9725767
 103.3458634 113.4549962 109.7909768 104.1550371 114.0760231 110.9096558
 111.0224181 103.7949717 120.6767013 111.0712337 104.6711840 120.2944782
 111.5646696 103.2527111 120.1038656 110.5113161 113.8671853 104.5592967
 110.6601281 114.5507317 103.9059640 111.3179604 113.8476943 105.0742423
 113.2523470 104.5481090 117.4313371 112.3826779 104.8414656 117.1595960
 113.4882950 105.1321535 118.1520635 124.3290781 111.1733128 110.0345470
 125.1637673 111.6122932 110.1983030 124.4649910 110.6971782 109.2153716
 108.2665794 109.8937030 105.5654036 108.0211836 108.9899360 105.7634246
 108.4361708 109.8954181 104.6233514 115.9562504 100.7660707 114.9478792
 116.4744447 101.5021734 114.6225280 115.6017636 101.0724700 115.7825551
 107.5361441 105.6265388 103.0640197 106.8430686 105.7009743 102.4080233
 107.2913193 104.8625732 103.5861714 116.2075098  97.1860989 110.4679688
 116.4876852  96.5184178 111.0940115 116.9925705  97.3790085 109.9554352
 114.0108566 116.3619983 102.0304714 113.4382533 116.9810170 101.5775186
 114.5841360 116.9119345 102.5644636 120.0783956 105.6078623 114.2151263
 121.0301379 105.7076721 114.2363487 119.9087407 104.8156892 114.7249348
 118.0998336 102.6934207 114.4010664 117.5048268 102.9739219 113.7057153
 117.8148032 103.1828107 115.1727405 117.2305826 116.6457133 103.1613297
 118.1636499 116.5802695 103.3646172 117.1429039 117.4813400 102.7027829
 119.8593843 115.9623004 100.1217244 119.7807474 115.6282867 101.0153002
 120.6803510 116.4544772 100.1208717 122.5572034 108.8284743 113.3293563
 122.5248354 107.8900744 113.5153247 123.1672658 108.9068780 112.5959388
 114.3955365 107.6980796  99.3720767 115.3414470 107.5687004  99.4409185
 114.0169610 106.9595458  99.8490195 122.7066522 105.6195786 113.3751846
 122.1905571 104.8354243 113.1881775 123.5906471 105.2914503 113.5398366
 120.3677249  99.3636802 109.3347659 120.1702070  99.0551890 110.2190991
 120.9776955 100.0898441 109.4645589 103.4976222 106.9437136 109.7574699
 103.1779007 106.0902444 109.4649073 102.9509651 107.1585714 110.5132666
 107.2756130 109.6599577 113.4744205 107.4942140 110.5916685 113.4932239
 107.6881904 109.3007551 114.2599009 114.1960348 100.1667662 105.4619894
 113.3861076  99.8214747 105.8375140 114.8844765  99.8575206 106.0507505
 116.1250896  99.2445709 107.0844190 116.6781935  99.6641162 107.7434213
 116.3620982  98.3181457 107.1267146 103.3664482 110.5640047 111.7267820
 102.6727954 110.1494000 111.2137775 104.1137473 110.6060584 111.1301239
 119.5029703 101.3546234 106.5922854 118.9228372 102.0131038 106.2100907
 119.2365636 100.5323579 106.1810272 117.9533269 100.7551292 108.7944175
 118.4533048 100.8667826 107.9858494 118.5968877 100.4512345 109.4344983
 105.2801225 110.4958301 109.6033835 105.2571913 110.5945988 108.6515718
 105.5901861 111.3423452 109.9251001 107.9388603 112.5534456 113.7180449
 108.8931856 112.5218398 113.6510381 107.7401126 112.0925080 114.5330675
 108.5287985 111.1235572 116.2851247 109.3480874 111.6179651 116.3086084
 108.8024793 110.2067540 116.2568815 118.2854581 103.5146324 105.6479203
 117.3980436 103.7995975 105.4299397 118.7008570 103.3540088 104.8006480
 121.6369117 103.5392845 109.3633542 122.4129507 104.0289298 109.6358159
 120.9117251 103.9650900 109.8205411 124.0741676 104.2520465 110.4207483
 124.6686167 104.0116201 109.7100791 124.1468260 103.5327595 111.0481019
 106.2938832 118.0954076 110.7350647 106.1593299 117.3354476 110.1688645
 105.8770894 118.8194975 110.2679436 117.4297795 113.2790999  99.7427223
 118.1333645 113.4841002 100.3584878 116.7060443 113.8467761 100.0076306
 118.2595605 109.0300860 105.8629493 118.2030806 109.4869412 105.0237125
 118.8123947 108.2691545 105.6852336 122.0700411 104.8190592 106.6879612
 121.8137345 104.4187228 107.5187820 121.4453279 105.5334386 106.5629751
 126.3812749 107.5586665 109.1950904 125.8212307 107.6279855 109.9682466
 125.7756252 107.3827650 108.4750400 109.4507957 118.9923393 110.9469090
 109.3340342 119.9368825 110.8447780 108.6300404 118.6896954 111.3354889
 119.3384492 113.7173528 101.7925683 120.1730096 113.2854727 101.6103158
 119.1768835 113.5455542 102.7202577 118.9930384 110.2205642 103.1582022
 118.9379188 110.0549913 102.2170466 118.3676439 110.9281675 103.3144212
 103.7822899 105.4573706 116.9843444 104.4281763 104.9472660 117.4730669
 103.5740050 106.1942388 117.5586869 112.3026510  99.7213751 102.7367340
 112.2905179 100.6655591 102.8935611 113.1949931  99.5383896 102.4426802
 112.2316074 118.3982641 110.8235097 111.2811705 118.3984503 110.7099469
 112.5348560 117.6515376 110.3071132 116.1178629  96.3156527 106.9913277
 115.3511025  95.7615014 107.1369960 116.5289334  96.3878396 107.8527429
 108.1220390 102.6041323 121.0818458 108.9851852 102.2478128 121.2921783
 107.5485801 102.2655218 121.7693863 120.1400475 126.7966189 103.5240874
 120.9131351 126.2495176 103.3853750 120.4925874 127.6610438 103.7355336
 122.4766753 122.9558855 101.1559324 122.7292273 122.4340376 100.3942787
 121.5391312 122.7925000 101.2586008 122.1963041 124.8586961 103.3583699
 122.0799300 124.1831864 104.0264784 122.3065301 124.3719335 102.5415852
 124.1800069 119.3487008 102.0591737 124.3474472 120.2167244 102.4262208
 123.9897238 119.5114289 101.1353026 124.1589290 121.8044665 103.0438404
 124.0388915 122.2501716 103.8823884 123.4641879 122.1529983 102.4851942
 118.6480866 121.7417649 107.5972580 117.8512029 121.8536343 108.1156075
 118.4206458 122.0804301 106.7313470 127.5077298 123.4469633 102.4505403
 126.9923921 124.2174238 102.6893791 127.2354606 122.7734769 103.0738465
 120.7998347 120.1711076 102.3060635 119.9635660 120.5085762 102.6269910
 120.6603117 120.0360055 101.3687772 122.7751428 115.0147863 107.0139819
 122.1215840 114.6996881 106.3896434 122.7331902 114.3923604 107.7399642
 123.8862633 125.2967159  98.9293112 122.9789694 125.0656412  99.1284261
 124.3833665 124.5004778  99.1167093 115.6339037 123.1185268 107.4332304
 115.4363436 122.5254628 106.7083370 115.0785701 122.8137478 108.1508243
 124.7626954 126.9388497 100.7905180 124.3246384 126.2224356 100.3310818
 125.5037395 127.1664612 100.2290272 118.1285262 122.6449301 105.1173256
 117.1982850 122.5833757 105.3343218 118.2242734 122.1225254 104.3209897
 118.0470811 119.1704114 107.7051498 118.3077629 120.0849448 107.5960658
 118.8687984 118.7028557 107.8548110 128.8838182 125.7972879 100.3837238
 128.2667352 125.0719707 100.2870290 128.4154670 126.5582239 100.0404312
 120.6736727 120.0158303  99.5058542 119.7966194 119.8947104  99.1420789
 121.1494481 119.2244381  99.2537431 115.4015421 121.6100158 104.9471448
 115.6968862 120.7010837 104.8938501 114.5003457 121.5887898 104.6252450
 117.1303263 119.2914256 105.0710773 116.8015969 118.4111635 104.8885879
 117.4842634 119.2361925 105.9587162 120.2445086 119.5787226 105.4386251
 120.5841159 120.1073147 104.7164859 120.6917207 119.9167632 106.2144817
 122.2313233 118.0761847 103.6379543 122.9521596 118.4543100 103.1343260
 121.6078537 118.7950724 103.7414521 126.3744356 118.7806996 104.5737876
 126.5907970 119.6631634 104.2726704 125.8938423 118.3893210 103.8443518
 122.3776856 117.6109638 106.4677080 122.4992767 116.6826284 106.6667967
 122.0878899 117.6248324 105.5555395 119.1059548 125.2228948 105.5654036
 118.8605590 124.3191278 105.7634246 119.2755463 125.2246099 104.6233514
 118.3755196 120.9557306 103.0640197 117.6824441 121.0301661 102.4080233
 118.1306948 120.1917649 103.5861714 125.2349119 123.0272714  99.3720767
 126.1808224 122.8978922  99.4409185 124.8563364 122.2887376  99.8490195
 123.4192036 120.9522690  99.3075652 122.5123492 120.6555803  99.3838366
 123.6968017 120.6552508  98.4409938 125.0354102 115.4959580 105.4619894
 124.2254830 115.1506665 105.8375140 125.7238519 115.1867124 106.0507505
 126.9644650 114.5737627 107.0844190 127.5175689 114.9933080 107.7434213
 127.2014737 113.6473375 107.1267146 122.1890821 117.8109625  99.4487631
 123.0509985 118.1364524  99.7083449 122.3741165 117.0241121  98.9360697
 123.1420264 115.0505668 102.7367340 123.1298934 115.9947508 102.8935611
 124.0343686 114.8675814 102.4426802 126.9572384 111.6448445 106.9913277
 126.1904779 111.0906932 107.1369960 127.3683088 111.7170314 107.8527429
  52.0912487  -6.0638122  98.6126166  52.7290897  -6.1831374  97.9089506
  51.9733330  -5.1157278  98.6714118  48.9002193  -6.1110694  98.5487691
  48.5620705  -6.2269629  97.6608226  49.7691961  -6.5119529  98.5288697
  44.7589009  -4.2575217  94.5384582  44.1953874  -4.3485280  93.7700869
  44.6441404  -5.0775313  95.0187074  42.3053441  -2.7624026  97.3768802
  43.0974733  -3.1033201  96.9615101  42.5450091  -2.6529051  98.2970956
  50.3388568  -0.5904249  89.8499047  49.6876547  -0.0050169  89.4633060
  51.1332930  -0.0598055  89.9094084  44.2644195  -3.5015112  90.2486181
  45.0375071  -4.0486125  90.1099057  44.6169594  -2.6370863  90.4600642
  46.1029237  -2.1738730 103.4553080  45.8119103  -1.2693099 103.3399747
  46.7386222  -2.1322202 104.1697150  47.0285444  -4.7961882 100.0454440
  47.6249016  -5.0205859  99.3311403  47.0860416  -5.5377136 100.6479888
  46.6010473  -7.3422446  87.8804631  46.8535993  -7.8640925  87.1188094
  45.6635032  -7.5056301  87.9831315  51.6453755  -8.3386668  95.6879374
  52.4316845  -8.7567245  95.3369791  51.9092460  -7.4340576  95.8561023
  51.8163833  -2.9013818  90.3868031  51.1809666  -2.8279191  91.0988936
  51.4861239  -2.3120219  89.7087110  46.3206761  -5.4394340  90.0829006
  46.2043019  -6.1149437  90.7510090  46.4309021  -5.9261966  89.2661159
  48.6638302  -5.9784193  93.7875695  48.2996509  -6.5053572  94.4988617
  49.5205418  -6.3685724  93.6142181  48.3043789 -10.9494293  88.7837044
  48.4718192 -10.0814057  89.1507515  48.1140958 -10.7867012  87.8598333
  51.0619122  -2.4877315 100.4502874  50.7619845  -1.5852276 100.3418681
  50.7170182  -2.7545131 101.3024027  44.5131604  -6.0363518  96.4839578
  43.5882100  -6.1687304  96.6917270  44.7616017  -5.2569298  96.9809521
  48.2833010  -8.4936636  89.7683710  48.1632635  -8.0479585  90.6069191
  47.5885598  -8.1451318  89.2097249  41.8740415  -6.3930244  97.3183367
  42.0032796  -6.1395765  98.2322779  41.1937866  -5.8002536  96.9988023
  46.0439902   4.2767006  93.4173842  45.9663932   5.2274831  93.4962322
  45.4401546   3.9312878  94.0748768  53.9818076  -8.0215163  90.5964044
  54.8935932  -7.7887776  90.4211742  53.4727723  -7.4378119  90.0339123
  52.2658844  -3.5990535 104.2325337  52.6742200  -4.0408124 103.4879969
  51.5436105  -4.1737907 104.4859530  52.5887659  -3.0389344  97.9877626
  51.9596521  -2.8743630  97.2853694  52.2013321  -2.6247735  98.7588590
  56.4676890  -2.1034906  95.3421990  55.7827929  -1.7236005  94.7919023
  56.5520740  -1.4939580  96.0753937  53.7227822  -4.4574947 101.9417333
  53.9344717  -3.8143188 101.2651714  53.6757570  -5.2912631 101.4739263
  48.1415620  -3.3014936  95.2527711  48.6053966  -3.0227233  94.4632334
  47.8772418  -4.2031492  95.0700802  45.0339701  -3.7543455  98.1907474
  45.6041059  -3.3256186  97.5524959  45.6247813  -4.0360870  98.8891660
  47.0784506  -7.1791784  92.0617276  47.7808550  -6.7270740  92.5291203
  46.7465135  -7.8207965  92.6897169  54.8373650  -1.5802992 100.1139691
  55.6591094  -1.9822805  99.8322372  54.8336053  -1.6834758 101.0655806
  42.7724586  -8.5563652  94.3217886  41.9755749  -8.4444958  94.8401382
  42.5450178  -8.2177000  93.4558777  48.6030253  -2.0318949 102.2700401
  48.6674686  -1.5698542 103.1058573  47.8941177  -2.6621584 102.3982711
  62.9279643  -5.2364244  96.4624662  62.1743351  -5.8056845  96.3068666
  63.0627184  -5.2701579  97.4095297  48.3178271  -0.3650841  92.1379381
  48.1823946   0.4800694  92.5664229  48.8588084  -0.1631564  91.3745315
  41.7707668  -2.8475403  92.7107306  42.2832189  -2.0532153  92.8612871
  42.4230381  -3.5449113  92.6440908  43.5802553   0.2690353  94.7930060
  43.7569181   1.1908318  94.6051044  44.3759387  -0.0451228  95.2224439
  49.9446747   0.2572725 106.2679723  49.5010602  -0.5290896 105.9500628
  50.6063961   0.4451876 105.6023614  44.7033869   1.7868527 100.7940402
  45.2541294   1.6585590 100.0217396  43.8645345   2.0863416 100.4435295
  52.0427986   0.5375525 104.2961125  52.0246461   1.3584406 103.8041394
  52.9647906   0.4129600 104.5211266  39.7356585  -4.5186749  93.4866877
  40.5731807  -4.1089741  93.2700585  39.9134853  -5.4587307  93.4567071
  51.6321017  -6.8511668  89.1750710  51.1167641  -6.0807064  89.4139097
  51.3598326  -7.5246532  89.7983771  56.6055291  -4.0979314  91.1103883
  55.8284734  -4.4368154  90.6659046  57.2846772  -4.0926690  90.4358849
  51.4207321  -8.9784576  91.0010491  51.1157456  -8.6638427  91.8520634
  52.3737763  -8.9003156  91.0437824  49.8653752  -2.8194353  92.6503445
  49.3375114  -3.5541593  92.3376683  49.3641255  -2.0419677  92.4043413
  54.8446598  -4.6245332  97.7670491  54.1870273  -3.9346071  97.8550620
  55.6486998  -4.2348900  98.1104478  53.6552057  -6.2700960  95.8174433
  54.1683939  -5.6370968  96.3196143  54.3053281  -6.8699764  95.4517793
  44.9242067 -10.1270226  89.0305942  44.0879379  -9.7895539  89.3515217
  44.7846837 -10.2621246  88.0933079  48.0106353  -5.0014143  85.6538418
  47.1033414  -5.2324889  85.8529567  48.5077385  -5.7976523  85.8412400
  50.9174431   3.7083365  88.5735104  50.2436130   4.0115061  89.1820062
  51.3040253   4.5112445  88.2240561  50.1332888  -8.7951504  98.0632774
  49.2155449  -8.5736557  97.9054462  50.5493032  -8.7205194  97.2044481
  50.9167936  -7.3960088  93.1935454  51.6639755  -6.8838691  92.8842576
  51.1859525  -7.7176036  94.0539848  49.1894586  -4.9001548  90.1762408
  48.2805805  -5.1842515  90.2734878  49.2189670  -4.4802469  89.3165715
  54.4213853  -1.2894958  93.9453576  53.9676181  -2.1304048  94.0018766
  53.7907820  -0.6533560  94.2828356  52.8646793   0.5481538  94.8803394
  53.1569767   1.1086596  94.1615760  53.3745413   0.8410099  95.6356553
  47.7379480  -7.2872927  96.2772204  47.7928090  -8.2399091  96.2014680
  46.9270682  -7.1313488  96.7613502  48.8870674  -3.3592804  87.5150487
  48.4490104  -4.0756945  87.0556124  49.6281115  -3.1316689  86.9535578
  45.6771840  -8.6695867  94.0362582  44.8639705  -8.3701697  94.4427775
  46.1730834  -9.0640179  94.7537065  47.8280418   1.3261890  95.9696847
  47.7856597   1.5522736  95.0405379  48.7443117   1.0925264  96.1182648
  57.0043789  -5.0835607  93.5726805  56.8661687  -4.8934011  92.6447995
  56.6480007  -4.3216224  94.0294857  57.0313168  -3.0159080  98.5838077
  57.4649675  -3.1083791  99.4321131  57.7444749  -3.0401580  97.9458093
  45.9446219  -1.7975081  95.7658810  46.7386817  -2.2924761  95.5641385
  45.2337911  -2.3257218  95.4026515  50.7641063   0.5843014 100.1171178
  50.8178085   1.1533950 100.8848893  49.8955844   0.7544899  99.7525215
  42.2528982  -7.6532000  91.8418563  41.3226570  -7.7147544  92.0588525
  42.3486454  -8.1756047  91.0455204  57.8928718  -2.9735379 101.1170962
  58.0864608  -2.0689569 101.3630237  57.7929336  -3.4327960 101.9509547
  52.9543826  -2.8228637 106.6911843  52.8029333  -3.0518085 105.7741927
  52.9448506  -1.8658035 106.7043188  49.7229163  -5.2496724 101.6758109
  50.6521223  -5.0985564 101.5027077  49.3020193  -5.1612703 100.8206756
  48.5217495  -1.2246059  99.4456647  48.3828580  -1.5927275 100.3182585
  47.7332091  -0.7098420  99.2740605  49.1165647   3.8763037  90.7882184
  49.2917402   3.4051080  91.6027806  48.4298435   4.5028803  91.0163444
  50.0722710  -1.8464457  96.8345485  49.7372542  -1.8863687  97.7303135
  49.5726655  -2.5119741  96.3615895  53.0081901  -4.5008422  87.1082544
  52.3911072  -5.2261594  87.0115597  52.5398390  -3.7399062  86.7649619
  54.6636033   0.2090486 104.7688325  54.6048579  -0.4750294 104.1018908
  55.0655551   0.9509476 104.3168951  43.6826732   7.0252400  97.5622044
  43.9223330   7.6570924  98.2401062  42.8395928   6.6740440  97.8487403
  54.6653440  -1.8269930 103.0002304  53.7780219  -2.1644008 103.1228703
  55.2351991  -2.5586899 103.2371070  48.1954594   2.8331522  99.9663548
  48.1224765   3.6386494 100.4782852  47.7531987   3.0323488  99.1411569
  47.9844373   2.0703292  93.4766369  47.2011895   2.6124972  93.5704594
  48.6837119   2.5877272  93.8760610  59.1470781  -6.4161713  97.7618866
  59.1360657  -5.5336997  97.3912799  58.2788160  -6.7690162  97.5673403
  50.6553277   2.7318356 102.1221706  51.3681249   3.3665821 102.0497608
  50.1643306   2.8282222 101.3061708  52.3770804  -3.3630391  93.6938998
  51.4427083  -3.2428929  93.5243702  52.5547473  -4.2657924  93.4299008
  47.8775992  -9.9784695  95.8472259  47.5073780 -10.5313655  96.5353165
  48.3735085 -10.5826562  95.2947259  55.7643356  -7.5213072  94.2289032
  56.2303808  -6.6885080  94.1549335  56.2150856  -7.9868090  94.9334291
  45.7065191   0.4812800 102.9427277  46.4074650   1.1149283 103.0956671
  45.2360306   0.8227531 102.1822916  53.8319587  -1.1769250  91.2275184
  54.1079431  -1.2912656  92.1369058  52.9624085  -1.5751766  91.1887357
  53.5066477  -6.9642593 100.7679827  52.8537927  -6.7166685 100.1132280
  53.8846857  -7.7778455 100.4342305  50.4673651   3.0717100  94.8707998
  50.6496045   2.2538756  95.3335750  51.2906637   3.2884793  94.4332888
  50.8015816   1.9985285  92.1323046  51.3303583   1.4877740  91.5193208
  51.0644036   1.6827816  92.9968579  41.3032909   0.0149155  99.8758380
  41.8886346  -0.7307157 100.0086284  41.1057747   0.3253111 100.7595044
  44.1571564   3.0500402  94.8920822  43.4881939   3.5346530  94.4084862
  44.0184434   3.2969623  95.8064201  48.2976833   5.0844146 101.4903481
  48.8495141   5.2475767 102.2552566  48.6383026   5.6748584 100.8183505
  53.1487707  -0.0894597 107.3452135  53.6927611   0.5235361 106.8507090
  52.5674552   0.4684982 107.8619148  51.4345220   3.0326121  98.4767163
  51.3096359   2.2315861  97.9678108  52.0924311   3.5272315  97.9881133
  53.4980128   0.8335141 100.1046713  52.5510464   0.7140492 100.0325040
  53.8462901  -0.0542361 100.1872974  50.5026562   0.6287858  96.3051065
  50.3551524  -0.2995435  96.4858635  51.3280055   0.6507948  95.8208140
  54.1060683   1.4516416  97.3915938  55.0307231   1.2459278  97.2540389
  53.9375987   1.2032817  98.3005279  45.2387297  -8.5588592  97.8753927
  45.0931878  -8.2448289  98.7678208  44.7612501  -7.9403691  97.3224826
  53.8956000   1.9702084  92.7478029  54.0692877   1.4048506  91.9951882
  54.3884891   2.7702979  92.5657519  59.7495391  -5.2661493  94.3668329
  60.1926537  -6.0154168  93.9687452  58.8721901  -5.2751357  93.9842061
  54.8831172   1.2868848  89.8474928  55.5782077   1.9075541  90.0662242
  55.2254322   0.4364199  90.1227305  56.7822595  -1.2631446  91.3762258
  57.3073919  -0.9244174  90.6511578  56.6944948  -2.1984431  91.1925393
  48.4442644   2.6502627 103.5052135  48.7529770   2.4051774 104.3774835
  49.2418126   2.8549266 103.0171005  48.4663256   4.8040537  95.7357511
  48.0268246   4.3116916  96.4290368  49.2171373   4.2613505  95.4949587
  40.9455595   0.9952078  95.7382140  41.7713615   0.6955850  95.3580783
  40.5949647   0.2259700  96.1871928  45.9137128   0.3478546  97.8079813
  45.2917137  -0.3150749  97.5082041  46.5841995   0.3739678  97.1253461
  39.1464200  -1.0861596  96.6971073  38.3096108  -1.5139421  96.5155074
  39.1187845  -0.8929152  97.6341864  56.4716501  -0.6298543 106.6813456
  55.6812045  -0.6474404 106.1417956  56.2349856  -0.0910249 107.4362493
  56.5914376  -3.7806076 103.9946185  56.6412381  -3.9456069 104.9361708
  56.4828300  -4.6478817 103.6044066  45.4750635  -1.1017531  91.2838274
  45.6238755  -0.4182066  90.6304946  46.2817079  -1.1212441  91.7987729
  58.0932573  -1.3609135 104.2388206  57.8017382  -0.9979154 105.0751667
  57.4804704  -2.0742127 104.0601538  59.2928256  -3.7956255  96.7590777
  60.1275147  -3.3566451  96.9228337  59.4287384  -4.2717602  95.9399022
  56.3419761  -6.2376520 102.7068264  56.8173883  -6.0448874 101.8987116
  55.4185327  -6.1817334 102.4611648  43.2303268  -5.0752353  92.2899343
  42.9849310  -5.9790023  92.4879553  43.3999183  -5.0735203  91.3478821
  48.9746041   1.3930600  88.7550021  48.4020008   2.0120787  88.3020493
  49.5478834   1.9429961  89.2889943  52.1943300   1.6767750  89.8858603
  53.1273974   1.6113312  90.0891479  52.1066513   2.5124017  89.4273136
  54.8231317   0.9933620  86.8462551  54.7444949   0.6593484  87.7398309
  55.6440984   1.4855388  86.8454023  57.5209508  -6.1404640 100.0538870
  57.4885828  -7.0788640 100.2398553  58.1310132  -6.0620604  99.3204694
  49.3592839  -7.2708587  86.0966074  50.3051944  -7.4002379  86.1654492
  48.9807084  -8.0093926  86.5735502  63.3386058  -5.0788634  99.1944906
  64.0689447  -5.3403345  99.7552610  62.7293004  -5.8159912  99.2346974
  61.4201355  -6.9380771  99.7919358  60.6934519  -7.0724806  99.1835849
  61.0048642  -6.6303942 100.5976076  47.5435756  -9.3458611  86.0320959
  46.6367212  -9.6425498  86.1083672  47.8211737  -9.6428793  85.1655245
  42.2393604  -5.3089807 100.1989512  42.4579614  -4.3772699 100.2177546
  42.6519378  -5.6681832 100.9844316  38.3301957  -4.4049336  98.4513127
  37.6365428  -4.8195383  97.9383081  39.0774948  -4.3628800  97.8546546
  40.2438699  -4.4731082  96.3279142  40.2209387  -4.3743395  95.3761025
  40.5539336  -3.6265932  96.6496308  42.9026077  -2.4154927 100.4425756
  43.8569331  -2.4470985 100.3755688  42.7038601  -2.8764304 101.2575982
  41.2576306   3.1264692  97.4595954  41.1230774   2.3665093  96.8933952
  40.8408368   3.8505592  96.9924743  52.3935269  -1.6898384  86.4672529
  53.0971119  -1.4848382  87.0830185  51.6697918  -1.1221622  86.7321613
  53.2233079  -5.9388523  92.5874799  53.1668281  -5.4819972  91.7482432
  53.7761422  -6.6997838  92.4097642  44.4145432   4.0234009  97.6714397
  44.2977816   4.9679442  97.5693087  43.5937878   3.7207571  98.0600196
  54.3021966  -1.2515855  88.5170989  55.1367570  -1.6834657  88.3348464
  54.1406309  -1.4233841  89.4447884  53.9567858  -4.7483742  89.8827329
  53.9016662  -4.9139470  88.9415773  53.3313914  -4.0407709  90.0389518
  45.4399946   4.6762271 100.8870325  46.3427193   4.7085881 101.2036820
  45.2137316   3.7462722 100.9016661  47.1953548   3.4293258  97.5480404
  46.2449179   3.4295119  97.4344776  47.4986034   2.6825992  97.0316438
  62.9306241   9.2653796  98.6126166  63.5684651   9.1460543  97.9089506
  62.8127084  10.2134640  98.6714118  59.7395948   9.2181224  98.5487691
  59.4014459   9.1022289  97.6608226  60.6085716   8.8172389  98.5288697
  55.5982763  11.0716700  94.5384582  55.0347628  10.9806637  93.7700869
  55.4835158  10.2516605  95.0187074  60.2215731  10.3716076 104.5073896
  60.2104371   9.9768874 103.6354400  60.3836370   9.6382148 105.1007668
  53.1447195  12.5667892  97.3768802  53.9368487  12.2258717  96.9615101
  53.3843845  12.6762867  98.2970956  61.1782322  14.7387668  89.8499047
  60.5270302  15.3241749  89.4633060  61.9726685  15.2693863  89.9094084
  55.1037949  11.8276805  90.2486181  55.8768825  11.2805792  90.1099057
  55.4563348  12.6921055  90.4600642  56.9422992  13.1553188 103.4553080
  56.6512858  14.0598818 103.3399747  57.5779976  13.1969715 104.1697150
  57.8679199  10.5330036 100.0454440  58.4642771  10.3086059  99.3311403
  57.9254170   9.7914782 100.6479888  57.4404227   7.9869471  87.8804631
  57.6929748   7.4650993  87.1188094  56.5028786   7.8235617  87.9831315
  62.4847510   6.9905250  95.6879374  63.2710599   6.5724673  95.3369791
  62.7486214   7.8951342  95.8561023  62.6557587  12.4278100  90.3868031
  62.0203420  12.5012727  91.0988936  62.3254994  13.0171699  89.7087110
  67.8855937   6.9280483  96.5912353  68.6181109   6.3579700  96.8250182
  67.1295293   6.5402083  97.0318858  57.1600516   9.8897577  90.0829006
  57.0436774   9.2142481  90.7510090  57.2702776   9.4029951  89.2661159
  59.5032057   9.3507725  93.7875695  59.1390264   8.8238345  94.4988617
  60.3599173   8.9606194  93.6142181  65.4081357   0.6402057 101.0506961
  65.0764682   1.5097468 100.8268176  64.8126971   0.3238341 101.7300992
  59.1437544   4.3797624  88.7837044  59.3111946   5.2477861  89.1507515
  58.9534713   4.5424906  87.8598333  61.9012877  12.8414603 100.4502874
  61.6013600  13.7439642 100.3418681  61.5563936  12.5746786 101.3024027
  55.3525358   9.2928400  96.4839578  54.4275855   9.1604614  96.6917270
  55.6009772  10.0722619  96.9809521  65.3010021   5.3597143  98.1300311
  64.3926898   5.2912552  97.8359072  65.2497616   5.8369088  98.9582137
  59.1226765   6.8355282  89.7683710  59.0026390   7.2812332  90.6069191
  58.4279353   7.1840599  89.2097249  52.7134169   8.9361674  97.3183367
  52.8426551   9.1896152  98.2322779  52.0331621   9.5289382  96.9988023
  56.8833657  19.6058923  93.4173842  56.8057686  20.5566749  93.4962322
  56.2795300  19.2604796  94.0748768  59.3750886   6.7786789 106.0735209
  58.5984220   7.3380709 106.0638073  60.0141449   7.2643572 106.5950079
  67.1671667   3.5613582  99.9078185  66.5246047   3.8546115  99.2617980
  66.6626596   3.4466502 100.7131382  64.8211831   7.3076755  90.5964044
  65.7329687   7.5404142  90.4211742  64.3121478   7.8913799  90.0339123
  57.6297259   9.5872242 105.6353176  58.3711943  10.1257286 105.3587999
  56.9234244  10.2138531 105.7924727  63.1052598  11.7301383 104.2325337
  63.5135954  11.2883793 103.4879969  62.3829860  11.1554010 104.4859530
  59.4583668   6.6673989 101.6058894  60.3044864   7.0913403 101.7493543
  59.3982306   6.0107614 102.2997457  63.4281413  12.2902573  97.9877626
  62.7990275  12.4548287  97.2853694  63.0407075  12.7044183  98.7588590
  67.3070645  13.2257011  95.3421990  66.6221683  13.6055913  94.7919023
  67.3914494  13.8352338  96.0753937  62.6083114   4.3278358 103.2640068
  62.3644046   5.0820418 102.7274343  62.8843044   4.7063705 104.0987315
  64.5621577  10.8716970 101.9417333  64.7738472  11.5148730 101.2651714
  64.5151325  10.0379287 101.4739263  62.1647805   3.4834791  98.8453905
  61.3032284   3.7816044  99.1370643  62.1910240   3.7005190  97.9134938
  58.9809375  12.0276981  95.2527711  59.4447720  12.3064684  94.4632334
  58.7166173  11.1260426  95.0700802  55.8733456  11.5748463  98.1907474
  56.4434813  12.0035731  97.5524959  56.4641568  11.2931048  98.8891660
  57.9178261   8.1500134  92.0617276  58.6202304   8.6021177  92.5291203
  57.5858889   7.5083953  92.6897169  56.3658622   6.7411890 106.4368486
  55.7357283   7.4228171 106.6703882  56.2594710   6.6294972 105.4921624
  51.6603595   6.4083686  97.3634410  50.8702649   6.6641215  96.8874520
  52.1514842   7.2232024  97.4686450  65.6767404  13.7488926 100.1139691
  66.4984848  13.3469113  99.8322372  65.6729807  13.6457160 101.0655806
  53.6118340   6.7728266  94.3217886  52.8149504   6.8846960  94.8401382
  53.3843932   7.1114918  93.4558777  59.4424008  13.2972969 102.2700401
  59.5068440  13.7593376 103.1058573  58.7334932  12.6670334 102.3982711
  49.9441298   6.6614177  99.7949401  50.1949336   7.5461187 100.0606976
  50.4800846   6.4818778  99.0224492  73.7673398  10.0927674  96.4624662
  73.0137106   9.5235072  96.3068666  73.9020939  10.0590339  97.4095297
  59.1572026  14.9641076  92.1379381  59.0217700  15.8092612  92.5664229
  59.6981838  15.1660354  91.3745315  55.6439365   1.0432656 108.7993737
  55.2506311   0.4898855 109.4741381  56.4605506   1.3543235 109.1900254
  52.6101423  12.4816514  92.7107306  53.1225944  13.2759765  92.8612871
  53.2624136  11.7842805  92.6440908  54.4196308  15.5982271  94.7930060
  54.5962936  16.5200235  94.6051044  55.2153141  15.2840690  95.2224439
  58.5607326   2.4590535 106.3913993  59.3017040   3.0597689 106.3118456
  58.7925249   1.7168173 105.8332036  53.7048664   7.6446903 104.6692223
  53.5902179   6.7432160 104.9699322  52.8493182   7.8910599 104.3177039
  60.7840502  15.5864643 106.2679723  60.3404356  14.8001021 105.9500628
  61.4457716  15.7743793 105.6023614  55.5427623  17.1160445 100.7940402
  56.0935048  16.9877508 100.0217396  54.7039099  17.4155334 100.4435295
  62.8821740  15.8667443 104.2961125  62.8640215  16.6876324 103.8041394
  63.8041660  15.7421518 104.5211266  59.3394794  13.3811572 105.1384633
  59.8723131  12.6199861 104.9083941  58.8108875  13.0885224 105.8808788
  62.5064489  -1.5128362 100.6678275  62.1628759  -0.6226720 100.5917385
  62.8743452  -1.7026704  99.8047860  50.5750340  10.8105169  93.4866877
  51.4125562  11.2202177  93.2700585  50.7528607   9.8704611  93.4567071
  62.4714772   8.4780249  89.1750710  61.9561395   9.2484854  89.4139097
  62.1992080   7.8045386  89.7983771  60.0561883   3.3229950  94.2335948
  59.2003479   2.9336801  94.0541587  60.4688835   3.4021911  93.3735734
  61.5861030   0.8576293  98.6327508  61.0825825   0.8206429  97.8195313
  61.8791636   1.7669036  98.6924165  57.8303915   0.9415023  97.6393690
  58.6956912   0.7457832  97.2799579  57.8981424   0.7125375  98.5663047
  67.4449046  11.2312604  91.1103883  66.6678489  10.8923764  90.6659046
  68.1240527  11.2365227  90.4358849  62.2601075   6.3507342  91.0010491
  61.9551211   6.6653491  91.8520634  63.2131517   6.4288761  91.0437824
  60.7047507  12.5097565  92.6503445  60.1768868  11.7750324  92.3376683
  60.2035010  13.2872241  92.4043413  65.6840353  10.7046585  97.7670491
  65.0264027  11.3945847  97.8550620  66.4880752  11.0943017  98.1104478
  55.4366234   3.1717231  95.0110057  56.0109986   2.9492413  94.2783250
  56.0237217   3.2405926  95.7638658  64.4945812   9.0590958  95.8174433
  65.0077693   9.6920950  96.3196143  65.1447036   8.4592154  95.4517793
  55.7635822   5.2021692  89.0305942  54.9273134   5.5396379  89.3515217
  55.6240591   5.0670672  88.0933079  57.7388902   0.0458480  93.7385126
  57.0853315  -0.2692503  93.1141741  57.6969376  -0.5765780  94.4644949
  58.8500107  10.3277775  85.6538418  57.9427169  10.0967029  85.8529567
  59.3471139   9.5315394  85.8412400  61.7568186  19.0375282  88.5735104
  61.0829885  19.3406979  89.1820062  62.1434008  19.8404363  88.2240561
  60.9726643   6.5340414  98.0632774  60.0549204   6.7555361  97.9054462
  61.3886786   6.6086724  97.2044481  61.7561690   7.9331829  93.1935454
  62.5033509   8.4453226  92.8842576  62.0253280   7.6115882  94.0539848
  60.0288340  10.4290370  90.1762408  59.1199560  10.1449403  90.2734878
  60.0583424  10.8489449  89.3165715  65.2607608  14.0396959  93.9453576
  64.8069935  13.1987869  94.0018766  64.6301575  14.6758358  94.2828356
  64.2040527   4.9688945  95.1754243  63.4663284   4.4566332  95.5064486
  64.4567301   4.5289327  94.3637520  63.7040547  15.8773456  94.8803394
  63.9963522  16.4378513  94.1615760  64.2139168  16.1702017  95.6356553
  64.3052155  -2.2534803  95.7696013  64.6111032  -3.1137439  95.4821928
  65.0304760  -1.6617182  95.5695006  50.5976511   8.1495884  94.1577610
  50.4000911   7.5565245  93.4328677  50.0423175   7.8448094  94.8753549
  58.5773235   8.0418991  96.2772204  58.6321844   7.0892827  96.2014680
  57.7664437   8.1978430  96.7613502  59.7264428  11.9699114  87.5150487
  59.2883858  11.2534973  87.0556124  60.4674869  12.1975228  86.9535578
  56.5165594   6.6596050  94.0362582  55.7033460   6.9590221  94.4427775
  57.0124589   6.2651739  94.7537065  58.6674172  16.6553807  95.9696847
  58.6250351  16.8814654  95.0405379  59.5836871  16.4217182  96.1182648
  62.1139806   7.1237875 102.8677476  62.4689194   7.3509348 103.7271942
  62.7611937   7.4556252 102.2454732  67.8437543  10.2456311  93.5726805
  67.7055442  10.4357907  92.6447995  67.4873762  11.0075693  94.0294857
  56.0079669   4.2314406  99.6523817  56.6479049   4.0903165  98.9546781
  55.1757200   3.9448919  99.2762419  67.8706923  12.3132838  98.5838077
  68.3043429  12.2208127  99.4321131  68.5838503  12.2890338  97.9458093
  56.7839973  13.5316836  95.7658810  57.5780572  13.0367156  95.5641385
  56.0731665  13.0034699  95.4026515  61.6034818  15.9134932 100.1171178
  61.6571840  16.4825868 100.8848893  60.7349599  16.0836817  99.7525215
  53.0922737   7.6759918  91.8418563  52.1620325   7.6144373  92.0588525
  53.1880209   7.1535871  91.0455204  53.0108286   4.2014731  94.4296804
  53.2715103   5.1160064  94.3205965  53.8325458   3.7339173  94.5793417
  54.4833211   5.6152488 101.5995629  55.1556264   5.4069850 100.9508278
  53.6562997   5.4174574 101.1600861  68.7322472  12.3556538 101.1170962
  68.9258362  13.2602349 101.3630237  68.6323090  11.8963957 101.9509547
  60.3858783   2.2414429 103.6161290  59.7386698   2.9404379 103.5225766
  61.1559798   2.6750573 103.9837538  63.7937581  12.5063281 106.6911843
  63.6423087  12.2773833 105.7741927  63.7842260  13.4633882 106.7043188
  60.5622917  10.0795194 101.6758109  61.4914977  10.2306353 101.5027077
  60.1413947  10.1679215 100.8206756  59.3611249  14.1045858  99.4456647
  59.2222335  13.7364643 100.3182585  58.5725845  14.6193498  99.2740605
  59.9559401  19.2054955  90.7882184  60.1311157  18.7342998  91.6027806
  59.2692189  19.8320721  91.0163444  60.9116464  13.4827461  96.8345485
  60.5766297  13.4428231  97.7303135  60.4120410  12.8172177  96.3615895
  54.8860708   8.8895091 102.3598066  54.7480506   8.1575330 102.9609605
  55.7965632   8.8003991 102.0782254  63.8475656  10.8283495  87.1082544
  63.2304827  10.1030323  87.0115597  63.3792144  11.5892856  86.7649619
  57.5143009   8.6015050 101.8481746  58.2242627   7.9608242 101.8068364
  57.4712317   8.8527945 102.7707926  65.5029788  15.5382404 104.7688325
  65.4442334  14.8541624 104.1018908  65.9049306  16.2801394 104.3168951
  56.2271943   5.5880268 103.6677385  55.6909300   5.1371007 104.3198981
  55.6388651   5.7226177 102.9247849  54.5220486  22.3544317  97.5622044
  54.7617085  22.9862842  98.2401062  53.6789683  22.0032357  97.8487403
  55.6374202   5.0468920  86.2303849  54.7603668   4.9257720  85.8666095
  56.1131955   4.2554998  85.9782737  65.5047195  13.5021988 103.0002304
  64.6173974  13.1647909 103.1228703  66.0745746  12.7705019 103.2371070
  47.1576342   9.8346079  96.3245356  47.8447382   9.5207809  95.7366371
  47.0024471  10.7387444  96.0512607  51.9611064   4.7236276 100.7530380
  51.8769253   4.1161945 100.0180789  51.1393770   5.2145294 100.7539876
  59.0348348  18.1623440  99.9663548  58.9618520  18.9678411 100.4782852
  58.5925741  18.3615406  99.1411569  58.8238128  17.3995210  93.4766369
  58.0405650  17.9416890  93.5704594  59.5230873  17.9169190  93.8760610
  62.1334778   3.2089839  96.1200575  62.6303477   2.4559802  95.8001645
  61.3621759   3.2454156  95.5543784  69.9864535   8.9130205  97.7618866
  69.9754412   9.7954920  97.3912799  69.1181915   8.5601756  97.5673403
  61.4947032  18.0610274 102.1221706  62.2075004  18.6957739 102.0497608
  61.0037060  18.1574140 101.3061708  63.2164559  11.9661527  93.6938998
  62.2820837  12.0862989  93.5243702  63.3941227  11.0633993  93.4299008
  58.7169747   5.3507222  95.8472259  58.3467534   4.7978263  96.5353165
  59.2128839   4.7465356  95.2947259  66.6037110   7.8078846  94.2289032
  67.0697562   8.6406837  94.1549335  67.0544610   7.3423827  94.9334291
  56.5458945  15.8104717 102.9427277  57.2468405  16.4441200 103.0956671
  56.0754060  16.1519449 102.1822916  64.6713341  14.1522667  91.2275184
  64.9473185  14.0379262  92.1369058  63.8017840  13.7540152  91.1887357
  64.5753773   0.1759433  98.2679933  63.6616853   0.4063660  98.4362140
  65.0046874   0.2597877  99.1193966  64.3460231   8.3649325 100.7679827
  63.6931681   8.6125232 100.1132280  64.7240611   7.5513463 100.4342305
  61.3067405  18.4009018  94.8707998  61.4889800  17.5830674  95.3335750
  62.1300391  18.6176710  94.4332888  61.6409571  17.3277203  92.1323046
  62.1697337  16.8169658  91.5193208  61.9037790  17.0119733  92.9968579
  60.3947804   9.1069136 107.2545865  59.7188441   9.0063265 107.9248240
  61.2175438   8.9508350 107.7181862  52.1426663  15.3441072  99.8758380
  52.7280100  14.5984760 100.0086284  51.9451502  15.6545029 100.7595044
  54.9965319  18.3792320  94.8920822  54.3275694  18.8638447  94.4084862
  54.8578188  18.6261540  95.8064201  46.7344318   7.9146673  98.5962823
  46.7728418   7.3810263  99.3899941  46.2284611   7.3881878  97.9773800
  59.1370587  20.4136063 101.4903481  59.6888895  20.5767685 102.2552566
  59.4776781  21.0040501 100.8183505  54.1135080   2.7611213 102.0925365
  54.1776407   3.6226044 101.6802763  54.0502201   2.1485215 101.3597724
  53.5887353   4.8334346 105.7398400  54.2159392   4.4511423 106.3535924
  52.7315272   4.6148548 106.1054092  63.9881461  15.2397321 107.3452135
  64.5321365  15.8527279 106.8507090  63.4068306  15.7976899 107.8619148
  50.3652896   6.6410775  91.6716754  50.6606337   5.7321453  91.6183808
  49.4640931   6.6198514  91.3497757  62.2738974  18.3618039  98.4767163
  62.1490114  17.5607779  97.9678108  62.9318066  18.8564232  97.9881133
  53.8947143   4.7166771  97.6544303  53.1733728   5.3302739  97.5151776
  54.6840398   5.2524536  97.5760949  64.3373883  16.1627059 100.1046713
  63.3904218  16.0432410 100.0325040  64.6856656  15.2749557 100.1872974
  56.6973456   2.0521198 103.9284955  57.2207858   2.2983494 104.6911264
  56.4785789   2.8841233 103.5088092  52.0940737   4.3224872  91.7956080
  51.7653443   3.4422251  91.6131185  52.4480108   4.2672541  92.6832469
  61.3420316  15.9579775  96.3051065  61.1945279  15.0296483  96.4858635
  62.1673810  15.9799866  95.8208140  55.2082560   4.6097842  92.1631557
  55.5478633   5.1383764  91.4410166  55.6554681   4.9478248  92.9390124
  64.9454438  16.7808334  97.3915938  65.8700985  16.5751195  97.2540389
  64.7769741  16.5324735  98.3005279  57.9026001   2.9934893 101.6134625
  57.5622822   2.1942706 102.0155305  57.1965007   3.2936604 101.0411458
  58.5542473   0.0784205 100.0661948  59.3768542  -0.3955316  99.9440839
  58.7980537   0.8574689 100.5660635  57.1950708   3.1072464  90.3624850
  57.9159070   3.4853717  89.8588567  56.5716012   3.8261341  90.4659828
  61.3381830   3.8117613  91.2983182  61.5545445   4.6942251  90.9972010
  60.8575898   3.4203826  90.5688824  56.0781052   6.7703326  97.8753927
  55.9325633   7.0843629  98.7678208  55.6006255   7.3888226  97.3224826
  57.9377435   3.7605874  97.9234816  57.9239003   2.8646967  97.5867114
  58.6549863   3.7676538  98.5573102  59.7903565   4.1943214  99.9687944
  59.5321343   5.1160285  99.9672274  59.2588606   3.7973649 100.6588408
  64.7349754  17.2994001  92.7478029  64.9086632  16.7340424  91.9951882
  65.2278645  18.0994896  92.5657519  50.5526714   9.3108670 100.8141588
  50.0080182  10.0868478 100.9461862  51.4306064   9.6579475 100.6560709
  57.3414331   2.6420254  93.1922387  57.4630242   1.7136901  93.3913274
  57.0516373   2.6558940  92.2800702  60.2105521   0.3275165  96.3289106
  60.2327218   0.3914498  95.3741086  60.6273580  -0.5120327  96.5229613
  70.5889145  10.0630424  94.3668329  71.0320291   9.3137750  93.9687452
  69.7115656  10.0540561  93.9842061  65.7224927  16.6160766  89.8474928
  66.4175831  17.2367458  90.0662242  66.0648077  15.7656117  90.1227305
  51.3392736   8.4378567 103.7071745  50.5974472   8.5861202 104.2936375
  51.0185480   8.6986832 102.8438494  67.6216350  14.0660471  91.3762258
  68.1467674  14.4047744  90.6511578  67.5338702  13.1307487  91.1925393
  59.2836398  17.9794545 103.5052135  59.5923525  17.7343692 104.3774835
  60.0811880  18.1841183 103.0171005  59.3057011  20.1332455  95.7357511
  58.8662001  19.6408833  96.4290368  60.0565127  19.5905422  95.4949587
  51.7849349  16.3243995  95.7382140  52.6107369  16.0247767  95.3580783
  51.4343401  15.5551618  96.1871928  56.7530883  15.6770464  97.8079813
  56.1310892  15.0141169  97.5082041  57.4235750  15.7031596  97.1253461
  49.9857955  14.2430322  96.6971073  49.1489863  13.8152496  96.5155074
  49.9581600  14.4362765  97.6341864  56.8255410   4.1552252 107.4012319
  56.8743566   5.0314375 107.0190089  57.3677924   3.6129645 106.8283962
  67.3110256  14.6993375 106.6813456  66.5205800  14.6817514 106.1417956
  67.0743610  15.2381669 107.4362493  67.4308131  11.5485841 103.9946185
  67.4806136  11.3835849 104.9361708  67.3222054  10.6813100 103.6044066
  56.3144390  14.2274387  91.2838274  56.4632510  14.9109851  90.6304946
  57.1210833  14.2079477  91.7987729  64.7211893   7.5316769 105.3105492
  65.6221756   7.3923234 105.0189489  64.7959868   7.6971224 106.2503669
  59.0554699   4.9083624 104.1558678  58.1858008   5.2017190 103.8841266
  59.2914179   5.4924069 104.8765941  68.9326328  13.9682783 104.2388206
  68.6411136  14.3312763 105.0751667  68.3198459  13.2549791 104.0601538
  70.1322010  11.5335663  96.7590777  70.9668901  11.9725467  96.9228337
  70.2681139  11.0574316  95.9399022  67.1813516   9.0915397 102.7068264
  67.6567638   9.2843044 101.8987116  66.2579081   9.1474583 102.4611648
  54.0697023  10.2539565  92.2899343  53.8243064   9.3501895  92.4879553
  54.2392937  10.2556715  91.3478821  61.7593732   1.1263241 101.6724098
  62.2775676   1.8624268 101.3470587  61.4048865   1.4327234 102.5070857
  53.3392670   5.9867922  89.7885504  52.6461915   6.0612277  89.1325540
  53.0944422   5.2228266  90.3107021  62.0106327  -2.4536476  97.1924995
  62.2908080  -3.1213287  97.8185421  62.7956934  -2.2607381  96.6799659
  59.8139795  16.7222517  88.7550021  59.2413762  17.3412705  88.3020493
  60.3872589  17.2721879  89.2889943  65.8815185   5.9681158 100.9396570
  66.8332608   6.0679255 100.9608794  65.7118635   5.1759426 101.4494654
  63.9029564   3.0536741 101.1255971  63.3079497   3.3341753 100.4302459
  63.6179261   3.5430642 101.8972712  63.0337055  17.0059668  89.8858603
  63.9667728  16.9405229  90.0891479  62.9460268  17.8415934  89.4273136
  65.6625072  16.3225538  86.8462551  65.5838703  15.9885402  87.7398309
  66.4834738  16.8147306  86.8454023  68.3603263   9.1887277 100.0538870
  68.3279583   8.2503278 100.2398553  68.9703886   9.2671314  99.3204694
  60.1986594   8.0583330  86.0966074  61.1445698   7.9289538  86.1654492
  59.8200839   7.3197992  86.5735502  68.5097751   5.9798321 100.0997153
  67.9936800   5.1956777  99.9127082  69.3937700   5.6517037 100.2643672
  66.1708478  -0.2760664  96.0592965  65.9733299  -0.5845576  96.9436297
  66.7808184   0.4500975  96.1890895  74.1779813  10.2503284  99.1944906
  74.9083201   9.9888572  99.7552610  73.5686758   9.5132006  99.2346974
  72.2595110   8.3911147  99.7919358  71.5328273   8.2567112  99.1835849
  71.8442397   8.6987975 100.5976076  60.0825286  12.1101076 107.5566731
  61.0028296  12.2879675 107.7506777  60.0474869  11.1657122 107.4046430
  58.3829511   5.9833307  86.0320959  57.4760966   5.6866419  86.1083672
  58.6605492   5.6863125  85.1655245  49.3007451   7.3039670  96.4820005
  48.9810235   6.4504978  96.1894379  48.7540879   7.5188248  97.2377973
  53.0787359  10.0202111 100.1989512  53.2973368  10.9519219 100.2177546
  53.4913133   9.6610085 100.9844316  59.9991576   0.5270196  92.1865200
  59.1892305   0.1817281  92.5620446  60.6875993   0.2177740  92.7752812
  61.9282125  -0.3951757  93.8089497  62.4813163   0.0243697  94.4679520
  62.1652211  -1.3216009  93.8512453  57.9515224   5.5935317 109.5892261
  57.8511951   6.5429674 109.5204352  57.7336766   5.2653556 108.7168331
  57.1528295   2.8420242  86.1732938  58.0147459   3.1675140  86.4328755
  57.3378640   2.0551738  85.6606004  49.1695711  10.9242581  98.4513127
  48.4759183  10.5096534  97.9383081  49.9168702  10.9663118  97.8546546
  65.3060932   1.7148768  93.3168161  64.7259601   2.3733572  92.9346213
  65.0396865   0.8926113  92.9055579  63.7564498   1.1153826  95.5189481
  64.2564277   1.2270361  94.7103800  64.4000106   0.8114879  96.1590290
  57.8146494   9.0232456 108.4057322  57.3313576   9.8232816 108.6121211
  57.9007433   9.0340400 107.4524766  51.0832454  10.8560835  96.3279142
  51.0603142  10.9548523  95.3761025  51.3933090  11.7025986  96.6496308
  53.7419832  12.9136990 100.4425756  54.6963085  12.8820933 100.3755688
  53.5432355  12.4527614 101.2575982  54.3319214  11.4838106 103.0096554
  55.1512103  11.9782185 103.0331391  54.6056021  10.5670074 102.9814121
  64.0885810   3.8748859  92.3724509  63.2011665   4.1598509  92.1544704
  64.5039799   3.7142622  91.5251786  67.4400346   3.8995380  96.0878849
  68.2160736   4.3891832  96.3603465  66.7148480   4.3253434  96.5450718
  69.8772905   4.6122999  97.1452789  70.4717395   4.3718735  96.4346097
  69.9499488   3.8930129  97.7726325  52.0970060  18.4556610  97.4595954
  51.9624528  17.6957011  96.8933952  51.6802123  19.1797510  96.9924743
  63.2329023  13.6393533  86.4672529  63.9364873  13.8443536  87.0830185
  62.5091672  14.2070295  86.7321613  64.0626834   9.3903395  92.5874799
  64.0062035   9.8471946  91.7482432  64.6155176   8.6294079  92.4097642
  67.8731640   5.1793126  93.4124919  67.6168574   4.7789762  94.2433127
  67.2484508   5.8936920  93.2875058  72.1843977   7.9189200  95.9196210
  71.6243535   7.9882389  96.6927772  71.5787481   7.7430184  95.1995707
  55.2539186  19.3525927  97.6714397  55.1371570  20.2971359  97.5693087
  54.4331632  19.0499488  98.0600196  65.1415721  14.0776063  88.5170989
  65.9761325  13.6457261  88.3348464  64.9800064  13.9058076  89.4447884
  64.7961613  10.5808176  89.8827329  64.7410417  10.4152447  88.9415773
  64.1707668  11.2884209  90.0389518  49.5854128   5.8176240 103.7088751
  50.2312992   5.3075194 104.1975976  49.3771279   6.5544922 104.2832176
  62.1107520  12.8857088 109.2080891  62.9798680  13.0597740 108.8467526
  61.6314272  13.7051505 109.0856621  58.1057738   0.0816285  89.4612647
  58.0936408   1.0258125  89.6180918  58.9981160  -0.1013570  89.1672108
  56.2793700  20.0054189 100.8870325  57.1820947  20.0377799 101.2036820
  56.0531070  19.0754640 100.9016661  58.0347302  18.7585175  97.5480404
  57.0842933  18.7587037  97.4344776  58.3379788  18.0117910  97.0316438
  61.9209858  -3.3240939  93.7158584  61.1542254  -3.8782452  93.8615266
  62.3320563  -3.2519070  94.5772735  53.9251619   2.9643857 107.8063765
  54.7883080   2.6080662 108.0167090  53.3517030   2.6257752 108.4939169
  73.7699996  24.5945714  98.6126166  74.4078406  24.4752461  97.9089506
  73.6520839  25.5426558  98.6714118  70.5789702  24.5473142  98.5487691
  70.2408214  24.4314206  97.6608226  71.4479470  24.1464307  98.5288697
  66.4376518  26.4008618  94.5384582  65.8741383  26.3098555  93.7700869
  66.3228913  25.5808523  95.0187074  71.0609485  25.7007993 104.5073896
  71.0498126  25.3060792 103.6354400  71.2230125  24.9674066 105.1007668
  63.9840950  27.8959810  97.3768802  64.7762242  27.5550634  96.9615101
  64.2237600  28.0054785  98.2970956  65.9431704  27.1568723  90.2486181
  66.7162580  26.6097710  90.1099057  66.2957103  28.0212972  90.4600642
  67.7816746  28.4845105 103.4553080  67.4906612  29.3890736 103.3399747
  68.4173731  28.5261633 104.1697150  68.7072953  25.8621954 100.0454440
  69.3036525  25.6377976  99.3311403  68.7647925  25.1206699 100.6479888
  73.3241264  22.3197167  95.6879374  74.1104354  21.9016591  95.3369791
  73.5879969  23.2243260  95.8561023  78.7249691  22.2572401  96.5912353
  79.4574863  21.6871618  96.8250182  77.9689047  21.8694001  97.0318858
  67.9994270  25.2189495  90.0829006  67.8830528  24.5434398  90.7510090
  68.1096530  24.7321869  89.2661159  70.3425811  24.6799642  93.7875695
  69.9784018  24.1530263  94.4988617  71.1992927  24.2898111  93.6142181
  76.2475112  15.9693975 101.0506961  75.9158437  16.8389386 100.8268176
  75.6520725  15.6530259 101.7300992  69.9831298  19.7089542  88.7837044
  70.1505701  20.5769778  89.1507515  69.7928467  19.8716824  87.8598333
  72.7406631  28.1706521 100.4502874  72.4407354  29.0731560 100.3418681
  72.3957691  27.9038704 101.3024027  66.1919113  24.6220318  96.4839578
  65.2669609  24.4896532  96.6917270  66.4403526  25.4014537  96.9809521
  76.1403775  20.6889061  98.1300311  75.2320652  20.6204469  97.8359072
  76.0891371  21.1661006  98.9582137  69.9620519  22.1647199  89.7683710
  69.8420144  22.6104250  90.6069191  69.2673107  22.5132517  89.2097249
  63.5527924  24.2653591  97.3183367  63.6820305  24.5188070  98.2322779
  62.8725375  24.8581299  96.9988023  70.2144641  22.1078707 106.0735209
  69.4377975  22.6672627 106.0638073  70.8535204  22.5935490 106.5950079
  78.0065422  18.8905499  99.9078185  77.3639802  19.1838033  99.2617980
  77.5020350  18.7758420 100.7131382  75.6605585  22.6368673  90.5964044
  76.5723441  22.8696059  90.4211742  75.1515232  23.2205717  90.0339123
  68.4691013  24.9164160 105.6353176  69.2105698  25.4549204 105.3587999
  67.7627999  25.5430449 105.7924727  73.9446353  27.0593300 104.2325337
  74.3529709  26.6175711 103.4879969  73.2223614  26.4845928 104.4859530
  70.2977423  21.9965907 101.6058894  71.1438618  22.4205321 101.7493543
  70.2376061  21.3399531 102.2997457  74.2675167  27.6194491  97.9877626
  73.6384030  27.7840205  97.2853694  73.8800830  28.0336101  98.7588590
  78.1464399  28.5548929  95.3421990  77.4615438  28.9347830  94.7919023
  78.2308249  29.1644256  96.0753937  73.4476868  19.6570276 103.2640068
  73.2037800  20.4112336 102.7274343  73.7236799  20.0355623 104.0987315
  75.4015331  26.2008888 101.9417333  75.6132226  26.8440648 101.2651714
  75.3545079  25.3671204 101.4739263  73.0041560  18.8126709  98.8453905
  72.1426039  19.1107962  99.1370643  73.0303995  19.0297107  97.9134938
  69.8203129  27.3568899  95.2527711  70.2841475  27.6356602  94.4632334
  69.5559927  26.4552344  95.0700802  66.7127210  26.9040381  98.1907474
  67.2828567  27.3327649  97.5524959  67.3035322  26.6222965  98.8891660
  68.7572015  23.4792051  92.0617276  69.4596059  23.9313095  92.5291203
  68.4252644  22.8375870  92.6897169  67.2052377  22.0703808 106.4368486
  66.5751038  22.7520089 106.6703882  67.0988465  21.9586890 105.4921624
  62.4997349  21.7375604  97.3634410  61.7096403  21.9933133  96.8874520
  62.9908597  22.5523942  97.4686450  76.5161159  29.0780843 100.1139691
  77.3378603  28.6761031  99.8322372  76.5123562  28.9749077 101.0655806
  64.4512095  22.1020183  94.3217886  63.6543258  22.2138878  94.8401382
  64.2237687  22.4406836  93.4558777  70.2817762  28.6264887 102.2700401
  70.3462195  29.0885294 103.1058573  69.5728686  27.9962252 102.3982711
  60.7835052  21.9906095  99.7949401  61.0343091  22.8753105 100.0606976
  61.3194601  21.8110696  99.0224492  84.6067152  25.4219592  96.4624662
  83.8530860  24.8526990  96.3068666  84.7414693  25.3882256  97.4095297
  66.4833120  16.3724574 108.7993737  66.0900065  15.8190773 109.4741381
  67.2999260  16.6835152 109.1900254  63.4495177  27.8108432  92.7107306
  63.9619698  28.6051682  92.8612871  64.1017890  27.1134723  92.6440908
  69.4001081  17.7882453 106.3913993  70.1410794  18.3889606 106.3118456
  69.6319003  17.0460091 105.8332036  64.5442419  22.9738820 104.6692223
  64.4295934  22.0724078 104.9699322  63.6886936  23.2202517 104.3177039
  71.6234256  30.9156561 106.2679723  71.1798111  30.1292939 105.9500628
  72.2851470  31.1035711 105.6023614  66.3821378  32.4452362 100.7940402
  66.9328803  32.3169426 100.0217396  65.5432854  32.7447251 100.4435295
  73.7215494  31.1959361 104.2961125  73.7033970  32.0168242 103.8041394
  74.6435415  31.0713436 104.5211266  70.1788549  28.7103490 105.1384633
  70.7116885  27.9491778 104.9083941  69.6502630  28.4177142 105.8808788
  73.3458244  13.8163556 100.6678275  73.0022513  14.7065198 100.5917385
  73.7137206  13.6265214  99.8047860  61.4144094  26.1397086  93.4866877
  62.2519316  26.5494095  93.2700585  61.5922362  25.1996529  93.4567071
  70.8955637  18.6521868  94.2335948  70.0397234  18.2628718  94.0541587
  71.3082589  18.7313829  93.3735734  72.4254784  16.1868211  98.6327508
  71.9219580  16.1498346  97.8195313  72.7185391  17.0960954  98.6924165
  68.6697670  16.2706941  97.6393690  69.5350667  16.0749750  97.2799579
  68.7375179  16.0417293  98.5663047  78.2842800  26.5604522  91.1103883
  77.5072243  26.2215681  90.6659046  78.9634281  26.5657145  90.4358849
  73.0994830  21.6799259  91.0010491  72.7944965  21.9945408  91.8520634
  74.0525272  21.7580679  91.0437824  76.5234107  26.0338503  97.7670491
  75.8657782  26.7237764  97.8550620  77.3274507  26.4234935  98.1104478
  66.2759989  18.5009149  95.0110057  66.8503741  18.2784330  94.2783250
  66.8630971  18.5697843  95.7638658  75.3339566  24.3882876  95.8174433
  75.8471448  25.0212868  96.3196143  75.9840790  23.7884071  95.4517793
  66.6029576  20.5313610  89.0305942  65.7666888  20.8688296  89.3515217
  66.4634346  20.3962590  88.0933079  68.5782657  15.3750398  93.7385126
  67.9247069  15.0599415  93.1141741  68.5363131  14.7526138  94.4644949
  71.8120397  21.8632331  98.0632774  70.8942958  22.0847278  97.9054462
  72.2280541  21.9378642  97.2044481  72.5955445  23.2623747  93.1935454
  73.3427264  23.7745144  92.8842576  72.8647034  22.9407800  94.0539848
  76.1001362  29.3688877  93.9453576  75.6463689  28.5279787  94.0018766
  75.4695329  30.0050276  94.2828356  75.0434282  20.2980863  95.1754243
  74.3057039  19.7858249  95.5064486  75.2961055  19.8581245  94.3637520
  74.5434302  31.2065374  94.8803394  74.8357276  31.7670431  94.1615760
  75.0532922  31.4993935  95.6356553  75.1445909  13.0757115  95.7696013
  75.4504786  12.2154479  95.4821928  75.8698514  13.6674735  95.5695006
  61.4370265  23.4787802  94.1577610  61.2394665  22.8857162  93.4328677
  60.8816929  23.1740012  94.8753549  69.4166989  23.3710908  96.2772204
  69.4715599  22.4184745  96.2014680  68.6058191  23.5270347  96.7613502
  67.3559349  21.9887968  94.0362582  66.5427214  22.2882139  94.4427775
  67.8518343  21.5943657  94.7537065  69.5067927  31.9845725  95.9696847
  69.4644106  32.2106571  95.0405379  70.4230626  31.7509100  96.1182648
  72.9533561  22.4529792 102.8677476  73.3082948  22.6801266 103.7271942
  73.6005692  22.7848169 102.2454732  78.6831298  25.5748228  93.5726805
  78.5449196  25.7649824  92.6447995  78.3267516  26.3367611  94.0294857
  66.8473424  19.5606324  99.6523817  67.4872803  19.4195083  98.9546781
  66.0150954  19.2740837  99.2762419  78.7100677  27.6424755  98.5838077
  79.1437184  27.5500044  99.4321131  79.4232258  27.6182256  97.9458093
  67.6233728  28.8608754  95.7658810  68.4174326  28.3659074  95.5641385
  66.9125420  28.3326617  95.4026515  72.4428572  31.2426849 100.1171178
  72.4965594  31.8117786 100.8848893  71.5743353  31.4128734  99.7525215
  63.9316491  23.0051836  91.8418563  63.0014079  22.9436291  92.0588525
  64.0273963  22.4827788  91.0455204  63.8502040  19.5306648  94.4296804
  64.1108857  20.4451982  94.3205965  64.6719212  19.0631091  94.5793417
  65.3226965  20.9444406 101.5995629  65.9950019  20.7361768 100.9508278
  64.4956752  20.7466492 101.1600861  79.5716227  27.6848456 101.1170962
  79.7652117  28.5894267 101.3630237  79.4716845  27.2255875 101.9509547
  71.2252537  17.5706347 103.6161290  70.5780452  18.2696296 103.5225766
  71.9953553  18.0042491 103.9837538  74.6331335  27.8355199 106.6911843
  74.4816842  27.6065750 105.7741927  74.6236015  28.7925800 106.7043188
  71.4016672  25.4087111 101.6758109  72.3308732  25.5598271 101.5027077
  70.9807702  25.4971132 100.8206756  70.2005004  29.4337776  99.4456647
  70.0616089  29.0656560 100.3182585  69.4119600  29.9485415  99.2740605
  71.7510219  28.8119379  96.8345485  71.4160051  28.7720149  97.7303135
  71.2514164  28.1464095  96.3615895  65.7254463  24.2187009 102.3598066
  65.5874261  23.4867247 102.9609605  66.6359386  24.1295909 102.0782254
  68.3536763  23.9306968 101.8481746  69.0636382  23.2900160 101.8068364
  68.3106072  24.1819863 102.7707926  76.3423542  30.8674321 104.7688325
  76.2836088  30.1833541 104.1018908  76.7443060  31.6093311 104.3168951
  67.0665697  20.9172186 103.6677385  66.5303054  20.4662924 104.3198981
  66.4782406  21.0518095 102.9247849  65.3614241  37.6836235  97.5622044
  65.6010839  38.3154759  98.2401062  64.5183437  37.3324275  97.8487403
  66.4767956  20.3760837  86.2303849  65.5997423  20.2549638  85.8666095
  66.9525709  19.5846916  85.9782737  76.3440949  28.8313905 103.0002304
  75.4567728  28.4939827 103.1228703  76.9139500  28.0996936 103.2371070
  57.9970096  25.1637997  96.3245356  58.6841136  24.8499727  95.7366371
  57.8418225  26.0679362  96.0512607  62.8004819  20.0528194 100.7530380
  62.7163007  19.4453863 100.0180789  61.9787525  20.5437212 100.7539876
  69.8742103  33.4915358  99.9663548  69.8012274  34.2970329 100.4782852
  69.4319496  33.6907323  99.1411569  72.9728532  18.5381757  96.1200575
  73.4697232  17.7851719  95.8001645  72.2015514  18.5746074  95.5543784
  80.8258290  24.2422123  97.7618866  80.8148166  25.1246838  97.3912799
  79.9575669  23.8893673  97.5673403  72.3340786  33.3902192 102.1221706
  73.0468758  34.0249656 102.0497608  71.8430815  33.4866058 101.3061708
  69.5563501  20.6799140  95.8472259  69.1861289  20.1270180  96.5353165
  70.0522594  20.0757274  95.2947259  77.4430864  23.1370764  94.2289032
  77.9091317  23.9698755  94.1549335  77.8938365  22.6715745  94.9334291
  67.3852700  31.1396635 102.9427277  68.0862159  31.7733118 103.0956671
  66.9147815  31.4811367 102.1822916  75.4147527  15.5051351  98.2679933
  74.5010607  15.7355577  98.4362140  75.8440629  15.5889795  99.1193966
  75.1853986  23.6941243 100.7679827  74.5325436  23.9417150 100.1132280
  75.5634366  22.8805381 100.4342305  71.2341559  24.4361054 107.2545865
  70.5582196  24.3355183 107.9248240  72.0569193  24.2800267 107.7181862
  62.9820418  30.6732990  99.8758380  63.5673855  29.9276678 100.0086284
  62.7845256  30.9836947 100.7595044  57.5738073  23.2438590  98.5962823
  57.6122172  22.7102181  99.3899941  57.0678365  22.7173796  97.9773800
  69.9764342  35.7427981 101.4903481  70.5282650  35.9059603 102.2552566
  70.3170535  36.3332419 100.8183505  64.9528835  18.0903131 102.0925365
  65.0170161  18.9517962 101.6802763  64.8895955  17.4777132 101.3597724
  64.4281107  20.1626263 105.7398400  65.0553146  19.7803341 106.3535924
  63.5709026  19.9440465 106.1054092  74.8275216  30.5689239 107.3452135
  75.3715120  31.1819197 106.8507090  74.2462061  31.1268817 107.8619148
  61.2046650  21.9702692  91.6716754  61.5000091  21.0613371  91.6183808
  60.3034686  21.9490432  91.3497757  73.1132729  33.6909957  98.4767163
  72.9883868  32.8899696  97.9678108  73.7711820  34.1856150  97.9881133
  64.7340897  20.0458689  97.6544303  64.0127483  20.6594657  97.5151776
  65.5234153  20.5816454  97.5760949  75.1767637  31.4918977 100.1046713
  74.2297973  31.3724328 100.0325040  75.5250410  30.6041475 100.1872974
  67.5367211  17.3813116 103.9284955  68.0601612  17.6275412 104.6911264
  67.3179544  18.2133150 103.5088092  62.9334492  19.6516790  91.7956080
  62.6047198  18.7714169  91.6131185  63.2873862  19.5964459  92.6832469
  72.1814071  31.2871693  96.3051065  72.0339033  30.3588400  96.4858635
  73.0067564  31.3091784  95.8208140  66.0476315  19.9389760  92.1631557
  66.3872387  20.4675681  91.4410166  66.4948435  20.2770166  92.9390124
  75.7848192  32.1100252  97.3915938  76.7094740  31.9043113  97.2540389
  75.6163496  31.8616653  98.3005279  68.7419756  18.3226811 101.6134625
  68.4016576  17.5234624 102.0155305  68.0358762  18.6228522 101.0411458
  69.3936228  15.4076123 100.0661948  70.2162297  14.9336601  99.9440839
  69.6374291  16.1866607 100.5660635  68.0344462  18.4364382  90.3624850
  68.7552825  18.8145634  89.8588567  67.4109766  19.1553258  90.4659828
  72.1775585  19.1409531  91.2983182  72.3939199  20.0234168  90.9972010
  71.6969652  18.7495744  90.5688824  66.9174806  22.0995244  97.8753927
  66.7719387  22.4135547  98.7678208  66.4400010  22.7180144  97.3224826
  68.7771189  19.0897792  97.9234816  68.7632758  18.1938885  97.5867114
  69.4943617  19.0968455  98.5573102  70.6297320  19.5235132  99.9687944
  70.3715098  20.4452203  99.9672274  70.0982360  19.1265566 100.6588408
  61.3920468  24.6400588 100.8141588  60.8473937  25.4160396 100.9461862
  62.2699818  24.9871393 100.6560709  68.1808085  17.9712172  93.1922387
  68.3023996  17.0428818  93.3913274  67.8910127  17.9850858  92.2800702
  71.0499275  15.6567082  96.3289106  71.0720972  15.7206416  95.3741086
  71.4667334  14.8171591  96.5229613  81.4282900  25.3922342  94.3668329
  81.8714046  24.6429667  93.9687452  80.5509410  25.3832478  93.9842061
  62.1786490  23.7670484 103.7071745  61.4368226  23.9153120 104.2936375
  61.8579235  24.0278750 102.8438494  78.4610104  29.3952389  91.3762258
  78.9861428  29.7339662  90.6511578  78.3732457  28.4599404  91.1925393
  70.1230153  33.3086463 103.5052135  70.4317279  33.0635609 104.3774835
  70.9205635  33.5133101 103.0171005  70.1450765  35.4624372  95.7357511
  69.7055755  34.9700751  96.4290368  70.8958882  34.9197340  95.4949587
  62.6243104  31.6535913  95.7382140  63.4501124  31.3539685  95.3580783
  62.2737156  30.8843536  96.1871928  67.5924637  31.0062381  97.8079813
  66.9704646  30.3433086  97.5082041  68.2629504  31.0323513  97.1253461
  60.8251709  29.5722240  96.6971073  59.9883617  29.1444414  96.5155074
  60.7975354  29.7654683  97.6341864  67.6649165  19.4844169 107.4012319
  67.7137320  20.3606292 107.0190089  68.2071679  18.9421562 106.8283962
  78.1504010  30.0285293 106.6813456  77.3599554  30.0109431 106.1417956
  77.9137365  30.5673586 107.4362493  78.2701885  26.8777759 103.9946185
  78.3199890  26.7127766 104.9361708  78.1615809  26.0105018 103.6044066
  75.5605648  22.8608687 105.3105492  76.4615511  22.7215152 105.0189489
  75.6353622  23.0263142 106.2503669  69.8948453  20.2375542 104.1558678
  69.0251762  20.5309108 103.8841266  70.1307933  20.8215987 104.8765941
  79.7720082  29.2974701 104.2388206  79.4804891  29.6604681 105.0751667
  79.1592213  28.5841709 104.0601538  80.9715765  26.8627580  96.7590777
  81.8062656  27.3017384  96.9228337  81.1074893  26.3866234  95.9399022
  78.0207270  24.4207315 102.7068264  78.4961392  24.6134961 101.8987116
  77.0972836  24.4766501 102.4611648  64.9090777  25.5831482  92.2899343
  64.6636819  24.6793812  92.4879553  65.0786692  25.5848633  91.3478821
  72.5987487  16.4555159 101.6724098  73.1169431  17.1916186 101.3470587
  72.2442620  16.7619152 102.5070857  64.1786425  21.3159840  89.7885504
  63.4855670  21.3904195  89.1325540  63.9338176  20.5520184  90.3107021
  72.8500081  12.8755441  97.1924995  73.1301835  12.2078630  97.8185421
  73.6350688  13.0684537  96.6799659  76.7208939  21.2973075 100.9396570
  77.6726362  21.3971173 100.9608794  76.5512390  20.5051344 101.4494654
  74.7423319  18.3828658 101.1255971  74.1473251  18.6633671 100.4302459
  74.4573016  18.8722559 101.8972712  79.1997017  24.5179195 100.0538870
  79.1673337  23.5795196 100.2398553  79.8097641  24.5963232  99.3204694
  79.3491506  21.3090238 100.0997153  78.8330554  20.5248695  99.9127082
  80.2331454  20.9808955 100.2643672  77.0102233  15.0531254  96.0592965
  76.8127054  14.7446342  96.9436297  77.6201938  15.7792893  96.1890895
  85.0173567  25.5795202  99.1944906  85.7476956  25.3180490  99.7552610
  84.4080513  24.8423924  99.2346974  83.0988864  23.7203064  99.7919358
  82.3722028  23.5859029  99.1835849  82.6836151  24.0279893 100.5976076
  70.9219041  27.4392994 107.5566731  71.8422050  27.6171593 107.7506777
  70.8868624  26.4949039 107.4046430  60.1401206  22.6331588  96.4820005
  59.8203990  21.7796896  96.1894379  59.5934634  22.8480166  97.2377973
  63.9181113  25.3494029 100.1989512  64.1367123  26.2811136 100.2177546
  64.3306887  24.9902003 100.9844316  70.8385331  15.8562114  92.1865200
  70.0286059  15.5109199  92.5620446  71.5269748  15.5469658  92.7752812
  72.7675879  14.9340161  93.8089497  73.3206918  15.3535614  94.4679520
  73.0045966  14.0075909  93.8512453  68.7908978  20.9227234 109.5892261
  68.6905705  21.8721591 109.5204352  68.5730521  20.5945473 108.7168331
  67.9922050  18.1712160  86.1732938  68.8541214  18.4967058  86.4328755
  68.1772394  17.3843655  85.6606004  60.0089466  26.2534499  98.4513127
  59.3152937  25.8388452  97.9383081  60.7562457  26.2955036  97.8546546
  76.1454686  17.0440686  93.3168161  75.5653355  17.7025490  92.9346213
  75.8790619  16.2218031  92.9055579  74.5958253  16.4445744  95.5189481
  75.0958031  16.5562278  94.7103800  75.2393861  16.1406797  96.1590290
  68.6540249  24.3524373 108.4057322  68.1707330  25.1524733 108.6121211
  68.7401188  24.3632318 107.4524766  61.9226208  26.1852753  96.3279142
  61.8996896  26.2840440  95.3761025  62.2326845  27.0317904  96.6496308
  64.5813586  28.2428908 100.4425756  65.5356840  28.2112850 100.3755688
  64.3826110  27.7819532 101.2575982  65.1712968  26.8130024 103.0096554
  65.9905857  27.3074103 103.0331391  65.4449776  25.8961992 102.9814121
  74.9279564  19.2040776  92.3724509  74.0405419  19.4890427  92.1544704
  75.3433553  19.0434540  91.5251786  78.2794100  19.2287297  96.0878849
  79.0554491  19.7183750  96.3603465  77.5542235  19.6545352  96.5450718
  80.7166659  19.9414917  97.1452789  81.3111150  19.7010653  96.4346097
  80.7893243  19.2222047  97.7726325  62.9363815  33.7848527  97.4595954
  62.8018283  33.0248928  96.8933952  62.5195877  34.5089427  96.9924743
  78.7125394  20.5085044  93.4124919  78.4562328  20.1081680  94.2433127
  78.0878262  21.2228838  93.2875058  83.0237732  23.2481117  95.9196210
  82.4637290  23.3174307  96.6927772  82.4181235  23.0722102  95.1995707
  66.0932941  34.6817845  97.6714397  65.9765325  35.6263277  97.5693087
  65.2725387  34.3791406  98.0600196  60.4247882  21.1468158 103.7088751
  61.0706746  20.6367112 104.1975976  60.2165034  21.8836840 104.2832176
  72.9501275  28.2149005 109.2080891  73.8192434  28.3889658 108.8467526
  72.4708026  29.0343422 109.0856621  68.9451493  15.4108203  89.4612647
  68.9330163  16.3550042  89.6180918  69.8374915  15.2278348  89.1672108
  67.1187455  35.3346106 100.8870325  68.0214702  35.3669717 101.2036820
  66.8924825  34.4046557 100.9016661  68.8741057  34.0877093  97.5480404
  67.9236688  34.0878955  97.4344776  69.1773543  33.3409828  97.0316438
  72.7603612  12.0050979  93.7158584  71.9936008  11.4509466  93.8615266
  73.1714317  12.0772848  94.5772735  64.7645373  18.2935775 107.8063765
  65.6276835  17.9372580 108.0167090  64.1910784  17.9549670 108.4939169
  84.6093750  39.9237631  98.6126166  85.2472160  39.8044379  97.9089506
  84.4914593  40.8718475  98.6714118  81.4183457  39.8765059  98.5487691
  81.0801968  39.7606124  97.6608226  82.2873225  39.4756225  98.5288697
  77.2770272  41.7300536  94.5384582  76.7135137  41.6390473  93.7700869
  77.1622667  40.9100440  95.0187074  81.9003240  41.0299911 104.5073896
  81.8891880  40.6352709 103.6354400  82.0623879  40.2965984 105.1007668
  74.8234704  43.2251727  97.3768802  75.6155996  42.8842552  96.9615101
  75.0631354  43.3346702  98.2970956  82.8569831  45.3971504  89.8499047
  82.2057811  45.9825584  89.4633060  83.6514194  45.9277698  89.9094084
  78.6210501  43.8137023 103.4553080  78.3300367  44.7182654 103.3399747
  79.2567485  43.8553551 104.1697150  79.5466708  41.1913871 100.0454440
  80.1430280  40.9669894  99.3311403  79.6041679  40.4498617 100.6479888
  84.1635019  37.6489085  95.6879374  84.9498108  37.2308508  95.3369791
  84.4273723  38.5535177  95.8561023  84.3345096  43.0861935  90.3868031
  83.6990929  43.1596562  91.0988936  84.0042503  43.6755534  89.7087110
  89.5643446  37.5864318  96.5912353  90.2968618  37.0163535  96.8250182
  88.8082802  37.1985919  97.0318858  81.1819566  40.0091560  93.7875695
  80.8177773  39.4822181  94.4988617  82.0386682  39.6190029  93.6142181
  87.0868866  31.2985892 101.0506961  86.7552191  32.1681303 100.8268176
  86.4914480  30.9822176 101.7300992  83.5800386  43.4998438 100.4502874
  83.2801109  44.4023477 100.3418681  83.2351445  43.2330622 101.3024027
  77.0312867  39.9512235  96.4839578  76.1063364  39.8188449  96.6917270
  77.2797281  40.7306455  96.9809521  86.9797530  36.0180979  98.1300311
  86.0714407  35.9496387  97.8359072  86.9285125  36.4952924  98.9582137
  80.8014274  37.4939117  89.7683710  80.6813899  37.9396168  90.6069191
  80.1066862  37.8424435  89.2097249  74.3921678  39.5945509  97.3183367
  74.5214060  39.8479988  98.2322779  73.7119130  40.1873217  96.9988023
  78.5621166  50.2642759  93.4173842  78.4845195  51.2150584  93.4962322
  77.9582809  49.9188631  94.0748768  81.0538395  37.4370624 106.0735209
  80.2771729  37.9964544 106.0638073  81.6928958  37.9227407 106.5950079
  88.8459176  34.2197417  99.9078185  88.2033556  34.5129950  99.2617980
  88.3414105  34.1050337 100.7131382  86.4999340  37.9660590  90.5964044
  87.4117196  38.1987977  90.4211742  85.9908987  38.5497634  90.0339123
  79.3084768  40.2456078 105.6353176  80.0499452  40.7841122 105.3587999
  78.6021753  40.8722366 105.7924727  84.7840107  42.3885218 104.2325337
  85.1923463  41.9467629 103.4879969  84.0617369  41.8137846 104.4859530
  81.1371177  37.3257825 101.6058894  81.9832373  37.7497238 101.7493543
  81.0769815  36.6691449 102.2997457  85.1068922  42.9486409  97.9877626
  84.4777784  43.1132123  97.2853694  84.7194584  43.3628018  98.7588590
  88.9858154  43.8840847  95.3421990  88.3009192  44.2639748  94.7919023
  89.0702003  44.4936173  96.0753937  84.2870623  34.9862193 103.2640068
  84.0431555  35.7404254 102.7274343  84.5630553  35.3647541 104.0987315
  86.2409085  41.5300806 101.9417333  86.4525981  42.1732565 101.2651714
  86.1938834  40.6963122 101.4739263  83.8435314  34.1418626  98.8453905
  82.9819793  34.4399880  99.1370643  83.8697749  34.3589025  97.9134938
  80.6596884  42.6860817  95.2527711  81.1235229  42.9648520  94.4632334
  80.3953682  41.7844261  95.0700802  77.5520965  42.2332298  98.1907474
  78.1222322  42.6619567  97.5524959  78.1429077  41.9514883  98.8891660
  79.5965770  38.8083969  92.0617276  80.2989813  39.2605013  92.5291203
  79.2646398  38.1667788  92.6897169  78.0446131  37.3995726 106.4368486
  77.4144792  38.0812007 106.6703882  77.9382219  37.2878807 105.4921624
  73.3391104  37.0667522  97.3634410  72.5490158  37.3225050  96.8874520
  73.8302351  37.8815860  97.4686450  87.3554913  44.4072761 100.1139691
  88.1772357  44.0052948  99.8322372  87.3517316  44.3040995 101.0655806
  81.1211517  43.9556804 102.2700401  81.1855949  44.4177212 103.1058573
  80.4122441  43.3254169 102.3982711  71.6228807  37.3198012  99.7949401
  71.8736845  38.2045022 100.0606976  72.1588355  37.1402614  99.0224492
  95.4460906  40.7511509  96.4624662  94.6924615  40.1818908  96.3068666
  95.5808448  40.7174174  97.4095297  80.8359535  45.6224912  92.1379381
  80.7005209  46.4676448  92.5664229  81.3769347  45.8244189  91.3745315
  77.3226874  31.7016492 108.7993737  76.9293820  31.1482690 109.4741381
  78.1393014  32.0127070 109.1900254  80.2394835  33.1174371 106.3913993
  80.9804549  33.7181524 106.3118456  80.4712758  32.3752009 105.8332036
  75.3836173  38.3030738 104.6692223  75.2689688  37.4015995 104.9699322
  74.5280691  38.5494435 104.3177039  82.4628011  46.2448478 106.2679723
  82.0191865  45.4584857 105.9500628  83.1245224  46.4327629 105.6023614
  77.2215132  47.7744280 100.7940402  77.7722557  47.6461343 100.0217396
  76.3826608  48.0739169 100.4435295  84.5609249  46.5251278 104.2961125
  84.5427724  47.3460159 103.8041394  85.4829169  46.4005353 104.5211266
  81.0182303  44.0395408 105.1384633  81.5510640  43.2783696 104.9083941
  80.4896384  43.7469060 105.8808788  84.1851998  29.1455474 100.6678275
  83.8416267  30.0357115 100.5917385  84.5530961  28.9557131  99.8047860
  72.2537849  41.4689004  93.4866877  73.0913071  41.8786012  93.2700585
  72.4316116  40.5288446  93.4567071  84.1502281  39.1364085  89.1750710
  83.6348904  39.9068689  89.4139097  83.8779589  38.4629221  89.7983771
  81.7349392  33.9813786  94.2335948  80.8790988  33.5920636  94.0541587
  82.1476344  34.0605746  93.3735734  83.2648538  31.5160129  98.6327508
  82.7613334  31.4790264  97.8195313  83.5579145  32.4252872  98.6924165
  79.5091424  31.5998859  97.6393690  80.3744421  31.4041667  97.2799579
  79.5768933  31.3709210  98.5663047  89.1236555  41.8896439  91.1103883
  88.3465998  41.5507599  90.6659046  89.8028036  41.8949063  90.4358849
  83.9388584  37.0091177  91.0010491  83.6338720  37.3237326  91.8520634
  84.8919026  37.0872597  91.0437824  82.3835016  43.1681400  92.6503445
  81.8556377  42.4334160  92.3376683  81.8822519  43.9456077  92.4043413
  87.3627862  41.3630421  97.7670491  86.7051536  42.0529682  97.8550620
  88.1668261  41.7526853  98.1104478  77.1153743  33.8301066  95.0110057
  77.6897495  33.6076248  94.2783250  77.7024726  33.8989761  95.7638658
  86.1733321  39.7174793  95.8174433  86.6865202  40.3504785  96.3196143
  86.8234545  39.1175989  95.4517793  79.4176411  30.7042315  93.7385126
  78.7640824  30.3891333  93.1141741  79.3756885  30.0818056  94.4644949
  83.4355695  49.6959118  88.5735104  82.7617394  49.9990814  89.1820062
  83.8221517  50.4988198  88.2240561  82.6514152  37.1924249  98.0632774
  81.7336713  37.4139196  97.9054462  83.0674295  37.2670559  97.2044481
  83.4349199  38.5915665  93.1935454  84.1821018  39.1037062  92.8842576
  83.7040789  38.2699717  94.0539848  81.7075849  41.0874205  90.1762408
  80.7987069  40.8033238  90.2734878  81.7370933  41.5073284  89.3165715
  86.9395117  44.6980795  93.9453576  86.4857444  43.8571705  94.0018766
  86.3089084  45.3342193  94.2828356  85.8828036  35.6272781  95.1754243
  85.1450793  35.1150167  95.5064486  86.1354810  35.1873162  94.3637520
  85.3828056  46.5357292  94.8803394  85.6751030  47.0962349  94.1615760
  85.8926677  46.8285853  95.6356553  85.9839664  28.4049033  95.7696013
  86.2898541  27.5446396  95.4821928  86.7092269  28.9966653  95.5695006
  80.2560743  38.7002826  96.2772204  80.3109353  37.7476662  96.2014680
  79.4451946  38.8562265  96.7613502  78.1953103  37.3179886  94.0362582
  77.3820969  37.6174056  94.4427775  78.6912098  36.9235574  94.7537065
  80.3461681  47.3137643  95.9696847  80.3037860  47.5398489  95.0405379
  81.2624380  47.0801017  96.1182648  83.7927315  37.7821710 102.8677476
  84.1476703  38.0093183 103.7271942  84.4399446  38.1140087 102.2454732
  89.5225052  40.9040146  93.5726805  89.3842951  41.0941742  92.6447995
  89.1661271  41.6659529  94.0294857  77.6867178  34.8898241  99.6523817
  78.3266558  34.7487000  98.9546781  76.8544709  34.6032755  99.2762419
  89.5494432  42.9716673  98.5838077  89.9830938  42.8791962  99.4321131
  90.2626012  42.9474173  97.9458093  78.4627482  44.1900672  95.7658810
  79.2568081  43.6950992  95.5641385  77.7519174  43.6618535  95.4026515
  83.2822327  46.5718767 100.1171178  83.3359349  47.1409703 100.8848893
  82.4137108  46.7420652  99.7525215  76.1620720  36.2736323 101.5995629
  76.8343773  36.0653685 100.9508278  75.3350506  36.0758409 101.1600861
  90.4109981  43.0140374 101.1170962  90.6045871  43.9186184 101.3630237
  90.3110599  42.5547793 101.9509547  82.0646292  32.8998264 103.6161290
  81.4174207  33.5988214 103.5225766  82.8347307  33.3334408 103.9837538
  85.4725090  43.1647116 106.6911843  85.3210596  42.9357668 105.7741927
  85.4629769  44.1217718 106.7043188  82.2410426  40.7379029 101.6758109
  83.1702486  40.8890189 101.5027077  81.8201456  40.8263050 100.8206756
  81.0398758  44.7629694  99.4456647  80.9009844  44.3948478 100.3182585
  80.2513354  45.2777333  99.2740605  81.6346910  49.8638790  90.7882184
  81.8098666  49.3926833  91.6027806  80.9479698  50.4904556  91.0163444
  82.5903973  44.1411296  96.8345485  82.2553806  44.1012066  97.7303135
  82.0907919  43.4756012  96.3615895  76.5648217  39.5478926 102.3598066
  76.4268015  38.8159165 102.9609605  77.4753141  39.4587826 102.0782254
  85.5263165  41.4867331  87.1082544  84.9092336  40.7614159  87.0115597
  85.0579653  42.2476691  86.7649619  79.1930518  39.2598886 101.8481746
  79.9030136  38.6192078 101.8068364  79.1499826  39.5111780 102.7707926
  87.1817297  46.1966239 104.7688325  87.1229843  45.5125459 104.1018908
  87.5836815  46.9385229 104.3168951  77.9059452  36.2464104 103.6677385
  77.3696809  35.7954842 104.3198981  77.3176160  36.3810012 102.9247849
  76.2007995  53.0128153  97.5622044  76.4404594  53.6446677  98.2401062
  75.3577192  52.6616193  97.8487403  87.1834704  44.1605823 103.0002304
  86.2961483  43.8231745 103.1228703  87.7533255  43.4288854 103.2371070
  68.8363851  40.4929915  96.3245356  69.5234891  40.1791645  95.7366371
  68.6811980  41.3971279  96.0512607  73.6398573  35.3820111 100.7530380
  73.5556762  34.7745781 100.0180789  72.8181279  35.8729130 100.7539876
  80.7135857  48.8207275  99.9663548  80.6406029  49.6262247 100.4782852
  80.2713250  49.0199241  99.1411569  80.5025637  48.0579045  93.4766369
  79.7193159  48.6000725  93.5704594  81.2018382  48.5753025  93.8760610
  83.8122287  33.8673675  96.1200575  84.3090986  33.1143637  95.8001645
  83.0409268  33.9037991  95.5543784  91.6652044  39.5714040  97.7618866
  91.6541921  40.4538756  97.3912799  90.7969424  39.2185591  97.5673403
  83.1734541  48.7194109 102.1221706  83.8862513  49.3541574 102.0497608
  82.6824569  48.8157975 101.3061708  84.8952068  42.6245362  93.6938998
  83.9608346  42.7446824  93.5243702  85.0728736  41.7217829  93.4299008
  80.3957256  36.0091058  95.8472259  80.0255043  35.4562098  96.5353165
  80.8916348  35.4049191  95.2947259  88.2824619  38.4662681  94.2289032
  88.7485071  39.2990673  94.1549335  88.7332119  38.0007663  94.9334291
  78.2246454  46.4688553 102.9427277  78.9255914  47.1025036 103.0956671
  77.7541569  46.8103284 102.1822916  86.3500850  44.8106503  91.2275184
  86.6260694  44.6963097  92.1369058  85.4805349  44.4123987  91.1887357
  86.2541282  30.8343268  98.2679933  85.3404362  31.0647495  98.4362140
  86.6834383  30.9181712  99.1193966  86.0247740  39.0233160 100.7679827
  85.3719190  39.2709068 100.1132280  86.4028120  38.2097298 100.4342305
  82.9854914  49.0592853  94.8707998  83.1677309  48.2414509  95.3335750
  83.8087900  49.2760546  94.4332888  83.3197080  47.9861039  92.1323046
  83.8484846  47.4753493  91.5193208  83.5825299  47.6703569  92.9968579
  82.0735313  39.7652971 107.2545865  81.3975950  39.6647101 107.9248240
  82.8962947  39.6092185 107.7181862  73.8214172  46.0024908  99.8758380
  74.4067609  45.2568596 100.0086284  73.6239011  46.3128865 100.7595044
  68.4131827  38.5730508  98.5962823  68.4515927  38.0394099  99.3899941
  67.9072120  38.0465714  97.9773800  80.8158096  51.0719899 101.4903481
  81.3676404  51.2351520 102.2552566  81.1564290  51.6624337 100.8183505
  75.7922589  33.4195049 102.0925365  75.8563916  34.2809879 101.6802763
  75.7289710  32.8069050 101.3597724  75.2674862  35.4918181 105.7398400
  75.8946901  35.1095258 106.3535924  74.4102781  35.2732383 106.1054092
  85.6668970  45.8981156 107.3452135  86.2108874  46.5111115 106.8507090
  85.0855815  46.4560735 107.8619148  83.9526483  49.0201874  98.4767163
  83.8277623  48.2191614  97.9678108  84.6105575  49.5148068  97.9881133
  75.5734652  35.3750607  97.6544303  74.8521237  35.9886574  97.5151776
  76.3627907  35.9108372  97.5760949  86.0161392  46.8210894 100.1046713
  85.0691727  46.7016246 100.0325040  86.3644165  45.9333392 100.1872974
  78.3760965  32.7105033 103.9284955  78.8995367  32.9567330 104.6911264
  78.1573298  33.5425068 103.5088092  83.0207825  46.6163611  96.3051065
  82.8732788  45.6880318  96.4858635  83.8461319  46.6383701  95.8208140
  86.6241947  47.4392169  97.3915938  87.5488494  47.2335031  97.2540389
  86.4557250  47.1908570  98.3005279  79.5813510  33.6518728 101.6134625
  79.2410331  32.8526541 102.0155305  78.8752516  33.9520439 101.0411458
  80.2329982  30.7368041 100.0661948  81.0556051  30.2628519  99.9440839
  80.4768046  31.5158525 100.5660635  83.0169339  34.4701448  91.2983182
  83.2332954  35.3526086  90.9972010  82.5363407  34.0787662  90.5688824
  77.7568561  37.4287161  97.8753927  77.6113141  37.7427464  98.7678208
  77.2793764  38.0472062  97.3224826  79.6164944  34.4189709  97.9234816
  79.6026512  33.5230803  97.5867114  80.3337372  34.4260373  98.5573102
  81.4691074  34.8527050  99.9687944  81.2108852  35.7744120  99.9672274
  80.9376115  34.4557484 100.6588408  86.4137263  47.9577837  92.7478029
  86.5874141  47.3924259  91.9951882  86.9066154  48.7578732  92.5657519
  72.2314223  39.9692506 100.8141588  71.6867691  40.7452314 100.9461862
  73.1093573  40.3163310 100.6560709  81.8893030  30.9859000  96.3289106
  81.9114727  31.0498333  95.3741086  82.3061089  30.1463509  96.5229613
  92.2676654  40.7214260  94.3668329  92.7107800  39.9721585  93.9687452
  91.3903165  40.7124396  93.9842061  87.4012436  47.2744601  89.8474928
  88.0963340  47.8951294  90.0662242  87.7435586  46.4239952  90.1227305
  73.0180245  39.0962402 103.7071745  72.2761981  39.2445037 104.2936375
  72.6972989  39.3570668 102.8438494  89.3003859  44.7244307  91.3762258
  89.8255183  45.0631579  90.6511578  89.2126211  43.7891322  91.1925393
  80.9623907  48.6378380 103.5052135  81.2711034  48.3927527 104.3774835
  81.7599389  48.8425019 103.0171005  80.9844519  50.7916290  95.7357511
  80.5449510  50.2992669  96.4290368  81.7352636  50.2489258  95.4949587
  78.4318392  46.3354299  97.8079813  77.8098401  45.6725004  97.5082041
  79.1023259  46.3615431  97.1253461  78.5042919  34.8136087 107.4012319
  78.5531075  35.6898210 107.0190089  79.0465433  34.2713480 106.8283962
  88.9897765  45.3577210 106.6813456  88.1993309  45.3401349 106.1417956
  88.7531119  45.8965504 107.4362493  89.1095640  42.2069677 103.9946185
  89.1593645  42.0419684 104.9361708  89.0009563  41.3396936 103.6044066
  86.3999402  38.1900605 105.3105492  87.3009265  38.0507070 105.0189489
  86.4747377  38.3555060 106.2503669  80.7342208  35.5667459 104.1558678
  79.8645517  35.8601026 103.8841266  80.9701688  36.1507904 104.8765941
  90.6113837  44.6266618 104.2388206  90.3198645  44.9896599 105.0751667
  89.9985968  43.9133626 104.0601538  91.8109519  42.1919498  96.7590777
  92.6456410  42.6309302  96.9228337  91.9468648  41.7158151  95.9399022
  88.8601025  39.7499233 102.7068264  89.3355147  39.9426879 101.8987116
  87.9366590  39.8058419 102.4611648  83.4381241  31.7847076 101.6724098
  83.9563185  32.5208103 101.3470587  83.0836374  32.0911070 102.5070857
  83.6893836  28.2047359  97.1924995  83.9695589  27.5370548  97.8185421
  84.4744443  28.3976455  96.6799659  81.4927304  47.3806353  88.7550021
  80.9201271  47.9996540  88.3020493  82.0660098  47.9305715  89.2889943
  87.5602694  36.6264993 100.9396570  88.5120117  36.7263091 100.9608794
  87.3906144  35.8343261 101.4494654  85.5817073  33.7120576 101.1255971
  84.9867006  33.9925589 100.4302459  85.2966770  34.2014477 101.8972712
  84.7124564  47.6643503  89.8858603  85.6455237  47.5989065  90.0891479
  84.6247777  48.4999770  89.4273136  87.3412581  46.9809373  86.8462551
  87.2626212  46.6469237  87.7398309  88.1622247  47.4731141  86.8454023
  90.0390772  39.8471113 100.0538870  90.0067092  38.9087113 100.2398553
  90.6491395  39.9255149  99.3204694  90.1885260  36.6382156 100.0997153
  89.6724309  35.8540613  99.9127082  91.0725209  36.3100873 100.2643672
  87.8495987  30.3823172  96.0592965  87.6520808  30.0738260  96.9436297
  88.4595693  31.1084811  96.1890895  95.8567322  40.9087119  99.1944906
  96.5870710  40.6472408  99.7552610  95.2474267  40.1715841  99.2346974
  93.9382619  39.0494982  99.7919358  93.2115782  38.9150947  99.1835849
  93.5229906  39.3571811 100.5976076  81.7612795  42.7684912 107.5566731
  82.6815805  42.9463511 107.7506777  81.7262378  41.8240957 107.4046430
  70.9794960  37.9623505  96.4820005  70.6597744  37.1088814  96.1894379
  70.4328388  38.1772084  97.2377973  74.7574868  40.6785946 100.1989512
  74.9760877  41.6103054 100.2177546  75.1700641  40.3193921 100.9844316
  81.6779085  31.1854032  92.1865200  80.8679814  30.8401117  92.5620446
  82.3663502  30.8761575  92.7752812  83.6069634  30.2632078  93.8089497
  84.1600672  30.6827532  94.4679520  83.8439720  29.3367827  93.8512453
  79.6302733  36.2519152 109.5892261  79.5299460  37.2013509 109.5204352
  79.4124275  35.9237391 108.7168331  70.8483220  41.5826417  98.4513127
  70.1546692  41.1680370  97.9383081  71.5956211  41.6246953  97.8546546
  86.9848441  32.3732604  93.3168161  86.4047110  33.0317408  92.9346213
  86.7184374  31.5509948  92.9055579  85.4352007  31.7737661  95.5189481
  85.9351786  31.8854196  94.7103800  86.0787615  31.4698714  96.1590290
  79.4934003  39.6816291 108.4057322  79.0101085  40.4816651 108.6121211
  79.5794942  39.6924236 107.4524766  72.7619963  41.5144671  96.3279142
  72.7390651  41.6132358  95.3761025  73.0720599  42.3609821  96.6496308
  75.4207341  43.5720826 100.4425756  76.3750594  43.5404768 100.3755688
  75.2219864  43.1111449 101.2575982  76.0106723  42.1421942 103.0096554
  76.8299612  42.6366020 103.0331391  76.2843530  41.2253910 102.9814121
  85.7673319  34.5332694  92.3724509  84.8799174  34.8182345  92.1544704
  86.1827308  34.3726457  91.5251786  89.1187855  34.5579215  96.0878849
  89.8948245  35.0475667  96.3603465  88.3935989  34.9837269  96.5450718
  91.5560414  35.2706834  97.1452789  92.1504904  35.0302570  96.4346097
  91.6286997  34.5513965  97.7726325  84.9116532  44.2977369  86.4672529
  85.6152382  44.5027371  87.0830185  84.1879181  44.8654131  86.7321613
  85.7414343  40.0487230  92.5874799  85.6849544  40.5055781  91.7482432
  86.2942685  39.2877915  92.4097642  89.5519149  35.8376962  93.4124919
  89.2956083  35.4373597  94.2433127  88.9272017  36.5520756  93.2875058
  93.8631486  38.5773035  95.9196210  93.3031044  38.6466224  96.6927772
  93.2574990  38.4014020  95.1995707  86.8203230  44.7359898  88.5170989
  87.6548834  44.3041096  88.3348464  86.6587573  44.5641912  89.4447884
  86.4749122  41.2392011  89.8827329  86.4197926  41.0736283  88.9415773
  85.8495177  41.9468044  90.0389518  71.2641637  36.4760076 103.7088751
  71.9100500  35.9659030 104.1975976  71.0558788  37.2128757 104.2832176
  83.7895029  43.5440923 109.2080891  84.6586189  43.7181575 108.8467526
  83.3101781  44.3635340 109.0856621  77.9581209  50.6638024 100.8870325
  78.8608456  50.6961634 101.2036820  77.7318579  49.7338475 100.9016661
  79.7134811  49.4169011  97.5480404  78.7630442  49.4170872  97.4344776
  80.0167297  48.6701745  97.0316438  83.5997367  27.3342897  93.7158584
  82.8329763  26.7801384  93.8615266  84.0108072  27.4064766  94.5772735
  75.6039128  33.6227693 107.8063765  76.4670589  33.2664498 108.0167090
  75.0304539  33.2841587 108.4939169  95.4487505  55.2529549  98.6126166
  96.0865915  55.1336296  97.9089506  95.3308348  56.2010393  98.6714118
  92.2577211  55.2056977  98.5487691  91.9195723  55.0898042  97.6608226
  93.1266979  54.8048142  98.5288697  88.1164027  57.0592454  94.5384582
  87.5528892  56.9682390  93.7700869  88.0016422  56.2392358  95.0187074
  92.7396994  56.3591829 104.5073896  92.7285635  55.9644627 103.6354400
  92.9017634  55.6257901 105.1007668  85.6628459  58.5543645  97.3768802
  86.4549751  58.2134470  96.9615101  85.9025109  58.6638620  98.2970956
  93.6963586  60.7263421  89.8499047  93.0451565  61.3117502  89.4633060
  94.4907948  61.2569616  89.9094084  87.6219213  57.8152558  90.2486181
  88.3950089  57.2681545  90.1099057  87.9744612  58.6796808  90.4600642
  89.4604255  59.1428941 103.4553080  89.1694121  60.0474571 103.3399747
  90.0961240  59.1845468 104.1697150  90.3860462  56.5205789 100.0454440
  90.9824034  56.2961812  99.3311403  90.4435434  55.7790535 100.6479888
  89.9585490  53.9745224  87.8804631  90.2111011  53.4526746  87.1188094
  89.0210050  53.8111370  87.9831315  95.0028773  52.9781003  95.6879374
  95.7891863  52.5600426  95.3369791  95.2667478  53.8827095  95.8561023
  95.1738851  58.4153853  90.3868031  94.5384684  58.4888480  91.0988936
  94.8436257  59.0047452  89.7087110 100.4037200  52.9156236  96.5912353
 101.1362372  52.3455453  96.8250182  99.6476556  52.5277837  97.0318858
  89.6781779  55.8773330  90.0829006  89.5618037  55.2018234  90.7510090
  89.7884039  55.3905704  89.2661159  92.0213320  55.3383478  93.7875695
  91.6571527  54.8114099  94.4988617  92.8780436  54.9481947  93.6142181
  97.9262621  46.6277810 101.0506961  97.5945946  47.4973221 100.8268176
  97.3308234  46.3114094 101.7300992  91.6618807  50.3673377  88.7837044
  91.8293209  51.2353614  89.1507515  91.4715976  50.5300659  87.8598333
  94.4194140  58.8290356 100.4502874  94.1194863  59.7315395 100.3418681
  94.0745200  58.5622539 101.3024027  87.8706622  55.2804153  96.4839578
  86.9457118  55.1480367  96.6917270  88.1191035  56.0598372  96.9809521
  97.8191284  51.3472896  98.1300311  96.9108161  51.2788305  97.8359072
  97.7678880  51.8244841  98.9582137  91.6408028  52.8231035  89.7683710
  91.5207653  53.2688086  90.6069191  90.9460616  53.1716352  89.2097249
  85.2315433  54.9237427  97.3183367  85.3607814  55.1771905  98.2322779
  84.5512884  55.5165135  96.9988023  89.4014920  65.5934677  93.4173842
  89.3238950  66.5442502  93.4962322  88.7976564  65.2480549  94.0748768
  91.8932150  52.7662542 106.0735209  91.1165484  53.3256462 106.0638073
  92.5322713  53.2519325 106.5950079  99.6852931  49.5489335  99.9078185
  99.0427311  49.8421868  99.2617980  99.1807859  49.4342255 100.7131382
  97.3393094  53.2952508  90.5964044  98.2510950  53.5279895  90.4211742
  96.8302741  53.8789552  90.0339123  90.1478522  55.5747995 105.6353176
  90.8893207  56.1133039 105.3587999  89.4415508  56.2014284 105.7924727
  95.6233862  57.7177136 104.2325337  96.0317218  57.2759546 103.4879969
  94.9011123  57.1429763 104.4859530  91.9764932  52.6549743 101.6058894
  92.8226127  53.0789156 101.7493543  91.9163570  51.9983367 102.2997457
  95.9462676  58.2778326  97.9877626  95.3171539  58.4424041  97.2853694
  95.5588339  58.6919936  98.7588590  99.8251908  59.2132764  95.3421990
  99.1402947  59.5931666  94.7919023  99.9095758  59.8228091  96.0753937
  95.1264377  50.3154111 103.2640068  94.8825309  51.0696171 102.7274343
  95.4024308  50.6939458 104.0987315  97.0802840  56.8592723 101.9417333
  97.2919735  57.5024483 101.2651714  97.0332588  56.0255040 101.4739263
  94.6829069  49.4710544  98.8453905  93.8213548  49.7691797  99.1370643
  94.7091504  49.6880943  97.9134938  91.4990638  58.0152734  95.2527711
  91.9628984  58.2940437  94.4632334  91.2347436  57.1136179  95.0700802
  88.3914719  57.5624216  98.1907474  88.9616076  57.9911484  97.5524959
  88.9822831  57.2806801  98.8891660  90.4359524  54.1375887  92.0617276
  91.1383568  54.5896931  92.5291203  90.1040153  53.4959706  92.6897169
  88.8839886  52.7287643 106.4368486  88.2538547  53.4103924 106.6703882
  88.7775974  52.6170725 105.4921624  84.1784858  52.3959439  97.3634410
  83.3883912  52.6516968  96.8874520  84.6696106  53.2107777  97.4686450
  98.1948668  59.7364679 100.1139691  99.0166112  59.3344866  99.8322372
  98.1911071  59.6332913 101.0655806  86.1299604  52.7604019  94.3217886
  85.3330767  52.8722713  94.8401382  85.9025196  53.0990671  93.4558777
  91.9605271  59.2848722 102.2700401  92.0249704  59.7469129 103.1058573
  91.2516195  58.6546087 102.3982711  82.4622561  52.6489930  99.7949401
  82.7130600  53.5336940 100.0606976  82.9982110  52.4694531  99.0224492
 106.2854661  56.0803427  96.4624662 105.5318369  55.5110825  96.3068666
 106.4202202  56.0466092  97.4095297  91.6753289  60.9516829  92.1379381
  91.5398964  61.7968365  92.5664229  92.2163102  61.1536107  91.3745315
  88.1620629  47.0308409 108.7993737  87.7687574  46.4774608 109.4741381
  88.9786769  47.3418988 109.1900254  85.1282686  58.4692267  92.7107306
  85.6407207  59.2635518  92.8612871  85.7805399  57.7718558  92.6440908
  86.9377571  61.5858024  94.7930060  87.1144199  62.5075988  94.6051044
  87.7334405  61.2716443  95.2224439  91.0788590  48.4466288 106.3913993
  91.8198303  49.0473442 106.3118456  91.3106512  47.7043926 105.8332036
  86.2229928  53.6322656 104.6692223  86.1083443  52.7307913 104.9699322
  85.3674445  53.8786352 104.3177039  93.3021765  61.5740396 106.2679723
  92.8585620  60.7876775 105.9500628  93.9638979  61.7619546 105.6023614
  88.0608887  63.1036198 100.7940402  88.6116312  62.9753261 100.0217396
  87.2220362  63.4031087 100.4435295  95.4003003  61.8543196 104.2961125
  95.3821479  62.6752077 103.8041394  96.3222924  61.7297271 104.5211266
  91.8576058  59.3687325 105.1384633  92.3904394  58.6075614 104.9083941
  91.3290139  59.0760977 105.8808788  95.0245753  44.4747391 100.6678275
  94.6810022  45.3649033 100.5917385  95.3924715  44.2849049  99.8047860
  83.0931603  56.7980922  93.4866877  83.9306825  57.2077930  93.2700585
  83.2709871  55.8580364  93.4567071  94.9896035  54.4656002  89.1750710
  94.4742659  55.2360607  89.4139097  94.7173344  53.7921139  89.7983771
  92.5743146  49.3105703  94.2335948  91.7184743  48.9212554  94.0541587
  92.9870098  49.3897664  93.3735734  94.1042293  46.8452046  98.6327508
  93.6007089  46.8082182  97.8195313  94.3972900  47.7544789  98.6924165
  90.3485179  46.9290776  97.6393690  91.2138176  46.7333585  97.2799579
  90.4162688  46.7001128  98.5663047  99.9630309  57.2188357  91.1103883
  99.1859752  56.8799517  90.6659046 100.6421790  57.2240980  90.4358849
  94.7782338  52.3383095  91.0010491  94.4732474  52.6529244  91.8520634
  95.7312781  52.4164514  91.0437824  93.2228770  58.4973318  92.6503445
  92.6950132  57.7626077  92.3376683  92.7216273  59.2747994  92.4043413
  98.2021616  56.6922338  97.7670491  97.5445291  57.3821600  97.8550620
  99.0062016  57.0818770  98.1104478  87.9547498  49.1592984  95.0110057
  88.5291250  48.9368166  94.2783250  88.5418480  49.2281679  95.7638658
  97.0127075  55.0466711  95.8174433  97.5258957  55.6796703  96.3196143
  97.6628299  54.4467907  95.4517793  88.2817085  51.1897445  89.0305942
  87.4454397  51.5272132  89.3515217  88.1421855  51.0546425  88.0933079
  90.2570166  46.0334233  93.7385126  89.6034578  45.7183250  93.1141741
  90.2150640  45.4109974  94.4644949  94.2749449  65.0251035  88.5735104
  93.6011148  65.3282732  89.1820062  94.6615271  65.8280116  88.2240561
  93.4907906  52.5216167  98.0632774  92.5730467  52.7431114  97.9054462
  93.9068050  52.5962477  97.2044481  94.2742954  53.9207582  93.1935454
  95.0214773  54.4328979  92.8842576  94.5434543  53.5991635  94.0539848
  92.5469604  56.4166123  90.1762408  91.6380823  56.1325156  90.2734878
  92.5764688  56.8365202  89.3165715  97.7788871  60.0272712  93.9453576
  97.3251198  59.1863622  94.0018766  97.1482838  60.6634111  94.2828356
  96.7221791  50.9564699  95.1754243  95.9844548  50.4442085  95.5064486
  96.9748564  50.5165080  94.3637520  96.2221811  61.8649209  94.8803394
  96.5144785  62.4254266  94.1615760  96.7320431  62.1577770  95.6356553
  96.8233418  43.7340951  95.7696013  97.1292295  42.8738314  95.4821928
  97.5486023  44.3258571  95.5695006  83.1157774  54.1371637  94.1577610
  82.9182174  53.5440998  93.4328677  82.5604438  53.8323847  94.8753549
  91.0954498  54.0294744  96.2772204  91.1503108  53.0768580  96.2014680
  90.2845700  54.1854183  96.7613502  89.0346858  52.6471803  94.0362582
  88.2214723  52.9465974  94.4427775  89.5305852  52.2527492  94.7537065
  91.1855436  62.6429560  95.9696847  91.1431615  62.8690407  95.0405379
  92.1018135  62.4092935  96.1182648  94.6321070  53.1113628 102.8677476
  94.9870457  53.3385101 103.7271942  95.2793201  53.4432005 102.2454732
 100.3618807  56.2332064  93.5726805 100.2236705  56.4233660  92.6447995
 100.0055025  56.9951447  94.0294857  88.5260933  50.2190159  99.6523817
  89.1660312  50.0778918  98.9546781  87.6938463  49.9324672  99.2762419
 100.3888186  58.3008591  98.5838077 100.8224693  58.2083880  99.4321131
 101.1019767  58.2766091  97.9458093  89.3021237  59.5192589  95.7658810
  90.0961835  59.0242909  95.5641385  88.5912929  58.9910452  95.4026515
  94.1216081  61.9010685 100.1171178  94.1753103  62.4701621 100.8848893
  93.2530862  62.0712570  99.7525215  85.6104000  53.6635671  91.8418563
  84.6801588  53.6020127  92.0588525  85.7061472  53.1411624  91.0455204
  85.5289549  50.1890484  94.4296804  85.7896366  51.1035817  94.3205965
  86.3506721  49.7214926  94.5793417  87.0014474  51.6028241 101.5995629
  87.6737528  51.3945603 100.9508278  86.1744261  51.4050327 101.1600861
 101.2503736  58.3432291 101.1170962 101.4439626  59.2478102 101.3630237
 101.1504354  57.8839710 101.9509547  92.9040046  48.2290182 103.6161290
  92.2567961  48.9280132 103.5225766  93.6741062  48.6626326 103.9837538
  96.3118844  58.4939034 106.6911843  96.1604351  58.2649586 105.7741927
  96.3023524  59.4509636 106.7043188  93.0804181  56.0670947 101.6758109
  94.0096241  56.2182106 101.5027077  92.6595211  56.1554968 100.8206756
  91.8792513  60.0921611  99.4456647  91.7403598  59.7240396 100.3182585
  91.0907109  60.6069251  99.2740605  92.4740665  65.1930708  90.7882184
  92.6492420  64.7218751  91.6027806  91.7873453  65.8196474  91.0163444
  93.4297728  59.4703214  96.8345485  93.0947560  59.4303984  97.7303135
  92.9301673  58.8047930  96.3615895  87.4041972  54.8770844 102.3598066
  87.2661770  54.1451083 102.9609605  88.3146895  54.7879744 102.0782254
  96.3656919  56.8159248  87.1082544  95.7486090  56.0906076  87.0115597
  95.8973408  57.5768609  86.7649619  90.0324272  54.5890803 101.8481746
  90.7423891  53.9483996 101.8068364  89.9893581  54.8403698 102.7707926
  98.0211051  61.5258157 104.7688325  97.9623597  60.8417377 104.1018908
  98.4230569  62.2677147 104.3168951  88.7453206  51.5756021 103.6677385
  88.2090563  51.1246760 104.3198981  88.1569915  51.7101930 102.9247849
  87.0401750  68.3420071  97.5622044  87.2798348  68.9738595  98.2401062
  86.1970946  67.9908111  97.8487403  88.1555465  51.0344673  86.2303849
  87.2784932  50.9133473  85.8666095  88.6313218  50.2430751  85.9782737
  98.0228458  59.4897741 103.0002304  97.1355237  59.1523662 103.1228703
  98.5927009  58.7580772 103.2371070  79.6757605  55.8221832  96.3245356
  80.3628645  55.5083562  95.7366371  79.5205734  56.7263197  96.0512607
  84.4792328  50.7112029 100.7530380  84.3950516  50.1037698 100.0180789
  83.6575034  51.2021047 100.7539876  91.5529612  64.1499193  99.9663548
  91.4799783  64.9554164 100.4782852  91.1107005  64.3491159  99.1411569
  91.3419391  63.3870963  93.4766369  90.5586913  63.9292643  93.5704594
  92.0412136  63.9044943  93.8760610  94.6516041  49.1965592  96.1200575
  95.1484741  48.4435555  95.8001645  93.8803023  49.2329909  95.5543784
 102.5045799  54.9005958  97.7618866 102.4935675  55.7830673  97.3912799
 101.6363178  54.5477509  97.5673403  94.0128295  64.0486027 102.1221706
  94.7256267  64.6833492 102.0497608  93.5218324  64.1449893 101.3061708
  95.7345822  57.9537280  93.6938998  94.8002101  58.0738742  93.5243702
  95.9122491  57.0509746  93.4299008  91.2351010  51.3382975  95.8472259
  90.8648798  50.7854016  96.5353165  91.7310103  50.7341109  95.2947259
  99.1218373  53.7954599  94.2289032  99.5878826  54.6282591  94.1549335
  99.5725874  53.3299581  94.9334291  89.0640209  61.7980470 102.9427277
  89.7649668  62.4316953 103.0956671  88.5935324  62.1395202 102.1822916
  97.1894605  60.1398420  91.2275184  97.4654448  60.0255015  92.1369058
  96.3199103  59.7415905  91.1887357  97.0935036  46.1635186  98.2679933
  96.1798116  46.3939413  98.4362140  97.5228138  46.2473630  99.1193966
  96.8641495  54.3525078 100.7679827  96.2112945  54.6000985 100.1132280
  97.2421875  53.5389216 100.4342305  93.8248669  64.3884771  94.8707998
  94.0071063  63.5706427  95.3335750  94.6481655  64.6052463  94.4332888
  94.1590834  63.3152956  92.1323046  94.6878601  62.8045411  91.5193208
  94.4219054  62.9995486  92.9968579  92.9129068  55.0944889 107.2545865
  92.2369705  54.9939018 107.9248240  93.7356702  54.9384103 107.7181862
  84.6607927  61.3316825  99.8758380  85.2461364  60.5860513 100.0086284
  84.4632765  61.6420782 100.7595044  87.5146582  64.3668073  94.8920822
  86.8456957  64.8514201  94.4084862  87.3759452  64.6137293  95.8064201
  79.2525582  53.9022426  98.5962823  79.2909681  53.3686016  99.3899941
  78.7465874  53.3757631  97.9773800  91.6551851  66.4011816 101.4903481
  92.2070159  66.5643438 102.2552566  91.9958044  66.9916254 100.8183505
  86.6316344  48.7486966 102.0925365  86.6957670  49.6101797 101.6802763
  86.5683464  48.1360968 101.3597724  86.1068616  50.8210099 105.7398400
  86.7340655  50.4387176 106.3535924  85.2496535  50.6024301 106.1054092
  96.5062725  61.2273074 107.3452135  97.0502629  61.8403032 106.8507090
  95.9249570  61.7852652 107.8619148  82.8834159  52.6286528  91.6716754
  83.1787600  51.7197206  91.6183808  81.9822195  52.6074267  91.3497757
  94.7920238  64.3493792  98.4767163  94.6671377  63.5483532  97.9678108
  95.4499329  64.8439985  97.9881133  86.4128406  50.7042524  97.6544303
  85.6914992  51.3178492  97.5151776  87.2021662  51.2400289  97.5760949
  96.8555146  62.1502812 100.1046713  95.9085482  62.0308163 100.0325040
  97.2037919  61.2625310 100.1872974  89.2154720  48.0396951 103.9284955
  89.7389121  48.2859247 104.6911264  88.9967053  48.8716986 103.5088092
  84.6122001  50.3100626  91.7956080  84.2834707  49.4298004  91.6131185
  84.9661371  50.2548294  92.6832469  93.8601580  61.9455528  96.3051065
  93.7126542  61.0172236  96.4858635  94.6855073  61.9675619  95.8208140
  87.7263824  50.5973595  92.1631557  88.0659896  51.1259517  91.4410166
  88.1735944  50.9354001  92.9390124  97.4635701  62.7684087  97.3915938
  98.3882249  62.5626948  97.2540389  97.2951005  62.5200488  98.3005279
  90.4207265  48.9810646 101.6134625  90.0804085  48.1818459 102.0155305
  89.7146271  49.2812357 101.0411458  91.0723737  46.0659958 100.0661948
  91.8949806  45.5920437  99.9440839  91.3161800  46.8450442 100.5660635
  89.7131971  49.0948217  90.3624850  90.4340333  49.4729470  89.8588567
  89.0897275  49.8137094  90.4659828  93.8563094  49.7993366  91.2983182
  94.0726708  50.6818004  90.9972010  93.3757161  49.4079579  90.5688824
  88.5962315  52.7579079  97.8753927  88.4506896  53.0719382  98.7678208
  88.1187519  53.3763979  97.3224826  90.4558698  49.7481627  97.9234816
  90.4420267  48.8522720  97.5867114  91.1731126  49.7552291  98.5573102
  92.3084829  50.1818967  99.9687944  92.0502607  51.1036038  99.9672274
  91.7769869  49.7849402 100.6588408  97.2531018  63.2869754  92.7478029
  97.4267895  62.7216177  91.9951882  97.7459909  64.0870649  92.5657519
  83.0707977  55.2984423 100.8141588  82.5261445  56.0744231 100.9461862
  83.9487327  55.6455228 100.6560709  89.8595594  48.6296007  93.1922387
  89.9811505  47.7012654  93.3913274  89.5697636  48.6434693  92.2800702
  92.7286784  46.3150918  96.3289106  92.7508481  46.3790251  95.3741086
  93.1454843  45.4755426  96.5229613 103.1070409  56.0506177  94.3668329
 103.5501555  55.3013503  93.9687452 102.2296919  56.0416314  93.9842061
  98.2406190  62.6036519  89.8474928  98.9357095  63.2243211  90.0662242
  98.5829340  61.7531870  90.1227305  83.8573999  54.4254320 103.7071745
  83.1155735  54.5736955 104.2936375  83.5366744  54.6862585 102.8438494
 100.1397613  60.0536224  91.3762258 100.6648937  60.3923497  90.6511578
 100.0519966  59.1183240  91.1925393  91.8017662  63.9670298 103.5052135
  92.1104788  63.7219445 104.3774835  92.5993144  64.1716936 103.0171005
  91.8238274  66.1208208  95.7357511  91.3843264  65.6284586  96.4290368
  92.5746391  65.5781175  95.4949587  84.3030613  62.3119748  95.7382140
  85.1288633  62.0123520  95.3580783  83.9524665  61.5427371  96.1871928
  89.2712146  61.6646217  97.8079813  88.6492155  61.0016922  97.5082041
  89.9417013  61.6907349  97.1253461  82.5039218  60.2306075  96.6971073
  81.6671126  59.8028249  96.5155074  82.4762863  60.4238518  97.6341864
  89.3436674  50.1428005 107.4012319  89.3924829  51.0190128 107.0190089
  89.8859188  49.6005398 106.8283962  99.8291519  60.6869128 106.6813456
  99.0387063  60.6693267 106.1417956  99.5924874  61.2257422 107.4362493
  99.9489394  57.5361594 103.9946185  99.9987399  57.3711602 104.9361708
  99.8403318  56.6688853 103.6044066  88.8325653  60.2150140  91.2838274
  88.9813773  60.8985604  90.6304946  89.6392096  60.1955230  91.7987729
  97.2393157  53.5192522 105.3105492  98.1403019  53.3798987 105.0189489
  97.3141131  53.6846977 106.2503669  91.5735962  50.8959377 104.1558678
  90.7039271  51.1892943 103.8841266  91.8095442  51.4799822 104.8765941
 101.4507591  59.9558536 104.2388206 101.1592399  60.3188516 105.0751667
 100.8379722  59.2425544 104.0601538 102.6503273  57.5211416  96.7590777
 103.4850165  57.9601220  96.9228337 102.7862402  57.0450069  95.9399022
  99.6994779  55.0791150 102.7068264 100.1748901  55.2718797 101.8987116
  98.7760345  55.1350336 102.4611648  86.5878286  56.2415318  92.2899343
  86.3424328  55.3377648  92.4879553  86.7574201  56.2432468  91.3478821
  94.2774996  47.1138994 101.6724098  94.7956940  47.8500021 101.3470587
  93.9230129  47.4202987 102.5070857  85.8573934  51.9743675  89.7885504
  85.1643178  52.0488030  89.1325540  85.6125685  51.2104019  90.3107021
  94.5287590  43.5339277  97.1924995  94.8089344  42.8662466  97.8185421
  95.3138197  43.7268372  96.6799659  92.3321059  62.7098270  88.7550021
  91.7595026  63.3288458  88.3020493  92.9053852  63.2597632  89.2889943
  98.3996448  51.9556911 100.9396570  99.3513871  52.0555008 100.9608794
  98.2299899  51.1635179 101.4494654  96.4210828  49.0412494 101.1255971
  95.8260760  49.3217507 100.4302459  96.1360525  49.5306395 101.8972712
  95.5518318  62.9935421  89.8858603  96.4848992  62.9280982  90.0891479
  95.4641531  63.8291687  89.4273136  98.1806335  62.3101291  86.8462551
  98.1019967  61.9761155  87.7398309  99.0016002  62.8023059  86.8454023
 100.8784526  55.1763030 100.0538870 100.8460846  54.2379031 100.2398553
 101.4885150  55.2547067  99.3204694  92.7167857  54.0459083  86.0966074
  93.6626962  53.9165291  86.1654492  92.3382102  53.3073745  86.5735502
 101.0279015  51.9674074 100.0997153 100.5118063  51.1832530  99.9127082
 101.9118963  51.6392790 100.2643672  98.6889742  45.7115089  96.0592965
  98.4914563  45.4030177  96.9436297  99.2989447  46.4376728  96.1890895
 106.6961076  56.2379037  99.1944906 107.4264465  55.9764325  99.7552610
 106.0868022  55.5007759  99.2346974 104.7776373  54.3786900  99.7919358
 104.0509537  54.2442865  99.1835849 104.3623660  54.6863728 100.5976076
  92.6006550  58.0976829 107.5566731  93.5209559  58.2755428 107.7506777
  92.5656133  57.1532875 107.4046430  90.9010774  51.9709060  86.0320959
  89.9942230  51.6742172  86.1083672  91.1786755  51.6738878  85.1655245
  81.8188715  53.2915423  96.4820005  81.4991499  52.4380731  96.1894379
  81.2722143  53.5064001  97.2377973  85.5968622  56.0077864 100.1989512
  85.8154632  56.9394972 100.2177546  86.0094396  55.6485838 100.9844316
  92.5172840  46.5145949  92.1865200  91.7073568  46.1693034  92.5620446
  93.2057257  46.2053493  92.7752812  94.4463388  45.5923996  93.8089497
  94.9994427  46.0119450  94.4679520  94.6833475  44.6659744  93.8512453
  90.4696487  51.5811070 109.5892261  90.3693214  52.5305427 109.5204352
  90.2518030  51.2529309 108.7168331  89.6709559  48.8295995  86.1732938
  90.5328723  49.1550893  86.4328755  89.8559903  48.0427491  85.6606004
  81.6876975  56.9118335  98.4513127  80.9940446  56.4972287  97.9383081
  82.4349966  56.9538871  97.8546546  97.8242195  47.7024521  93.3168161
  97.2440864  48.3609325  92.9346213  97.5578128  46.8801866  92.9055579
  96.2745762  47.1029579  95.5189481  96.7745540  47.2146114  94.7103800
  96.9181370  46.7990632  96.1590290  90.3327758  55.0108209 108.4057322
  89.8494839  55.8108569 108.6121211  90.4188697  55.0216154 107.4524766
  83.6013717  56.8436588  96.3279142  83.5784405  56.9424276  95.3761025
  83.9114354  57.6901739  96.6496308  86.2601095  58.9012743 100.4425756
  87.2144349  58.8696686 100.3755688  86.0613619  58.4403367 101.2575982
  86.8500477  57.4713859 103.0096554  87.6693366  57.9657938 103.0331391
  87.1237285  56.5545828 102.9814121  96.6067073  49.8624612  92.3724509
  95.7192928  50.1474262  92.1544704  97.0221062  49.7018375  91.5251786
  99.9581609  49.8871133  96.0878849 100.7342000  50.3767585  96.3603465
  99.2329744  50.3129187  96.5450718 102.3954168  50.5998752  97.1452789
 102.9898659  50.3594488  96.4346097 102.4680752  49.8805882  97.7726325
  84.6151324  64.4432363  97.4595954  84.4805792  63.6832764  96.8933952
  84.1983386  65.1673263  96.9924743  95.7510287  59.6269286  86.4672529
  96.4546137  59.8319289  87.0830185  95.0272936  60.1946048  86.7321613
  96.5808097  55.3779148  92.5874799  96.5243298  55.8347699  91.7482432
  97.1336440  54.6169832  92.4097642 100.3912903  51.1668879  93.4124919
 100.1349837  50.7665515  94.2433127  99.7665771  51.8812673  93.2875058
 104.7025241  53.9064953  95.9196210 104.1424799  53.9758142  96.6927772
 104.0968744  53.7305937  95.1995707  87.7720450  65.3401680  97.6714397
  87.6552834  66.2847112  97.5693087  86.9512896  65.0375241  98.0600196
  97.6596984  60.0651816  88.5170989  98.4942588  59.6333014  88.3348464
  97.4981327  59.8933829  89.4447884  97.3142876  56.5683929  89.8827329
  97.2591680  56.4028200  88.9415773  96.6888932  57.2759962  90.0389518
  82.1035391  51.8051993 103.7088751  82.7494255  51.2950947 104.1975976
  81.8952542  52.5420675 104.2832176  94.6288784  58.8732841 109.2080891
  95.4979943  59.0473493 108.8467526  94.1495535  59.6927258 109.0856621
  90.6239002  46.0692038  89.4612647  90.6117672  47.0133878  89.6180918
  91.5162424  45.8862183  89.1672108  88.7974964  65.9929942 100.8870325
  89.7002211  66.0253552 101.2036820  88.5712334  65.0630393 100.9016661
  90.5528566  64.7460928  97.5480404  89.6024197  64.7462790  97.4344776
  90.8561052  63.9993663  97.0316438  94.4391121  42.6634815  93.7158584
  93.6723517  42.1093301  93.8615266  94.8501826  42.7356683  94.5772735
  86.4432882  48.9519610 107.8063765  87.3064344  48.5956415 108.0167090
  85.8698293  48.6133505 108.4939169 106.2881259  70.5821467  98.6126166
 106.9259669  70.4628214  97.9089506 106.1702102  71.5302311  98.6714118
 103.0970966  70.5348895  98.5487691 102.7589477  70.4189959  97.6608226
 103.9660734  70.1340060  98.5288697  98.9557781  72.3884371  94.5384582
  98.3922646  72.2974308  93.7700869  98.8410176  71.5684276  95.0187074
 103.5790749  71.6883747 104.5073896 103.5679389  71.2936545 103.6354400
 103.7411388  70.9549819 105.1007668  96.5022213  73.8835563  97.3768802
  97.2943505  73.5426387  96.9615101  96.7418863  73.9930538  98.2970956
 104.5357340  76.0555339  89.8499047 103.8845320  76.6409419  89.4633060
 105.3301703  76.5861534  89.9094084 100.2998010  74.4720858 103.4553080
 100.0087876  75.3766489 103.3399747 100.9354994  74.5137386 104.1697150
 101.2254217  71.8497707 100.0454440 101.8217789  71.6253729  99.3311403
 101.2829188  71.1082452 100.6479888 100.7979245  69.3037142  87.8804631
 101.0504766  68.7818663  87.1188094  99.8603804  69.1403288  87.9831315
 105.8422528  68.3072921  95.6879374 106.6285617  67.8892344  95.3369791
 106.1061232  69.2119013  95.8561023 106.0132605  73.7445771  90.3868031
 105.3778438  73.8180397  91.0988936 105.6830012  74.3339370  89.7087110
 111.2430955  68.2448154  96.5912353 111.9756127  67.6747371  96.8250182
 110.4870311  67.8569754  97.0318858 100.5175534  71.2065248  90.0829006
 100.4011792  70.5310152  90.7510090 100.6277794  70.7197622  89.2661159
 102.8607075  70.6675395  93.7875695 102.4965282  70.1406016  94.4988617
 103.7174191  70.2773864  93.6142181 108.7656375  61.9569728 101.0506961
 108.4339700  62.8265139 100.8268176 108.1701989  61.6406012 101.7300992
 102.5012562  65.6965295  88.7837044 102.6686964  66.5645531  89.1507515
 102.3109731  65.8592577  87.8598333 105.2587895  74.1582274 100.4502874
 104.9588618  75.0607313 100.3418681 104.9138954  73.8914457 101.3024027
  98.7100376  70.6096071  96.4839578  97.7850873  70.4772285  96.6917270
  98.9584789  71.3890290  96.9809521 108.6585039  66.6764814  98.1300311
 107.7501916  66.6080222  97.8359072 108.6072634  67.1536759  98.9582137
 102.4801782  68.1522952  89.7683710 102.3601408  68.5980003  90.6069191
 101.7854371  68.5008270  89.2097249  96.0709187  70.2529344  97.3183367
  96.2001568  70.5063823  98.2322779  95.3906639  70.8457052  96.9988023
 100.2408675  80.9226594  93.4173842 100.1632704  81.8734419  93.4962322
  99.6370318  80.5772467  94.0748768 102.7325904  68.0954460 106.0735209
 101.9559238  68.6548380 106.0638073 103.3716467  68.5811243 106.5950079
 110.5246685  64.8781252  99.9078185 109.8821065  65.1713786  99.2617980
 110.0201614  64.7634173 100.7131382 108.1786849  68.6244426  90.5964044
 109.0904705  68.8571812  90.4211742 107.6696496  69.2081470  90.0339123
 100.9872277  70.9039913 105.6353176 101.7286961  71.4424957 105.3587999
 100.2809262  71.5306202 105.7924727 106.4627616  73.0469053 104.2325337
 106.8710972  72.6051464 103.4879969 105.7404878  72.4721681 104.4859530
 102.8158686  67.9841660 101.6058894 103.6619882  68.4081074 101.7493543
 102.7557324  67.3275285 102.2997457 106.7856431  73.6070244  97.9877626
 106.1565293  73.7715958  97.2853694 106.3982093  74.0211854  98.7588590
 110.6645663  74.5424682  95.3421990 109.9796701  74.9223583  94.7919023
 110.7489512  75.1520009  96.0753937 105.9658132  65.6446029 103.2640068
 105.7219064  66.3988089 102.7274343 106.2418062  66.0231376 104.0987315
 107.9196594  72.1884641 101.9417333 108.1313490  72.8316401 101.2651714
 107.8726343  71.3546957 101.4739263 105.5222823  64.8002462  98.8453905
 104.6607302  65.0983715  99.1370643 105.5485258  65.0172860  97.9134938
 102.3384393  73.3444652  95.2527711 102.8022738  73.6232355  94.4632334
 102.0741191  72.4428097  95.0700802  99.2308474  72.8916134  98.1907474
  99.8009831  73.3203402  97.5524959  99.8216586  72.6098718  98.8891660
 101.2753279  69.4667805  92.0617276 101.9777322  69.9188848  92.5291203
 100.9433907  68.8251623  92.6897169  99.7233640  68.0579561 106.4368486
  99.0932301  68.7395842 106.6703882  99.6169728  67.9462643 105.4921624
  95.0178613  67.7251357  97.3634410  94.2277667  67.9808886  96.8874520
  95.5089860  68.5399695  97.4686450 109.0342422  75.0656596 100.1139691
 109.8559866  74.6636784  99.8322372 109.0304825  74.9624831 101.0655806
  96.9693358  68.0895936  94.3217886  96.1724522  68.2014631  94.8401382
  96.7418950  68.4282589  93.4558777 102.7999026  74.6140640 102.2700401
 102.8643458  75.0761047 103.1058573 102.0909950  73.9838005 102.3982711
  93.3016316  67.9781848  99.7949401  93.5524354  68.8628858 100.0606976
  93.8375864  67.7986449  99.0224492 117.1248415  71.4095345  96.4624662
 116.3712124  70.8402743  96.3068666 117.2595957  71.3758009  97.4095297
  99.0014383  62.3600327 108.7993737  98.6081329  61.8066526 109.4741381
  99.8180523  62.6710905 109.1900254 101.9182344  63.7758206 106.3913993
 102.6592058  64.3765359 106.3118456 102.1500267  63.0335844 105.8332036
  97.0623682  68.9614573 104.6692223  96.9477197  68.0599831 104.9699322
  96.2068200  69.2078270 104.3177039 104.1415520  76.9032314 106.2679723
 103.6979374  76.1168692 105.9500628 104.8032733  77.0911464 105.6023614
  98.9002641  78.4328115 100.7940402  99.4510066  78.3045179 100.0217396
  98.0614117  78.7323004 100.4435295 106.2396758  77.1835114 104.2961125
 106.2215233  78.0043995 103.8041394 107.1616678  77.0589189 104.5211266
 102.6969812  74.6979243 105.1384633 103.2298149  73.9367531 104.9083941
 102.1683893  74.4052895 105.8808788 105.8639507  59.8039309 100.6678275
 105.5203776  60.6940951 100.5917385 106.2318470  59.6140967  99.8047860
  93.9325358  72.1272839  93.4866877  94.7700580  72.5369848  93.2700585
  94.1103625  71.1872282  93.4567071 105.8289790  69.7947920  89.1750710
 105.3136413  70.5652525  89.4139097 105.5567098  69.1213056  89.7983771
 103.4136901  64.6397621  94.2335948 102.5578497  64.2504471  94.0541587
 103.8263853  64.7189582  93.3735734 104.9436047  62.1743964  98.6327508
 104.4400843  62.1374099  97.8195313 105.2366654  63.0836707  98.6924165
 101.1878933  62.2582694  97.6393690 102.0531930  62.0625503  97.2799579
 101.2556442  62.0293046  98.5663047 110.8024064  72.5480275  91.1103883
 110.0253507  72.2091434  90.6659046 111.4815545  72.5532898  90.4358849
 105.6176093  67.6675012  91.0010491 105.3126229  67.9821161  91.8520634
 106.5706535  67.7456432  91.0437824 104.0622525  73.8265236  92.6503445
 103.5343886  73.0917995  92.3376683 103.5610028  74.6039912  92.4043413
 109.0415371  72.0214256  97.7670491 108.3839045  72.7113517  97.8550620
 109.8455770  72.4110688  98.1104478  98.7941252  64.4884902  95.0110057
  99.3685004  64.2660083  94.2783250  99.3812235  64.5573596  95.7638658
 107.8520830  70.3758629  95.8174433 108.3652711  71.0088621  96.3196143
 108.5022054  69.7759824  95.4517793  99.1210840  66.5189363  89.0305942
  98.2848152  66.8564049  89.3515217  98.9815609  66.3838343  88.0933079
 101.0963920  61.3626151  93.7385126 100.4428332  61.0475168  93.1141741
 101.0544394  60.7401891  94.4644949 102.2075125  71.6445446  85.6538418
 101.3002187  71.4134699  85.8529567 102.7046157  70.8483065  85.8412400
 105.1143204  80.3542953  88.5735104 104.4404903  80.6574650  89.1820062
 105.5009026  81.1572033  88.2240561 104.3301660  67.8508084  98.0632774
 103.4124222  68.0723031  97.9054462 104.7461804  67.9254395  97.2044481
 105.1136708  69.2499500  93.1935454 105.8608527  69.7620897  92.8842576
 105.3828298  68.9283553  94.0539848 103.3863358  71.7458041  90.1762408
 102.4774578  71.4617073  90.2734878 103.4158442  72.1657119  89.3165715
 108.6182626  75.3564630  93.9453576 108.1644953  74.5155540  94.0018766
 107.9876593  75.9926029  94.2828356 107.5615545  66.2856616  95.1754243
 106.8238302  65.7734002  95.5064486 107.8142319  65.8456998  94.3637520
 107.0615565  77.1941127  94.8803394 107.3538539  77.7546184  94.1615760
 107.5714186  77.4869688  95.6356553 107.6627173  59.0632868  95.7696013
 107.9686050  58.2030232  95.4821928 108.3879778  59.6550488  95.5695006
  93.9551529  69.4663555  94.1577610  93.7575929  68.8732915  93.4328677
  93.3998193  69.1615765  94.8753549 101.9348252  69.3586661  96.2772204
 101.9896862  68.4060498  96.2014680 101.1239455  69.5146100  96.7613502
 103.0839446  73.2866784  87.5150487 102.6458876  72.5702643  87.0556124
 103.8249887  73.5142899  86.9535578  99.8740612  67.9763721  94.0362582
  99.0608478  68.2757892  94.4427775 100.3699607  67.5819410  94.7537065
 102.0249190  77.9721478  95.9696847 101.9825369  78.1982324  95.0405379
 102.9411889  77.7384853  96.1182648 105.4714824  68.4405545 102.8677476
 105.8264212  68.6677019 103.7271942 106.1186955  68.7723922 102.2454732
 111.2012561  71.5623981  93.5726805 111.0630460  71.7525577  92.6447995
 110.8448780  72.3243364  94.0294857  99.3654687  65.5482077  99.6523817
 100.0054066  65.4070836  98.9546781  98.5332218  65.2616590  99.2762419
 111.2281941  73.6300508  98.5838077 111.6618447  73.5375797  99.4321131
 111.9413521  73.6058009  97.9458093 100.1414991  74.8484507  95.7658810
 100.9355590  74.3534827  95.5641385  99.4306683  74.3202370  95.4026515
 104.9609836  77.2302602 100.1171178 105.0146858  77.7993539 100.8848893
 104.0924617  77.4004488  99.7525215  96.4497755  68.9927589  91.8418563
  95.5195343  68.9312044  92.0588525  96.5455227  68.4703541  91.0455204
  96.3683304  65.5182402  94.4296804  96.6290121  66.4327735  94.3205965
  97.1900476  65.0506844  94.5793417  97.8408229  66.9320159 101.5995629
  98.5131282  66.7237521 100.9508278  97.0138015  66.7342245 101.1600861
 112.0897490  73.6724209 101.1170962 112.2833380  74.5770020 101.3630237
 111.9898108  73.2131628 101.9509547 103.7433801  63.5582100 103.6161290
 103.0961716  64.2572049 103.5225766 104.5134816  63.9918244 103.9837538
 107.1512599  73.8230952 106.6911843 106.9998105  73.5941503 105.7741927
 107.1417278  74.7801553 106.7043188 103.9197935  71.3962865 101.6758109
 104.8489995  71.5474024 101.5027077 103.4988965  71.4846885 100.8206756
 102.7186267  75.4213529  99.4456647 102.5797353  75.0532313 100.3182585
 101.9300863  75.9361168  99.2740605 103.3134419  80.5222625  90.7882184
 103.4886175  80.0510669  91.6027806 102.6267207  81.1488392  91.0163444
 104.2691482  74.7995132  96.8345485 103.9341315  74.7595902  97.7303135
 103.7695428  74.1339848  96.3615895  98.2435726  70.2062762 102.3598066
  98.1055524  69.4743000 102.9609605  99.1540650  70.1171662 102.0782254
 107.2050674  72.1451166  87.1082544 106.5879844  71.4197994  87.0115597
 106.7367162  72.9060526  86.7649619 100.8718027  69.9182721 101.8481746
 101.5817645  69.2775913 101.8068364 100.8287335  70.1695616 102.7707926
 108.8604806  76.8550074 104.7688325 108.8017352  76.1709294 104.1018908
 109.2624324  77.5969064 104.3168951  99.5846961  66.9047939 103.6677385
  99.0484318  66.4538677 104.3198981  98.9963669  67.0393848 102.9247849
  98.9949220  66.3636590  86.2303849  98.1178686  66.2425391  85.8666095
  99.4706973  65.5722669  85.9782737 108.8622213  74.8189658 103.0002304
 107.9748992  74.4815580 103.1228703 109.4320764  74.0872689 103.2371070
  90.5151360  71.1513750  96.3245356  91.2022400  70.8375480  95.7366371
  90.3599489  72.0555115  96.0512607  95.3186082  66.0403947 100.7530380
  95.2344271  65.4329616 100.0180789  94.4968788  66.5312965 100.7539876
 102.3923366  79.4791111  99.9663548 102.3193538  80.2846082 100.4782852
 101.9500759  79.6783076  99.1411569 105.4909796  64.5257510  96.1200575
 105.9878495  63.7727472  95.8001645 104.7196777  64.5621827  95.5543784
 113.3439553  70.2297876  97.7618866 113.3329430  71.1122591  97.3912799
 112.4756933  69.8769426  97.5673403 104.8522050  79.3777945 102.1221706
 105.5650022  80.0125409 102.0497608 104.3612078  79.4741811 101.3061708
 106.5739577  73.2829197  93.6938998 105.6395855  73.4030660  93.5243702
 106.7516245  72.3801664  93.4299008 102.0744765  66.6674893  95.8472259
 101.7042552  66.1145933  96.5353165 102.5703857  66.0633027  95.2947259
 109.9612128  69.1246517  94.2289032 110.4272580  69.9574508  94.1549335
 110.4119628  68.6591498  94.9334291  99.9033963  77.1272388 102.9427277
 100.6043423  77.7608871 103.0956671  99.4329078  77.4687120 102.1822916
 108.0288359  75.4690338  91.2275184 108.3048203  75.3546932  92.1369058
 107.1592858  75.0707823  91.1887357 107.9328791  61.4927104  98.2679933
 107.0191870  61.7231330  98.4362140 108.3621892  61.5765548  99.1193966
 107.7035249  69.6816996 100.7679827 107.0506699  69.9292903 100.1132280
 108.0815629  68.8681134 100.4342305 104.6642423  79.7176689  94.8707998
 104.8464818  78.8998345  95.3335750 105.4875409  79.9344381  94.4332888
 104.9984589  78.6444874  92.1323046 105.5272355  78.1337328  91.5193208
 105.2612808  78.3287404  92.9968579 103.7522822  70.4236807 107.2545865
 103.0763459  70.3230936 107.9248240 104.5750456  70.2676020 107.7181862
  95.5001681  76.6608743  99.8758380  96.0855118  75.9152431 100.0086284
  95.3026520  76.9712700 100.7595044  98.3540337  79.6959991  94.8920822
  97.6850712  80.1806118  94.4084862  98.2153206  79.9429211  95.8064201
  90.0919336  69.2314343  98.5962823  90.1303436  68.6977934  99.3899941
  89.5859629  68.7049549  97.9773800 102.4945605  81.7303734 101.4903481
 103.0463913  81.8935356 102.2552566 102.8351799  82.3208172 100.8183505
  97.4710098  64.0778884 102.0925365  97.5351425  64.9393715 101.6802763
  97.4077219  63.4652886 101.3597724  96.9462371  66.1502016 105.7398400
  97.5734410  65.7679094 106.3535924  96.0890290  65.9316218 106.1054092
 107.3456479  76.5564992 107.3452135 107.8896383  77.1694950 106.8507090
 106.7643324  77.1144570 107.8619148  93.7227914  67.9578446  91.6716754
  94.0181355  67.0489124  91.6183808  92.8215949  67.9366185  91.3497757
 105.6313992  79.6785710  98.4767163 105.5065132  78.8775449  97.9678108
 106.2893083  80.1731903  97.9881133  97.2522161  66.0334442  97.6544303
  96.5308746  66.6470410  97.5151776  98.0415416  66.5692207  97.5760949
 107.6948901  77.4794730 100.1046713 106.7479236  77.3600081 100.0325040
 108.0431674  76.5917228 100.1872974 100.0548474  63.3688869 103.9284955
 100.5782876  63.6151165 104.6911264  99.8360807  64.2008903 103.5088092
  95.4515755  65.6392543  91.7956080  95.1228461  64.7589922  91.6131185
  95.8055126  65.5840212  92.6832469 104.6995334  77.2747446  96.3051065
 104.5520296  76.3464153  96.4858635 105.5248828  77.2967537  95.8208140
  98.5657578  65.9265513  92.1631557  98.9053651  66.4551434  91.4410166
  99.0129699  66.2645919  92.9390124 108.3029456  78.0976005  97.3915938
 109.2276003  77.8918866  97.2540389 108.1344759  77.8492406  98.3005279
 101.2601019  64.3102564 101.6134625 100.9197840  63.5110377 102.0155305
 100.5540025  64.6104275 101.0411458 101.9117491  61.3951876 100.0661948
 102.7343560  60.9212354  99.9440839 102.1555555  62.1742360 100.5660635
 100.5525725  64.4240135  90.3624850 101.2734088  64.8021387  89.8588567
  99.9291030  65.1429011  90.4659828 104.6956848  65.1285284  91.2983182
 104.9120463  66.0109921  90.9972010 104.2150916  64.7371497  90.5688824
  99.4356070  68.0870997  97.8753927  99.2900650  68.4011300  98.7678208
  98.9581273  68.7055897  97.3224826 101.2952453  65.0773545  97.9234816
 101.2814021  64.1814638  97.5867114 102.0124881  65.0844208  98.5573102
 103.1478583  65.5110885  99.9687944 102.8896361  66.4327956  99.9672274
 102.6163624  65.1141319 100.6588408 108.0924772  78.6161672  92.7478029
 108.2661650  78.0508095  91.9951882 108.5853663  79.4162567  92.5657519
  93.9101732  70.6276341 100.8141588  93.3655200  71.4036149 100.9461862
  94.7881082  70.9747146 100.6560709 100.6989349  63.9587925  93.1922387
 100.8205260  63.0304571  93.3913274 100.4091391  63.9726611  92.2800702
 103.5680539  61.6442835  96.3289106 103.5902236  61.7082169  95.3741086
 103.9848598  60.8047344  96.5229613 113.9464163  71.3798095  94.3668329
 114.3895309  70.6305420  93.9687452 113.0690674  71.3708231  93.9842061
 109.0799945  77.9328436  89.8474928 109.7750849  78.5535129  90.0662242
 109.4223095  77.0823788  90.1227305  94.6967754  69.7546237 103.7071745
  93.9549490  69.9028873 104.2936375  94.3760498  70.0154503 102.8438494
 110.9791368  75.3828142  91.3762258 111.5042692  75.7215415  90.6511578
 110.8913720  74.4475157  91.1925393 102.6411416  79.2962216 103.5052135
 102.9498543  79.0511362 104.3774835 103.4386898  79.5008854 103.0171005
 102.6632028  81.4500125  95.7357511 102.2237019  80.9576504  96.4290368
 103.4140145  80.9073093  95.4949587  95.1424367  77.6411666  95.7382140
  95.9682387  77.3415438  95.3580783  94.7918419  76.8719289  96.1871928
 100.1105901  76.9938134  97.8079813  99.4885910  76.3308839  97.5082041
 100.7810768  77.0199266  97.1253461  93.3432973  75.5597993  96.6971073
  92.5064881  75.1320167  96.5155074  93.3156618  75.7530436  97.6341864
 100.1830428  65.4719922 107.4012319 100.2318584  66.3482045 107.0190089
 100.7252942  64.9297315 106.8283962 110.6685274  76.0161046 106.6813456
 109.8780817  75.9985185 106.1417956 110.4318628  76.5549339 107.4362493
 110.7883149  72.8653512 103.9946185 110.8381154  72.7003519 104.9361708
 110.6797072  71.9980771 103.6044066 108.0786911  68.8484440 105.3105492
 108.9796774  68.7090905 105.0189489 108.1534886  69.0138895 106.2503669
 102.4129717  66.2251295 104.1558678 101.5433026  66.5184861 103.8841266
 102.6489197  66.8091740 104.8765941 112.2901346  75.2850454 104.2388206
 111.9986154  75.6480434 105.0751667 111.6773477  74.5717462 104.0601538
 113.4897028  72.8503333  96.7590777 114.3243919  73.2893137  96.9228337
 113.6256157  72.3741987  95.9399022 110.5388534  70.4083068 102.7068264
 111.0142656  70.6010714 101.8987116 109.6154099  70.4642254 102.4611648
  97.4272041  71.5707235  92.2899343  97.1818082  70.6669565  92.4879553
  97.5967955  71.5724386  91.3478821 105.1168750  62.4430912 101.6724098
 105.6350694  63.1791939 101.3470587 104.7623883  62.7494905 102.5070857
  96.6967688  67.3035593  89.7885504  96.0036933  67.3779948  89.1325540
  96.4519440  66.5395937  90.3107021 105.3681345  58.8631194  97.1924995
 105.6483098  58.1954383  97.8185421 106.1531951  59.0560290  96.6799659
 103.1714813  78.0390188  88.7550021 102.5988780  78.6580375  88.3020493
 103.7447607  78.5889550  89.2889943 109.2390203  67.2848828 100.9396570
 110.1907626  67.3846926 100.9608794 109.0693653  66.4927097 101.4494654
 107.2604582  64.3704411 101.1255971 106.6654514  64.6509424 100.4302459
 106.9754279  64.8598312 101.8972712 106.3912073  78.3227338  89.8858603
 107.3242746  78.2572900  90.0891479 106.3035286  79.1583605  89.4273136
 109.0200090  77.6393209  86.8462551 108.9413721  77.3053072  87.7398309
 109.8409756  78.1314977  86.8454023 111.7178281  70.5054948 100.0538870
 111.6854601  69.5670949 100.2398553 112.3278904  70.5838985  99.3204694
 103.5561612  69.3751001  86.0966074 104.5020716  69.2457209  86.1654492
 103.1775857  68.6365663  86.5735502 111.8672769  67.2965991 100.0997153
 111.3511818  66.5124448  99.9127082 112.7512718  66.9684708 100.2643672
 109.5283496  61.0407007  96.0592965 109.3308317  60.7322095  96.9436297
 110.1383202  61.7668646  96.1890895 117.5354831  71.5670955  99.1944906
 118.2658219  71.3056243  99.7552610 116.9261776  70.8299677  99.2346974
 115.6170128  69.7078817  99.7919358 114.8903291  69.5734782  99.1835849
 115.2017415  70.0155646 100.5976076 103.4400304  73.4268747 107.5566731
 104.3603314  73.6047346 107.7506777 103.4049887  72.4824792 107.4046430
 101.7404529  67.3000977  86.0320959 100.8335984  67.0034090  86.1083672
 102.0180510  67.0030795  85.1655245  92.6582469  68.6207341  96.4820005
  92.3385253  67.7672649  96.1894379  92.1115897  68.8355919  97.2377973
  96.4362377  71.3369782 100.1989512  96.6548386  72.2686890 100.2177546
  96.8488150  70.9777756 100.9844316 103.3566594  61.8437867  92.1865200
 102.5467323  61.4984952  92.5620446 104.0451011  61.5345411  92.7752812
 105.2857143  60.9215914  93.8089497 105.8388181  61.3411367  94.4679520
 105.5227229  59.9951662  93.8512453 101.3090242  66.9102987 109.5892261
 101.2086969  67.8597344 109.5204352 101.0911784  66.5821226 108.7168331
 100.5103313  64.1587913  86.1732938 101.3722477  64.4842811  86.4328755
 100.6953657  63.3719408  85.6606004  92.5270729  72.2410252  98.4513127
  91.8334201  71.8264205  97.9383081  93.2743720  72.2830789  97.8546546
 108.6635950  63.0316439  93.3168161 108.0834619  63.6901243  92.9346213
 108.3971882  62.2093784  92.9055579 107.1139516  62.4321497  95.5189481
 107.6139295  62.5438031  94.7103800 107.7575124  62.1282550  96.1590290
 101.1721512  70.3400126 108.4057322 100.6888594  71.1400486 108.6121211
 101.2582451  70.3508071 107.4524766  94.4407472  72.1728506  96.3279142
  94.4178160  72.2716193  95.3761025  94.7508108  73.0193657  96.6496308
  97.0994849  74.2304661 100.4425756  98.0538103  74.1988603 100.3755688
  96.9007373  73.7695285 101.2575982  97.6894232  72.8005777 103.0096554
  98.5087121  73.2949856 103.0331391  97.9631039  71.8837745 102.9814121
 107.4460828  65.1916529  92.3724509 106.5586683  65.4766180  92.1544704
 107.8614817  65.0310293  91.5251786 110.7975364  65.2163050  96.0878849
 111.5735754  65.7059503  96.3603465 110.0723498  65.6421105  96.5450718
 113.2347923  65.9290670  97.1452789 113.8292413  65.6886406  96.4346097
 113.3074506  65.2097800  97.7726325  95.4545078  79.7724281  97.4595954
  95.3199546  79.0124681  96.8933952  95.0377141  80.4965180  96.9924743
 106.5904041  74.9561204  86.4672529 107.2939891  75.1611207  87.0830185
 105.8666690  75.5237966  86.7321613 107.4201852  70.7071065  92.5874799
 107.3637053  71.1639617  91.7482432 107.9730194  69.9461750  92.4097642
 111.2306657  66.4960797  93.4124919 110.9743592  66.0957433  94.2433127
 110.6059526  67.2104591  93.2875058 115.5418995  69.2356870  95.9196210
 114.9818553  69.3050060  96.6927772 114.9362499  69.0597855  95.1995707
  98.6114204  80.6693598  97.6714397  98.4946588  81.6139030  97.5693087
  97.7906650  80.3667159  98.0600196 108.4990739  75.3943733  88.5170989
 109.3336343  74.9624932  88.3348464 108.3375082  75.2225747  89.4447884
 108.1536631  71.8975847  89.8827329 108.0985435  71.7320118  88.9415773
 107.5282686  72.6051879  90.0389518  92.9429146  67.1343911 103.7088751
  93.5888009  66.6242865 104.1975976  92.7346297  67.8712593 104.2832176
 105.4682538  74.2024758 109.2080891 106.3373698  74.3765411 108.8467526
 104.9889290  75.0219175 109.0856621 101.4632756  61.3983956  89.4612647
 101.4511426  62.3425795  89.6180918 102.3556178  61.2154101  89.1672108
  99.6368718  81.3221859 100.8870325 100.5395965  81.3545470 101.2036820
  99.4106088  80.3922310 100.9016661 101.3922320  80.0752846  97.5480404
 100.4417951  80.0754708  97.4344776 101.6954806  79.3285581  97.0316438
 105.2784876  57.9926732  93.7158584 104.5117272  57.4385219  93.8615266
 105.6895581  58.0648601  94.5772735  97.2826637  64.2811528 107.8063765
  98.1458098  63.9248333 108.0167090  96.7092048  63.9425423 108.4939169
 117.1275014  85.9113384  98.6126166 117.7653424  85.7920132  97.9089506
 117.0095857  86.8594228  98.6714118 113.9364720  85.8640812  98.5487691
 113.5983232  85.7481877  97.6608226 114.8054488  85.4631978  98.5288697
 114.4184503  87.0175664 104.5073896 114.4073144  86.6228462 103.6354400
 114.5805143  86.2841737 105.1007668 111.1391764  89.8012776 103.4553080
 110.8481630  90.7058407 103.3399747 111.7748749  89.8429304 104.1697150
 112.0647971  87.1789625 100.0454440 112.6611543  86.9545647  99.3311403
 112.1222943  86.4374370 100.6479888 111.6372999  84.6329060  87.8804631
 111.8898520  84.1110581  87.1188094 110.6997559  84.4695205  87.9831315
 116.6816282  83.6364838  95.6879374 117.4679372  83.2184261  95.3369791
 116.9454987  84.5410930  95.8561023 122.0824709  83.5740071  96.5912353
 122.8149881  83.0039288  96.8250182 121.3264065  83.1861672  97.0318858
 119.6050130  77.2861646 101.0506961 119.2733455  78.1557056 100.8268176
 119.0095743  76.9697930 101.7300992 113.3406316  81.0257213  88.7837044
 113.5080718  81.8937449  89.1507515 113.1503485  81.1884494  87.8598333
 116.0981649  89.4874192 100.4502874 115.7982372  90.3899230 100.3418681
 115.7532709  89.2206375 101.3024027 119.4978793  82.0056732  98.1300311
 118.5895670  81.9372140  97.8359072 119.4466389  82.4828677  98.9582137
 113.3195537  83.4814870  89.7683710 113.1995162  83.9271921  90.6069191
 112.6248125  83.8300188  89.2097249 113.5719659  83.4246377 106.0735209
 112.7952993  83.9840297 106.0638073 114.2110222  83.9103160 106.5950079
 121.3640439  80.2073170  99.9078185 120.7214820  80.5005703  99.2617980
 120.8595368  80.0926090 100.7131382 119.0180603  83.9536343  90.5964044
 119.9298459  84.1863730  90.4211742 118.5090250  84.5373387  90.0339123
 111.8266031  86.2331831 105.6353176 112.5680716  86.7716875 105.3587999
 111.1203017  86.8598119 105.7924727 117.3021371  88.3760971 104.2325337
 117.7104727  87.9343382 103.4879969 116.5798632  87.8013599 104.4859530
 113.6552441  83.3133578 101.6058894 114.5013636  83.7372991 101.7493543
 113.5951079  82.6567202 102.2997457 117.6250185  88.9362162  97.9877626
 116.9959048  89.1007876  97.2853694 117.2375848  89.3503771  98.7588590
 121.5039417  89.8716600  95.3421990 120.8190455  90.2515501  94.7919023
 121.5883267  90.4811926  96.0753937 116.8051886  80.9737946 103.2640068
 116.5612818  81.7280007 102.7274343 117.0811817  81.3523294 104.0987315
 118.7590349  87.5176559 101.9417333 118.9707244  88.1608318 101.2651714
 118.7120097  86.6838875 101.4739263 116.3616578  80.1294379  98.8453905
 115.5001057  80.4275633  99.1370643 116.3879013  80.3464778  97.9134938
 110.5627395  83.3871479 106.4368486 109.9326055  84.0687760 106.6703882
 110.4563483  83.2754560 105.4921624 119.8736177  90.3948514 100.1139691
 120.6953621  89.9928701  99.8322372 119.8698580  90.2916748 101.0655806
 113.6392780  89.9432557 102.2700401 113.7037213  90.4052965 103.1058573
 112.9303704  89.3129922 102.3982711 104.1410070  83.3073765  99.7949401
 104.3918109  84.1920775 100.0606976 104.6769619  83.1278367  99.0224492
 127.9642170  86.7387263  96.4624662 127.2105878  86.1694661  96.3068666
 128.0989711  86.7049927  97.4095297 109.8408138  77.6892245 108.7993737
 109.4475083  77.1358443 109.4741381 110.6574278  78.0002823 109.1900254
 112.7576099  79.1050124 106.3913993 113.4985812  79.7057277 106.3118456
 112.9894021  78.3627762 105.8332036 107.9017437  84.2906491 104.6692223
 107.7870952  83.3891748 104.9699322 107.0461954  84.5370188 104.3177039
 114.9809274  92.2324231 106.2679723 114.5373129  91.4460610 105.9500628
 115.6426488  92.4203382 105.6023614 117.0790512  92.5127031 104.2961125
 117.0608988  93.3335912 103.8041394 118.0010432  92.3881106 104.5211266
 113.5363567  90.0271161 105.1384633 114.0691903  89.2659449 104.9083941
 113.0077648  89.7344813 105.8808788 116.7033262  75.1331227 100.6678275
 116.3597531  76.0232868 100.5917385 117.0712224  74.9432884  99.8047860
 116.6683544  85.1239838  89.1750710 116.1530168  85.8944442  89.4139097
 116.3960853  84.4504974  89.7983771 114.2530655  79.9689539  94.2335948
 113.3972252  79.5796389  94.0541587 114.6657607  80.0481499  93.3735734
 115.7829802  77.5035882  98.6327508 115.2794598  77.4666017  97.8195313
 116.0760409  78.4128625  98.6924165 112.0272688  77.5874612  97.6393690
 112.8925685  77.3917420  97.2799579 112.0950197  77.3584963  98.5663047
 121.6417818  87.8772192  91.1103883 120.8647261  87.5383352  90.6659046
 122.3209299  87.8824816  90.4358849 116.4569847  82.9966930  91.0010491
 116.1519983  83.3113079  91.8520634 117.4100290  83.0748350  91.0437824
 119.8809125  87.3506174  97.7670491 119.2232800  88.0405435  97.8550620
 120.6849525  87.7402606  98.1104478 109.6335007  79.8176819  95.0110057
 110.2078759  79.5952001  94.2783250 110.2205989  79.8865514  95.7638658
 118.6914584  85.7050546  95.8174433 119.2046466  86.3380538  96.3196143
 119.3415808  85.1051742  95.4517793 109.9604594  81.8481281  89.0305942
 109.1241906  82.1855967  89.3515217 109.8209364  81.7130260  88.0933079
 111.9357675  76.6918068  93.7385126 111.2822087  76.3767086  93.1141741
 111.8938149  76.0693809  94.4644949 115.1695415  83.1800002  98.0632774
 114.2517976  83.4014949  97.9054462 115.5855559  83.2546312  97.2044481
 115.9530463  84.5791418  93.1935454 116.7002282  85.0912815  92.8842576
 116.2222052  84.2575470  94.0539848 118.4009300  81.6148534  95.1754243
 117.6632057  81.1025920  95.5064486 118.6536073  81.1748915  94.3637520
 118.5020927  74.3924786  95.7696013 118.8079804  73.5322149  95.4821928
 119.2273532  74.9842406  95.5695006 116.3108579  83.7697463 102.8677476
 116.6657966  83.9968936 103.7271942 116.9580710  84.1015840 102.2454732
 122.0406316  86.8915899  93.5726805 121.9024214  87.0817495  92.6447995
 121.6842534  87.6535282  94.0294857 110.2048442  80.8773994  99.6523817
 110.8447821  80.7362753  98.9546781 109.3725972  80.5908508  99.2762419
 122.0675695  88.9592426  98.5838077 122.5012202  88.8667715  99.4321131
 122.7807276  88.9349927  97.9458093 108.6801983  82.2612076 101.5995629
 109.3525037  82.0529439 100.9508278 107.8531770  82.0634162 101.1600861
 122.9291245  89.0016127 101.1170962 123.1227135  89.9061937 101.3630237
 122.8291863  88.5423546 101.9509547 114.5827555  78.8874017 103.6161290
 113.9355470  79.5863967 103.5225766 115.3528571  79.3210161 103.9837538
 117.9906353  89.1522869 106.6911843 117.8391860  88.9233421 105.7741927
 117.9811033  90.1093471 106.7043188 114.7591690  86.7254782 101.6758109
 115.6883750  86.8765942 101.5027077 114.3382720  86.8138803 100.8206756
 109.0829481  85.5354679 102.3598066 108.9449279  84.8034918 102.9609605
 109.9934404  85.4463579 102.0782254 118.0444428  87.4743084  87.1082544
 117.4273599  86.7489912  87.0115597 117.5760917  88.2352444  86.7649619
 111.7111781  85.2474639 101.8481746 112.4211400  84.6067831 101.8068364
 111.6681089  85.4987534 102.7707926 119.6998560  92.1841992 104.7688325
 119.6411106  91.5001212 104.1018908 120.1018078  92.9260982 104.3168951
 110.4240715  82.2339857 103.6677385 109.8878072  81.7830595 104.3198981
 109.8357424  82.3685765 102.9247849 109.8342974  81.6928508  86.2303849
 108.9572441  81.5717309  85.8666095 110.3100727  80.9014586  85.9782737
 119.7015967  90.1481576 103.0002304 118.8142746  89.8107498 103.1228703
 120.2714518  89.4164607 103.2371070 106.1579837  81.3695864 100.7530380
 106.0738025  80.7621534 100.0180789 105.3362543  81.8604883 100.7539876
 116.3303550  79.8549428  96.1200575 116.8272250  79.1019390  95.8001645
 115.5590532  79.8913744  95.5543784 124.1833308  85.5589793  97.7618866
 124.1723184  86.4414509  97.3912799 123.3150687  85.2061344  97.5673403
 112.9138519  81.9966811  95.8472259 112.5436307  81.4437851  96.5353165
 113.4097612  81.3924944  95.2947259 120.8005882  84.4538434  94.2289032
 121.2666335  85.2866426  94.1549335 121.2513383  83.9883416  94.9334291
 110.7427718  92.4564306 102.9427277 111.4437177  93.0900789 103.0956671
 110.2722833  92.7979037 102.1822916 118.7722545  76.8219021  98.2679933
 117.8585625  77.0523248  98.4362140 119.2015647  76.9057465  99.1193966
 118.5429004  85.0108913 100.7679827 117.8900454  85.2584821 100.1132280
 118.9209384  84.1973051 100.4342305 114.5916577  85.7528724 107.2545865
 113.9157214  85.6522854 107.9248240 115.4144211  85.5967938 107.7181862
 113.3339360  97.0595652 101.4903481 113.8857668  97.2227273 102.2552566
 113.6745553  97.6500090 100.8183505 108.3103853  79.4070802 102.0925365
 108.3745179  80.2685632 101.6802763 108.2470973  78.7944803 101.3597724
 107.7856125  81.4793934 105.7398400 108.4128164  81.0971011 106.3535924
 106.9284044  81.2608136 106.1054092 118.1850234  91.8856909 107.3452135
 118.7290138  92.4986868 106.8507090 117.6037079  92.4436488 107.8619148
 104.5621668  83.2870363  91.6716754 104.8575109  82.3781042  91.6183808
 103.6609704  83.2658103  91.3497757 118.5342655  92.8086647 100.1046713
 117.5872991  92.6891999 100.0325040 118.8825428  91.9209145 100.1872974
 110.8942229  78.6980786 103.9284955 111.4176630  78.9443083 104.6911264
 110.6754562  79.5300821 103.5088092 106.2909510  80.9684461  91.7956080
 105.9622216  80.0881840  91.6131185 106.6448880  80.9132130  92.6832469
 109.4051333  81.2557431  92.1631557 109.7447405  81.7843352  91.4410166
 109.8523453  81.5937837  92.9390124 119.1423210  93.4267922  97.3915938
 120.0669758  93.2210784  97.2540389 118.9738514  93.1784323  98.3005279
 112.0994774  79.6394481 101.6134625 111.7591594  78.8402294 102.0155305
 111.3933780  79.9396192 101.0411458 112.7511245  76.7243794 100.0661948
 113.5737315  76.2504272  99.9440839 112.9949309  77.5034278 100.5660635
 111.3919480  79.7532052  90.3624850 112.1127842  80.1313305  89.8588567
 110.7684784  80.4720929  90.4659828 115.5350603  80.4577201  91.2983182
 115.7514217  81.3401839  90.9972010 115.0544670  80.0663415  90.5688824
 112.1346207  80.4065462  97.9234816 112.1207776  79.5106556  97.5867114
 112.8518635  80.4136126  98.5573102 113.9872338  80.8402803  99.9687944
 113.7290116  81.7619873  99.9672274 113.4557378  80.4433237 100.6588408
 111.5383103  79.2879843  93.1922387 111.6599014  78.3596489  93.3913274
 111.2485145  79.3018529  92.2800702 114.4074293  76.9734753  96.3289106
 114.4295990  77.0374086  95.3741086 114.8242352  76.1339262  96.5229613
 124.7857918  86.7090013  94.3668329 125.2289064  85.9597338  93.9687452
 123.9084428  86.7000149  93.9842061 119.9193699  93.2620354  89.8474928
 120.6144604  93.8827047  90.0662242 120.2616849  92.4115705  90.1227305
 121.8185122  90.7120060  91.3762258 122.3436446  91.0507332  90.6511578
 121.7307475  89.7767075  91.1925393 111.0224183  80.8011840 107.4012319
 111.0712338  81.6773963 107.0190089 111.5646697  80.2589233 106.8283962
 121.5079028  91.3452963 106.6813456 120.7174572  91.3277102 106.1417956
 121.2712383  91.8841257 107.4362493 121.6276903  88.1945430 103.9946185
 121.6774908  88.0295437 104.9361708 121.5190827  87.3272689 103.6044066
 118.9180666  84.1776358 105.3105492 119.8190528  84.0382823 105.0189489
 118.9928640  84.3430813 106.2503669 113.2523471  81.5543212 104.1558678
 112.3826780  81.8476779 103.8841266 113.4882951  82.1383657 104.8765941
 123.1295100  90.6142371 104.2388206 122.8379908  90.9772352 105.0751667
 122.5167231  89.9009380 104.0601538 124.3290782  88.1795251  96.7590777
 125.1637674  88.6185055  96.9228337 124.4649911  87.7033904  95.9399022
 121.3782288  85.7374986 102.7068264 121.8536410  85.9302632 101.8987116
 120.4547854  85.7934172 102.4611648 115.9562505  77.7722829 101.6724098
 116.4744449  78.5083856 101.3470587 115.6017638  78.0786823 102.5070857
 107.5361443  82.6327511  89.7885504 106.8430687  82.7071866  89.1325540
 107.2913194  81.8687854  90.3107021 116.2075099  74.1923112  97.1924995
 116.4876853  73.5246301  97.8185421 116.9925706  74.3852208  96.6799659
 120.0783957  82.6140746 100.9396570 121.0301380  82.7138844 100.9608794
 119.9087408  81.8219014 101.4494654 118.0998337  79.6996329 101.1255971
 117.5048269  79.9801342 100.4302459 117.8148034  80.1890230 101.8972712
 117.2305827  93.6519256  89.8858603 118.1636500  93.5864818  90.0891479
 117.1429040  94.4875523  89.4273136 119.8593844  92.9685126  86.8462551
 119.7807476  92.6344990  87.7398309 120.6803511  93.4606894  86.8454023
 122.5572035  85.8346866 100.0538870 122.5248355  84.8962866 100.2398553
 123.1672659  85.9130902  99.3204694 114.3955366  84.7042919  86.0966074
 115.3414471  84.5749127  86.1654492 114.0169611  83.9657581  86.5735502
 122.7066524  82.6257909 100.0997153 122.1905572  81.8416366  99.9127082
 123.5906472  82.2976626 100.2643672 120.3677251  76.3698925  96.0592965
 120.1702072  76.0614013  96.9436297 120.9776956  77.0960564  96.1890895
 128.3748585  86.8962872  99.1944906 129.1051974  86.6348161  99.7552610
 127.7655531  86.1591594  99.2346974 126.4563882  85.0370735  99.7919358
 125.7297046  84.9026700  99.1835849 126.0411169  85.3447564 100.5976076
 114.2794059  88.7560665 107.5566731 115.1997068  88.9339264 107.7506777
 114.2443642  87.8116710 107.4046430 112.5798283  82.6292895  86.0320959
 111.6729739  82.3326008  86.1083672 112.8574264  82.3322713  85.1655245
 103.4976224  83.9499258  96.4820005 103.1779008  83.0964567  96.1894379
 102.9509652  84.1647837  97.2377973 114.1960349  77.1729785  92.1865200
 113.3861077  76.8276870  92.5620446 114.8844766  76.8637328  92.7752812
 116.1250897  76.2507832  93.8089497 116.6781936  76.6703285  94.4679520
 116.3620984  75.3243580  93.8512453 112.1483996  82.2394905 109.5892261
 112.0480723  83.1889262 109.5204352 111.9305538  81.9113144 108.7168331
 111.3497068  79.4879830  86.1732938 112.2116232  79.8134729  86.4328755
 111.5347412  78.7011326  85.6606004 119.5029704  78.3608357  93.3168161
 118.9228373  79.0193161  92.9346213 119.2365637  77.5385701  92.9055579
 117.9533271  77.7613414  95.5189481 118.4533049  77.8729949  94.7103800
 118.5968879  77.4574467  96.1590290 112.0115266  85.6692044 108.4057322
 111.5282348  86.4692404 108.6121211 112.0976206  85.6799989 107.4524766
 107.9388604  89.5596579 100.4425756 108.8931858  89.5280521 100.3755688
 107.7401128  89.0987202 101.2575982 108.5287986  88.1297695 103.0096554
 109.3480875  88.6241773 103.0331391 108.8024794  87.2129663 102.9814121
 118.2854582  80.5208447  92.3724509 117.3980437  80.8058098  92.1544704
 118.7008571  80.3602210  91.5251786 121.6369118  80.5454968  96.0878849
 122.4129509  81.0351420  96.3603465 120.9117253  80.9713022  96.5450718
 124.0741677  81.2582587  97.1452789 124.6686168  81.0178323  96.4346097
 124.1468261  80.5389718  97.7726325 117.4297796  90.2853122  86.4672529
 118.1333646  90.4903124  87.0830185 116.7060445  90.8529884  86.7321613
 118.2595606  86.0362983  92.5874799 118.2030807  86.4931534  91.7482432
 118.8123949  85.2753668  92.4097642 122.0700412  81.8252715  93.4124919
 121.8137346  81.4249351  94.2433127 121.4453280  82.5396509  93.2875058
 126.3812750  84.5648788  95.9196210 125.8212308  84.6341977  96.6927772
 125.7756253  84.3889773  95.1995707 119.3384493  90.7235651  88.5170989
 120.1730097  90.2916849  88.3348464 119.1768836  90.5517665  89.4447884
 118.9930385  87.2267764  89.8827329 118.9379189  87.0612036  88.9415773
 118.3676441  87.9343797  90.0389518 103.7822900  82.4635829 103.7088751
 104.4281764  81.9534783 104.1975976 103.5740051  83.2004510 104.2832176
 116.3076293  89.5316676 109.2080891 117.1767452  89.7057328 108.8467526
 115.8283044  90.3511093 109.0856621 112.3026511  76.7275873  89.4612647
 112.2905181  77.6717713  89.6180918 113.1949933  76.5446019  89.1672108
 116.1178630  73.3218650  93.7158584 115.3511026  72.7677137  93.8615266
 116.5289335  73.3940519  94.5772735 108.1220391  79.6103446 107.8063765
 108.9851853  79.2540251 108.0167090 107.5485802  79.2717341 108.4939169
 127.9668768 101.2405302  98.6126166 128.6047178 101.1212049  97.9089506
 127.8489611 102.1886146  98.6714118 124.7758475 101.1932730  98.5487691
 124.4376986 101.0773795  97.6608226 125.6448243 100.7923895  98.5288697
 120.6345290 103.0468207  94.5384582 120.0710155 102.9558143  93.7700869
 120.5197685 102.2268111  95.0187074 125.2578258 102.3467582 104.5073896
 125.2466898 101.9520380 103.6354400 125.4198897 101.6133654 105.1007668
 118.1809722 104.5419398  97.3768802 118.9731014 104.2010223  96.9615101
 118.4206372 104.6514373  98.2970956 126.2144849 106.7139174  89.8499047
 125.5632829 107.2993255  89.4633060 127.0089212 107.2445369  89.9094084
 120.1400476 103.8028311  90.2486181 120.9131352 103.2557298  90.1099057
 120.4925875 104.6672561  90.4600642 121.9785519 105.1304694 103.4553080
 121.6875385 106.0350325 103.3399747 122.6142503 105.1721221 104.1697150
 122.9041726 102.5081542 100.0454440 123.5005298 102.2837565  99.3311403
 122.9616697 101.7666288 100.6479888 122.4766754  99.9620978  87.8804631
 122.7292275  99.4402499  87.1188094 121.5391313  99.7987123  87.9831315
 127.5210037  98.9656756  95.6879374 128.3073126  98.5476179  95.3369791
 127.7848741  99.8702848  95.8561023 127.6920114 104.4029606  90.3868031
 127.0565947 104.4764233  91.0988936 127.3617521 104.9923205  89.7087110
 132.9218464  98.9031989  96.5912353 133.6543636  98.3331206  96.8250182
 132.1657820  98.5153590  97.0318858 122.1963043 101.8649083  90.0829006
 122.0799301 101.1893987  90.7510090 122.3065303 101.3781457  89.2661159
 124.5394584 101.3259231  93.7875695 124.1752791 100.7989852  94.4988617
 125.3961700 100.9357700  93.6142181 130.4443884  92.6153563 101.0506961
 130.1127209  93.4848974 100.8268176 129.8489498  92.2989847 101.7300992
 124.1800071  96.3549130  88.7837044 124.3474473  97.2229367  89.1507515
 123.9897240  96.5176412  87.8598333 126.9375404 104.8166109 100.4502874
 126.6376127 105.7191148 100.3418681 126.5926463 104.5498292 101.3024027
 120.3887885 101.2679906  96.4839578 119.4638382 101.1356120  96.6917270
 120.6372298 102.0474125  96.9809521 130.3372548  97.3348649  98.1300311
 129.4289425  97.2664058  97.8359072 130.2860143  97.8120594  98.9582137
 124.1589291  98.8106788  89.7683710 124.0388917  99.2563839  90.6069191
 123.4641880  99.1592105  89.2097249 117.7496696 100.9113180  97.3183367
 117.8789077 101.1647659  98.2322779 117.0694148 101.5040888  96.9988023
 121.9196184 111.5810430  93.4173842 121.8420213 112.5318255  93.4962322
 121.3157827 111.2356302  94.0748768 124.4113413  98.7538295 106.0735209
 123.6346747  99.3132215 106.0638073 125.0503976  99.2395078 106.5950079
 132.2034194  95.5365088  99.9078185 131.5608574  95.8297621  99.2617980
 131.6989122  95.4218008 100.7131382 129.8574358  99.2828261  90.5964044
 130.7692214  99.5155648  90.4211742 129.3484005  99.8665305  90.0339123
 122.6659786 101.5623748 105.6353176 123.4074470 102.1008792 105.3587999
 121.9596771 102.1890037 105.7924727 128.1415125 103.7052889 104.2325337
 128.5498481 103.2635299 103.4879969 127.4192387 103.1305516 104.4859530
 124.4946195  98.6425496 101.6058894 125.3407391  99.0664909 101.7493543
 124.4344833  97.9859120 102.2997457 128.4643940 104.2654079  97.9877626
 127.8352802 104.4299794  97.2853694 128.0769602 104.6795689  98.7588590
 132.3433172 105.2008517  95.3421990 131.6584210 105.5807419  94.7919023
 132.4277021 105.8103844  96.0753937 127.6445641  96.3029864 103.2640068
 127.4006573  97.0571924 102.7274343 127.9205571  96.6815212 104.0987315
 129.5984103 102.8468476 101.9417333 129.8100999 103.4900236 101.2651714
 129.5513852 102.0130793 101.4739263 127.2010332  95.4586297  98.8453905
 126.3394811  95.7567550  99.1370643 127.2272767  95.6756696  97.9134938
 124.0171902 104.0028487  95.2527711 124.4810247 104.2816190  94.4632334
 123.7528700 103.1011932  95.0700802 120.9095983 103.5499969  98.1907474
 121.4797340 103.9787237  97.5524959 121.5004095 103.2682554  98.8891660
 122.9540788 100.1251640  92.0617276 123.6564831 100.5772684  92.5291203
 122.6221416  99.4835459  92.6897169 121.4021149  98.7163396 106.4368486
 120.7719810  99.3979677 106.6703882 121.2957237  98.6046478 105.4921624
 116.6966122  98.3835193  97.3634410 115.9065176  98.6392721  96.8874520
 117.1877369  99.1983530  97.4686450 130.7129931 105.7240432 100.1139691
 131.5347375 105.3220619  99.8322372 130.7092334 105.6208666 101.0655806
 118.6480867  98.7479772  94.3217886 117.8512030  98.8598466  94.8401382
 118.4206459  99.0866424  93.4558777 124.4786535 105.2724475 102.2700401
 124.5430967 105.7344882 103.1058573 123.7697459 104.6421840 102.3982711
 114.9803825  98.6365683  99.7949401 115.2311863  99.5212693 100.0606976
 115.5163373  98.4570285  99.0224492 138.8035924 102.0679180  96.4624662
 138.0499633 101.4986578  96.3068666 138.9383466 102.0341845  97.4095297
 124.1934552 106.9392582  92.1379381 124.0580227 107.7844118  92.5664229
 124.7344365 107.1411860  91.3745315 120.6801892  93.0184162 108.7993737
 120.2868838  92.4650361 109.4741381 121.4968032  93.3294741 109.1900254
 117.6463950 104.4568021  92.7107306 118.1588470 105.2511271  92.8612871
 118.2986663 103.7594311  92.6440908 119.4558835 107.5733777  94.7930060
 119.6325463 108.4951742  94.6051044 120.2515668 107.2592196  95.2224439
 123.5969853  94.4342041 106.3913993 124.3379566  95.0349195 106.3118456
 123.8287776  93.6919679 105.8332036 118.7411191  99.6198409 104.6692223
 118.6264706  98.7183666 104.9699322 117.8855709  99.8662105 104.3177039
 125.8203029 107.5616149 106.2679723 125.3766883 106.7752528 105.9500628
 126.4820242 107.7495300 105.6023614 120.5790150 109.0911951 100.7940402
 121.1297575 108.9629014 100.0217396 119.7401626 109.3906840 100.4435295
 127.9184267 107.8418949 104.2961125 127.9002742 108.6627830 103.8041394
 128.8404187 107.7173024 104.5211266 124.3757321 105.3563078 105.1384633
 124.9085658 104.5951367 104.9083941 123.8471402 105.0636730 105.8808788
 127.5427016  90.4623144 100.6678275 127.1991285  91.3524786 100.5917385
 127.9105979  90.2724802  99.8047860 127.5077299 100.4531755  89.1750710
 126.9923922 101.2236360  89.4139097 127.2354607  99.7796892  89.7983771
 125.0924410  95.2981456  94.2335948 124.2366006  94.9088307  94.0541587
 125.5051362  95.3773417  93.3735734 126.6223556  92.8327800  98.6327508
 126.1188352  92.7957935  97.8195313 126.9154163  93.7420542  98.6924165
 122.8666442  92.9166529  97.6393690 123.7319439  92.7209338  97.2799579
 122.9343951  92.6876881  98.5663047 132.4811573 103.2064110  91.1103883
 131.7041016 102.8675270  90.6659046 133.1603054 103.2116733  90.4358849
 127.2963602  98.3258848  91.0010491 126.9913738  98.6404997  91.8520634
 128.2494044  98.4040267  91.0437824 125.7410034 104.4849071  92.6503445
 125.2131395 103.7501830  92.3376683 125.2397537 105.2623747  92.4043413
 130.7202880 102.6798091  97.7670491 130.0626554 103.3697353  97.8550620
 131.5243279 103.0694523  98.1104478 120.4728761  95.1468737  95.0110057
 121.0472513  94.9243919  94.2783250 121.0599744  95.2157432  95.7638658
 129.5308339 101.0342464  95.8174433 130.0440220 101.6672456  96.3196143
 130.1809563 100.4343660  95.4517793 120.7998349  97.1773198  89.0305942
 119.9635661  97.5147885  89.3515217 120.6603118  97.0422178  88.0933079
 122.7751429  92.0209986  93.7385126 122.1215841  91.7059003  93.1141741
 122.7331903  91.3985727  94.4644949 123.8862634 102.3029281  85.6538418
 122.9789696 102.0718535  85.8529567 124.3833666 101.5066900  85.8412400
 126.7930713 111.0126788  88.5735104 126.1192412 111.3158485  89.1820062
 127.1796535 111.8155869  88.2240561 126.0089169  98.5091920  98.0632774
 125.0911731  98.7306867  97.9054462 126.4249313  98.5838230  97.2044481
 126.7924217  99.9083335  93.1935454 127.5396036 100.4204733  92.8842576
 127.0615807  99.5867388  94.0539848 125.0650867 102.4041876  90.1762408
 124.1562087 102.1200909  90.2734878 125.0945951 102.8240955  89.3165715
 130.2970135 106.0148466  93.9453576 129.8432462 105.1739375  94.0018766
 129.6664102 106.6509864  94.2828356 129.2403054  96.9440452  95.1754243
 128.5025811  96.4317838  95.5064486 129.4929828  96.5040833  94.3637520
 128.7403074 107.8524962  94.8803394 129.0326048 108.4130019  94.1615760
 129.2501695 108.1453523  95.6356553 129.3414682  89.7216704  95.7696013
 129.6473559  88.8614067  95.4821928 130.0667287  90.3134324  95.5695006
 123.6135761 100.0170497  96.2772204 123.6684371  99.0644333  96.2014680
 122.8026963 100.1729936  96.7613502 124.7626955 103.9450620  87.5150487
 124.3246385 103.2286479  87.0556124 125.5037396 104.1726735  86.9535578
 121.5528121  98.6347556  94.0362582 120.7395987  98.9341727  94.4427775
 122.0487116  98.2403245  94.7537065 123.7036699 108.6305313  95.9696847
 123.6612878 108.8566160  95.0405379 124.6199398 108.3968688  96.1182648
 127.1502333  99.0989381 102.8677476 127.5051721  99.3260854 103.7271942
 127.7974464  99.4307758 102.2454732 132.8800070 102.2207817  93.5726805
 132.7417969 102.4109413  92.6447995 132.5236289 102.9827200  94.0294857
 121.0442196  96.2065912  99.6523817 121.6841575  96.0654671  98.9546781
 120.2119727  95.9200425  99.2762419 132.9069450 104.2884344  98.5838077
 133.3405956 104.1959633  99.4321131 133.6201030 104.2641844  97.9458093
 121.8202500 105.5068342  95.7658810 122.6143099 105.0118662  95.5641385
 121.1094192 104.9786205  95.4026515 126.6397345 107.8886438 100.1171178
 126.6934367 108.4577374 100.8848893 125.7712126 108.0588323  99.7525215
 118.1285264  99.6511424  91.8418563 117.1982852  99.5895880  92.0588525
 118.2242735  99.1287377  91.0455204 118.0470813  96.1766237  94.4296804
 118.3077630  97.0911570  94.3205965 118.8687985  95.7090679  94.5793417
 119.5195738  97.5903994 101.5995629 120.1918791  97.3821356 100.9508278
 118.6925524  97.3926080 101.1600861 133.7684999 104.3308044 101.1170962
 133.9620889 105.2353855 101.3630237 133.6685617 103.8715463 101.9509547
 125.4221310  94.2165935 103.6161290 124.7749225  94.9155885 103.5225766
 126.1922325  94.6502079 103.9837538 128.8300108 104.4814787 106.6911843
 128.6785614 104.2525339 105.7741927 128.8204787 105.4385389 106.7043188
 125.5985444 102.0546700 101.6758109 126.5277504 102.2057859 101.5027077
 125.1776474 102.1430721 100.8206756 124.3973776 106.0797364  99.4456647
 124.2584862 105.7116149 100.3182585 123.6088372 106.5945004  99.2740605
 124.9921928 111.1806461  90.7882184 125.1673684 110.7094504  91.6027806
 124.3054716 111.8072227  91.0163444 125.9478991 105.4578967  96.8345485
 125.6128824 105.4179737  97.7303135 125.4482937 104.7923683  96.3615895
 119.9223235 100.8646597 102.3598066 119.7843033 100.1326836 102.9609605
 120.8328159 100.7755497 102.0782254 128.8838183 102.8035001  87.1082544
 128.2667353 102.0781829  87.0115597 128.4154671 103.5644362  86.7649619
 122.5505536 100.5766556 101.8481746 123.2605154  99.9359749 101.8068364
 122.5074844 100.8279451 102.7707926 130.5392314 107.5133910 104.7688325
 130.4804861 106.8293130 104.1018908 130.9411833 108.2552900 104.3168951
 121.2634470  97.5631774 103.6677385 120.7271827  97.1122513 104.3198981
 120.6751178  97.6977683 102.9247849 119.5583013 114.3295824  97.5622044
 119.7979612 114.9614348  98.2401062 118.7152210 113.9783864  97.8487403
 120.6736729  97.0220426  86.2303849 119.7966195  96.9009226  85.8666095
 121.1494482  96.2306504  85.9782737 130.5409722 105.4773494 103.0002304
 129.6536501 105.1399415 103.1228703 131.1108273 104.7456525 103.2371070
 116.9973591  96.6987782 100.7530380 116.9131780  96.0913451 100.0180789
 116.1756297  97.1896800 100.7539876 124.0710875 110.1374946  99.9663548
 123.9981047 110.9429917 100.4782852 123.6288268 110.3366912  99.1411569
 123.8600655 109.3746716  93.4766369 123.0768177 109.9168396  93.5704594
 124.5593400 109.8920696  93.8760610 127.1697305  95.1841345  96.1200575
 127.6666004  94.4311308  95.8001645 126.3984286  95.2205662  95.5543784
 135.0227062 100.8881711  97.7618866 135.0116939 101.7706426  97.3912799
 134.1544442 100.5353262  97.5673403 126.5309559 110.0361780 102.1221706
 127.2437531 110.6709245 102.0497608 126.0399587 110.1325646 101.3061708
 128.2527086 103.9413033  93.6938998 127.3183364 104.0614495  93.5243702
 128.4303754 103.0385499  93.4299008 123.7532274  97.3258728  95.8472259
 123.3830061  96.7729769  96.5353165 124.2491366  96.7216862  95.2947259
 131.6399637  99.7830352  94.2289032 132.1060089 100.6158344  94.1549335
 132.0907137  99.3175334  94.9334291 121.5821472 107.7856223 102.9427277
 122.2830932 108.4192706 103.0956671 121.1116587 108.1270955 102.1822916
 129.7075868 106.1274173  91.2275184 129.9835712 106.0130768  92.1369058
 128.8380367 105.7291658  91.1887357 129.6116300  92.1510939  98.2679933
 128.6979379  92.3815166  98.4362140 130.0409401  92.2349383  99.1193966
 129.3822758 100.3400831 100.7679827 128.7294208 100.5876738 100.1132280
 129.7603138  99.5264969 100.4342305 126.3429932 110.3760524  94.8707998
 126.5252327 109.5582180  95.3335750 127.1662918 110.5928216  94.4332888
 126.6772098 109.3028709  92.1323046 127.2059864 108.7921164  91.5193208
 126.9400317 108.9871239  92.9968579 125.4310331 101.0820642 107.2545865
 124.7550968 100.9814771 107.9248240 126.2537965 100.9259856 107.7181862
 117.1789190 107.3192579  99.8758380 117.7642627 106.5736266 100.0086284
 116.9814029 107.6296535 100.7595044 120.0327845 110.3543826  94.8920822
 119.3638221 110.8389954  94.4084862 119.8940715 110.6013046  95.8064201
 124.1733114 112.3887569 101.4903481 124.7251422 112.5519191 102.2552566
 124.5139308 112.9792007 100.8183505 119.1497607  94.7362719 102.0925365
 119.2138934  95.5977550 101.6802763 119.0864728  94.1236721 101.3597724
 118.6249880  96.8085852 105.7398400 119.2521919  96.4262929 106.3535924
 117.7677799  96.5900054 106.1054092 129.0243988 107.2148827 107.3452135
 129.5683892 107.8278785 106.8507090 128.4430833 107.7728405 107.8619148
 115.4015423  98.6162281  91.6716754 115.6968864  97.7072959  91.6183808
 114.5003458  98.5950020  91.3497757 127.3101501 110.3369545  98.4767163
 127.1852641 109.5359285  97.9678108 127.9680592 110.8315738  97.9881133
 118.9309670  96.6918277  97.6544303 118.2096255  97.3054245  97.5151776
 119.7202925  97.2276042  97.5760949 129.3736410 108.1378565 100.1046713
 128.4266745 108.0183916 100.0325040 129.7219183 107.2501063 100.1872974
 121.7335983  94.0272704 103.9284955 122.2570385  94.2735000 104.6911264
 121.5148316  94.8592739 103.5088092 117.1303264  96.2976379  91.7956080
 116.8015970  95.4173757  91.6131185 117.4842635  96.2424047  92.6832469
 126.3782843 107.9331281  96.3051065 126.2307805 107.0047989  96.4858635
 127.2036337 107.9551372  95.8208140 120.2445087  96.5849348  92.1631557
 120.5841160  97.1135270  91.4410166 120.6917208  96.9229754  92.9390124
 129.9816965 108.7559840  97.3915938 130.9063512 108.5502701  97.2540389
 129.8132268 108.5076241  98.3005279 122.9388528  94.9686399 101.6134625
 122.5985349  94.1694212 102.0155305 122.2327534  95.2688110 101.0411458
 123.5905000  92.0535711 100.0661948 124.4131069  91.5796190  99.9440839
 123.8343064  92.8326195 100.5660635 122.2313234  95.0823970  90.3624850
 122.9521597  95.4605223  89.8588567 121.6078539  95.8012847  90.4659828
 126.3744357  95.7869119  91.2983182 126.5907972  96.6693757  90.9972010
 125.8938425  95.3955332  90.5688824 121.1143579  98.7454832  97.8753927
 120.9688159  99.0595135  98.7678208 120.6368782  99.3639732  97.3224826
 122.9739962  95.7357380  97.9234816 122.9601530  94.8398473  97.5867114
 123.6912390  95.7428044  98.5573102 124.8266092  96.1694720  99.9687944
 124.5683870  97.0911791  99.9672274 124.2951133  95.7725155 100.6588408
 129.7712281 109.2745507  92.7478029 129.9449159 108.7091930  91.9951882
 130.2641172 110.0746402  92.5657519 115.5889241 101.2860177 100.8141588
 115.0442709 102.0619984 100.9461862 116.4668591 101.6330981 100.6560709
 122.3776858  94.6171760  93.1922387 122.4992769  93.6888407  93.3913274
 122.0878900  94.6310446  92.2800702 125.2468048  92.3026671  96.3289106
 125.2689745  92.3666004  95.3741086 125.6636107  91.4631179  96.5229613
 135.6251672 102.0381930  94.3668329 136.0682818 101.2889256  93.9687452
 134.7478183 102.0292067  93.9842061 130.7587454 108.5912272  89.8474928
 131.4538358 109.2118965  90.0662242 131.1010604 107.7407623  90.1227305
 116.3755263 100.4130073 103.7071745 115.6336999 100.5612708 104.2936375
 116.0548007 100.6738338 102.8438494 132.6578877 106.0411977  91.3762258
 133.1830201 106.3799250  90.6511578 132.5701229 105.1058993  91.1925393
 124.3198925 109.9546051 103.5052135 124.6286052 109.7095198 104.3774835
 125.1174407 110.1592689 103.0171005 124.3419537 112.1083961  95.7357511
 123.9024528 111.6160339  96.4290368 125.0927654 111.5656928  95.4949587
 116.8211876 108.2995502  95.7382140 117.6469896 107.9999273  95.3580783
 116.4705928 107.5303124  96.1871928 121.7893410 107.6521970  97.8079813
 121.1673419 106.9892675  97.5082041 122.4598277 107.6783102  97.1253461
 121.8617937  96.1303758 107.4012319 121.9106093  97.0065881 107.0190089
 122.4040451  95.5881151 106.8283962 132.3472783 106.6744881 106.6813456
 131.5568326 106.6569020 106.1417956 132.1106137 107.2133175 107.4362493
 132.4670658 103.5237347 103.9946185 132.5168663 103.3587355 104.9361708
 132.3584581 102.6564606 103.6044066 121.3506917 106.2025893  91.2838274
 121.4995037 106.8861357  90.6304946 122.1573360 106.1830983  91.7987729
 129.7574420  99.5068275 105.3105492 130.6584283  99.3674740 105.0189489
 129.8322395  99.6722730 106.2503669 124.0917226  96.8835130 104.1558678
 123.2220535  97.1768696 103.8841266 124.3276706  97.4675575 104.8765941
 133.9688855 105.9434289 104.2388206 133.6773663 106.3064269 105.0751667
 133.3560986 105.2301297 104.0601538 135.1684537 103.5087169  96.7590777
 136.0031428 103.9476973  96.9228337 135.3043666 103.0325822  95.9399022
 132.2176043 101.0666904 102.7068264 132.6930164 101.2594550 101.8987116
 131.2941608 101.1226089 102.4611648 119.1059549 102.2291071  92.2899343
 118.8605591 101.3253401  92.4879553 119.2755464 102.2308221  91.3478821
 126.7956259  93.1014747 101.6724098 127.3138203  93.8375774 101.3470587
 126.4411392  93.4078740 102.5070857 118.3755197  97.9619428  89.7885504
 117.6824442  98.0363783  89.1325540 118.1306949  97.1979772  90.3107021
 127.0468854  89.5215030  97.1924995 127.3270607  88.8538219  97.8185421
 127.8319460  89.7144125  96.6799659 124.8502322 108.6974024  88.7550021
 124.2776289 109.3164211  88.3020493 125.4235116 109.2473385  89.2889943
 130.9177712  97.9432664 100.9396570 131.8695135  98.0430761 100.9608794
 130.7481162  97.1510932 101.4494654 128.9392091  95.0288247 101.1255971
 128.3442023  95.3093260 100.4302459 128.6541788  95.5182148 101.8972712
 128.0699582 108.9811174  89.8858603 129.0030255 108.9156735  90.0891479
 127.9822795 109.8167441  89.4273136 130.6987598 108.2977044  86.8462551
 130.6201230 107.9636908  87.7398309 131.5197265 108.7898812  86.8454023
 133.3965790 101.1638783 100.0538870 133.3642110 100.2254784 100.2398553
 134.0066413 101.2422820  99.3204694 125.2349121 100.0334836  86.0966074
 126.1808225  99.9041044  86.1654492 124.8563365  99.2949498  86.5735502
 133.5460278  97.9549827 100.0997153 133.0299327  97.1708283  99.9127082
 134.4300227  97.6268543 100.2643672 131.2071005  91.6990842  96.0592965
 131.0095826  91.3905930  96.9436297 131.8170711  92.4252481  96.1890895
 139.2142340 102.2254790  99.1944906 139.9445728 101.9640078  99.7552610
 138.6049285 101.4883512  99.2346974 137.2957637 100.3662653  99.7919358
 136.5690800 100.2318618  99.1835849 136.8804924 100.6739481 100.5976076
 125.1187813 104.0852582 107.5566731 126.0390823 104.2631181 107.7506777
 125.0837396 103.1408628 107.4046430 123.4192038  97.9584813  86.0320959
 122.5123493  97.6617925  86.1083672 123.6968019  97.6614631  85.1655245
 118.1149886 101.9953617 100.1989512 118.3335895 102.9270725 100.2177546
 118.5275659 101.6361591 100.9844316 125.0354103  92.5021702  92.1865200
 124.2254832  92.1568787  92.5620446 125.7238520  92.1929246  92.7752812
 126.9644652  91.5799749  93.8089497 127.5175690  91.9995203  94.4679520
 127.2014738  90.6535497  93.8512453 122.9877751  97.5686823 109.5892261
 122.8874478  98.5181180 109.5204352 122.7699293  97.2405062 108.7168331
 122.1890822  94.8171748  86.1732938 123.0509986  95.1426646  86.4328755
 122.3741166  94.0303244  85.6606004 130.3423459  93.6900274  93.3168161
 129.7622128  94.3485078  92.9346213 130.0759391  92.8677619  92.9055579
 128.7927025  93.0905332  95.5189481 129.2926804  93.2021867  94.7103800
 129.4362633  92.7866385  96.1590290 122.8509021 100.9983962 108.4057322
 122.3676103 101.7984322 108.6121211 122.9369960 101.0091907 107.4524766
 118.7782358 104.8888496 100.4425756 119.7325612 104.8572439 100.3755688
 118.5794882 104.4279120 101.2575982 119.3681741 103.4589612 103.0096554
 120.1874630 103.9533691 103.0331391 119.6418548 102.5421581 102.9814121
 129.1248337  95.8500365  92.3724509 128.2374192  96.1350015  92.1544704
 129.5402326  95.6894128  91.5251786 132.4762873  95.8746886  96.0878849
 133.2523263  96.3643338  96.3603465 131.7511007  96.3004940  96.5450718
 134.9135432  96.5874505  97.1452789 135.5079922  96.3470241  96.4346097
 134.9862015  95.8681635  97.7726325 117.1332587 110.4308116  97.4595954
 116.9987055 109.6708517  96.8933952 116.7164650 111.1549016  96.9924743
 128.2691550 105.6145039  86.4672529 128.9727400 105.8195042  87.0830185
 127.5454199 106.1821801  86.7321613 129.0989361 101.3654901  92.5874799
 129.0424562 101.8223452  91.7482432 129.6517703 100.6045585  92.4097642
 132.9094166  97.1544633  93.4124919 132.6531101  96.7541268  94.2433127
 132.2847034  97.8688426  93.2875058 137.2206504  99.8940706  95.9196210
 136.6606062  99.9633895  96.6927772 136.6150008  99.7181690  95.1995707
 120.2901713 111.3277433  97.6714397 120.1734097 112.2722865  97.5693087
 119.4694159 111.0250994  98.0600196 130.1778248 106.0527569  88.5170989
 131.0123852 105.6208767  88.3348464 130.0162591 105.8809582  89.4447884
 129.8324140 102.5559682  89.8827329 129.7772944 102.3903953  88.9415773
 129.2070195 103.2635715  90.0389518 114.6216655  97.7927746 103.7088751
 115.2675518  97.2826700 104.1975976 114.4133806  98.5296428 104.2832176
 127.1470047 104.8608594 109.2080891 128.0161207 105.0349246 108.8467526
 126.6676799 105.6803011 109.0856621 123.1420265  92.0567791  89.4612647
 123.1298935  93.0009631  89.6180918 124.0343687  91.8737936  89.1672108
 121.3156227 111.9805695 100.8870325 122.2183474 112.0129305 101.2036820
 121.0893597 111.0506146 100.9016661 123.0709829 110.7336681  97.5480404
 122.1205460 110.7338543  97.4344776 123.3742315 109.9869416  97.0316438
 126.9572385  88.6510568  93.7158584 126.1904781  88.0969054  93.8615266
 127.3683090  88.7232436  94.5772735 118.9614146  94.9395363 107.8063765
 119.8245607  94.5832168 108.0167090 118.3879556  94.6009258 108.4939169
 138.8062523 116.5697220  98.6126166 139.4440933 116.4503967  97.9089506
 138.6883366 117.5178064  98.6714118 135.6152229 116.5224648  98.5487691
 135.2770741 116.4065713  97.6608226 136.4841997 116.1215813  98.5288697
 131.4739045 118.3760124  94.5384582 130.9103910 118.2850061  93.7700869
 131.3591440 117.5560029  95.0187074 129.0203477 119.8711316  97.3768802
 129.8124769 119.5302140  96.9615101 129.2600127 119.9806291  98.2970956
 137.0538603 122.0431092  89.8499047 136.4026583 122.6285172  89.4633060
 137.8482966 122.5737287  89.9094084 130.9794231 119.1320229  90.2486181
 131.7525107 118.5849216  90.1099057 131.3319629 119.9964478  90.4600642
 133.7435480 117.8373460 100.0454440 134.3399052 117.6129482  99.3311403
 133.8010452 117.0958205 100.6479888 133.3160508 115.2912895  87.8804631
 133.5686029 114.7694416  87.1188094 132.3785068 115.1279041  87.9831315
 138.3603791 114.2948674  95.6879374 139.1466880 113.8768097  95.3369791
 138.6242496 115.1994766  95.8561023 138.5313869 119.7321524  90.3868031
 137.8959702 119.8056150  91.0988936 138.2011275 120.3215123  89.7087110
 133.0356797 117.1941001  90.0829006 132.9193055 116.5185905  90.7510090
 133.1459057 116.7073375  89.2661159 135.3788338 116.6551148  93.7875695
 135.0146545 116.1281769  94.4988617 136.2355454 116.2649617  93.6142181
 135.0193825 111.6841048  88.7837044 135.1868227 112.5521284  89.1507515
 134.8290994 111.8468330  87.8598333 137.7769158 120.1458027 100.4502874
 137.4769881 121.0483066 100.3418681 137.4320218 119.8790210 101.3024027
 131.2281640 116.5971824  96.4839578 130.3032136 116.4648038  96.6917270
 131.4766053 117.3766043  96.9809521 141.1766302 112.6640567  98.1300311
 140.2683179 112.5955975  97.8359072 141.1253898 113.1412512  98.9582137
 134.9983046 114.1398705  89.7683710 134.8782671 114.5855756  90.6069191
 134.3035634 114.4884023  89.2097249 128.5890451 116.2405097  97.3183367
 128.7182832 116.4939576  98.2322779 127.9087902 116.8332805  96.9988023
 135.3339950 113.9717413 101.6058894 136.1801145 114.3956827 101.7493543
 135.2738588 113.3151038 102.2997457 139.3037694 119.5945997  97.9877626
 138.6746557 119.7591711  97.2853694 138.9163357 120.0087607  98.7588590
 138.4839395 111.6321782 103.2640068 138.2400327 112.3863842 102.7274343
 138.7599326 112.0107129 104.0987315 138.0404087 110.7878215  98.8453905
 137.1788566 111.0859468  99.1370643 138.0666522 111.0048614  97.9134938
 134.8565656 119.3320405  95.2527711 135.3204002 119.6108108  94.4632334
 134.5922454 118.4303850  95.0700802 131.7489737 118.8791887  98.1907474
 132.3191094 119.3079155  97.5524959 132.3397849 118.5974471  98.8891660
 133.7934542 115.4543558  92.0617276 134.4958586 115.9064601  92.5291203
 133.4615171 114.8127376  92.6897169 132.2414904 114.0455314 106.4368486
 131.6113564 114.7271595 106.6703882 132.1350992 113.9338396 105.4921624
 127.5359876 113.7127110  97.3634410 126.7458930 113.9684639  96.8874520
 128.0271124 114.5275448  97.4686450 129.4874622 114.0771689  94.3217886
 128.6905785 114.1890384  94.8401382 129.2600214 114.4158342  93.4558777
 125.8197579 113.9657601  99.7949401 126.0705618 114.8504611 100.0606976
 126.3557128 113.7862202  99.0224492 135.0328307 122.2684500  92.1379381
 134.8973982 123.1136036  92.5664229 135.5738119 122.4703778  91.3745315
 131.5195647 108.3476080 108.7993737 131.1262592 107.7942279 109.4741381
 132.3361787 108.6586658 109.1900254 128.4857704 119.7859938  92.7107306
 128.9982225 120.5803188  92.8612871 129.1380417 119.0886229  92.6440908
 130.2952589 122.9025694  94.7930060 130.4719217 123.8243659  94.6051044
 131.0909423 122.5884114  95.2224439 134.4363608 109.7633959 106.3913993
 135.1773321 110.3641112 106.3118456 134.6681530 109.0211597 105.8332036
 129.5804946 114.9490326 104.6692223 129.4658461 114.0475584 104.9699322
 128.7249463 115.1954023 104.3177039 131.4183905 124.4203868 100.7940402
 131.9691330 124.2920932 100.0217396 130.5795380 124.7198757 100.4435295
 138.3820771 105.7915062 100.6678275 138.0385040 106.6816704 100.5917385
 138.7499733 105.6016720  99.8047860 126.4506621 118.1148593  93.4866877
 127.2881843 118.5245601  93.2700585 126.6284889 117.1748035  93.4567071
 138.3471053 115.7823673  89.1750710 137.8317677 116.5528278  89.4139097
 138.0748362 115.1088809  89.7983771 135.9318164 110.6273374  94.2335948
 135.0759761 110.2380224  94.0541587 136.3445116 110.7065335  93.3735734
 137.4617311 108.1619717  98.6327508 136.9582107 108.1249852  97.8195313
 137.7547918 109.0712460  98.6924165 133.7060197 108.2458447  97.6393690
 134.5713194 108.0501256  97.2799579 133.7737706 108.0168799  98.5663047
 138.1357356 113.6550765  91.0010491 137.8307492 113.9696914  91.8520634
 139.0887799 113.7332185  91.0437824 136.5803788 119.8140989  92.6503445
 136.0525150 119.0793748  92.3376683 136.0791291 120.5915665  92.4043413
 131.3122516 110.4760655  95.0110057 131.8866268 110.2535836  94.2783250
 131.8993498 110.5449349  95.7638658 140.3702093 116.3634382  95.8174433
 140.8833975 116.9964374  96.3196143 141.0203317 115.7635577  95.4517793
 131.6392103 112.5065116  89.0305942 130.8029415 112.8439802  89.3515217
 131.4996873 112.3714096  88.0933079 133.6145184 107.3501904  93.7385126
 132.9609596 107.0350921  93.1141741 133.5725658 106.7277644  94.4644949
 134.7256388 117.6321199  85.6538418 133.8183450 117.4010452  85.8529567
 135.2227420 116.8358818  85.8412400 136.8482924 113.8383837  98.0632774
 135.9305485 114.0598784  97.9054462 137.2643068 113.9130148  97.2044481
 137.6317972 115.2375253  93.1935454 138.3789791 115.7496650  92.8842576
 137.9009561 114.9159306  94.0539848 135.9044622 117.7333794  90.1762408
 134.9955841 117.4492827  90.2734878 135.9339706 118.1532872  89.3165715
 140.0796809 112.2732369  95.1754243 139.3419566 111.7609755  95.5064486
 140.3323582 111.8332751  94.3637520 140.1808436 105.0508621  95.7696013
 140.4867313 104.1905985  95.4821928 140.9061041 105.6426241  95.5695006
 126.4732792 115.4539308  94.1577610 126.2757192 114.8608669  93.4328677
 125.9179456 115.1491518  94.8753549 134.4529516 115.3462414  96.2772204
 134.5078126 114.3936251  96.2014680 133.6420718 115.5021853  96.7613502
 135.6020710 119.2742537  87.5150487 135.1640140 118.5578396  87.0556124
 136.3431151 119.5018652  86.9535578 132.3921876 113.9639474  94.0362582
 131.5789741 114.2633645  94.4427775 132.8880870 113.5695163  94.7537065
 134.5430454 123.9597231  95.9696847 134.5006633 124.1858077  95.0405379
 135.4593153 123.7260606  96.1182648 137.9896088 114.4281299 102.8677476
 138.3445475 114.6552772 103.7271942 138.6368219 114.7599675 102.2454732
 131.8835951 111.5357830  99.6523817 132.5235330 111.3946589  98.9546781
 131.0513481 111.2492343  99.2762419 132.6596255 120.8360260  95.7658810
 133.4536853 120.3410580  95.5641385 131.9487947 120.3078123  95.4026515
 128.9679018 114.9803342  91.8418563 128.0376606 114.9187797  92.0588525
 129.0636490 114.4579294  91.0455204 128.8864567 111.5058155  94.4296804
 129.1471384 112.4203488  94.3205965 129.7081739 111.0382597  94.5793417
 130.3589492 112.9195912 101.5995629 131.0312546 112.7113274 100.9508278
 129.5319279 112.7217998 101.1600861 136.2615064 109.5457853 103.6161290
 135.6142979 110.2447802 103.5225766 137.0316080 109.9793997 103.9837538
 136.4379199 117.3838618 101.6758109 137.3671259 117.5349777 101.5027077
 136.0170229 117.4722638 100.8206756 135.2367531 121.4089282  99.4456647
 135.0978616 121.0408066 100.3182585 134.4482127 121.9236921  99.2740605
 136.7872746 120.7870885  96.8345485 136.4522578 120.7471655  97.7303135
 136.2876691 120.1215601  96.3615895 130.7616990 116.1938515 102.3598066
 130.6236788 115.4618754 102.9609605 131.6721913 116.1047415 102.0782254
 139.7231937 118.1326919  87.1082544 139.1061108 117.4073747  87.0115597
 139.2548426 118.8936279  86.7649619 133.3899290 115.9058474 101.8481746
 134.0998909 115.2651666 101.8068364 133.3468598 116.1571369 102.7707926
 132.1028224 112.8923692 103.6677385 131.5665581 112.4414430 104.3198981
 131.5144933 113.0269601 102.9247849 131.5130483 112.3512343  86.2303849
 130.6359950 112.2301144  85.8666095 131.9888236 111.5598422  85.9782737
 123.0332623 117.1389503  96.3245356 123.7203663 116.8251233  95.7366371
 122.8780752 118.0430868  96.0512607 127.8367346 112.0279700 100.7530380
 127.7525534 111.4205369 100.0180789 127.0150052 112.5188718 100.7539876
 138.0091059 110.5133263  96.1200575 138.5059759 109.7603225  95.8001645
 137.2378041 110.5497580  95.5543784 139.0920840 119.2704950  93.6938998
 138.1577119 119.3906413  93.5243702 139.2697509 118.3677417  93.4299008
 134.5926028 112.6550646  95.8472259 134.2223816 112.1021687  96.5353165
 135.0885121 112.0508780  95.2947259 140.4510054 107.4802857  98.2679933
 139.5373134 107.7107083  98.4362140 140.8803156 107.5641301  99.1193966
 140.2216513 115.6692749 100.7679827 139.5687963 115.9168656 100.1132280
 140.5996893 114.8556887 100.4342305 128.0182945 122.6484496  99.8758380
 128.6036382 121.9028184 100.0086284 127.8207783 122.9588453 100.7595044
 130.8721600 125.6835744  94.8920822 130.2031975 126.1681871  94.4084862
 130.7334470 125.9304964  95.8064201 122.6100599 115.2190096  98.5962823
 122.6484699 114.6853687  99.3899941 122.1040892 114.6925302  97.9773800
 129.9891362 110.0654637 102.0925365 130.0532688 110.9269468 101.6802763
 129.9258482 109.4528639 101.3597724 129.4643634 112.1377769 105.7398400
 130.0915673 111.7554847 106.3535924 128.6071553 111.9191971 106.1054092
 126.2409177 113.9454199  91.6716754 126.5362618 113.0364877  91.6183808
 125.3397213 113.9241938  91.3497757 129.7703424 112.0210195  97.6544303
 129.0490010 112.6346163  97.5151776 130.5596680 112.5567960  97.5760949
 132.5729738 109.3564622 103.9284955 133.0964139 109.6026918 104.6911264
 132.3542071 110.1884656 103.5088092 127.9697019 111.6268296  91.7956080
 127.6409725 110.7465675  91.6131185 128.3236389 111.5715965  92.6832469
 131.0838842 111.9141266  92.1631557 131.4234914 112.4427187  91.4410166
 131.5310962 112.2521672  92.9390124 133.7782283 110.2978317 101.6134625
 133.4379103 109.4986130 102.0155305 133.0721289 110.5980028 101.0411458
 134.4298754 107.3827629 100.0661948 135.2524824 106.9088107  99.9440839
 134.6736818 108.1618113 100.5660635 133.0706989 110.4115888  90.3624850
 133.7915351 110.7897140  89.8588567 132.4472293 111.1304764  90.4659828
 137.2138112 111.1161037  91.2983182 137.4301726 111.9985674  90.9972010
 136.7332179 110.7247250  90.5688824 131.9537333 114.0746750  97.8753927
 131.8081914 114.3887053  98.7678208 131.4762537 114.6931650  97.3224826
 133.8133716 111.0649298  97.9234816 133.7995285 110.1690391  97.5867114
 134.5306144 111.0719962  98.5573102 135.6659847 111.4986638  99.9687944
 135.4077625 112.4203709  99.9672274 135.1344887 111.1017073 100.6588408
 126.4282995 116.6152094 100.8141588 125.8836463 117.3911902 100.9461862
 127.3062345 116.9622899 100.6560709 133.2170612 109.9463678  93.1922387
 133.3386523 109.0180324  93.3913274 132.9272654 109.9602364  92.2800702
 136.0861802 107.6318589  96.3289106 136.1083499 107.6957922  95.3741086
 136.5029861 106.7923097  96.5229613 127.2149017 115.7421990 103.7071745
 126.4730753 115.8904626 104.2936375 126.8941762 116.0030256 102.8438494
 127.6605631 123.6287419  95.7382140 128.4863651 123.3291191  95.3580783
 127.3099683 122.8595042  96.1871928 132.6287164 122.9813887  97.8079813
 132.0067173 122.3184592  97.5082041 133.2992031 123.0075019  97.1253461
 125.8614236 121.5473746  96.6971073 125.0246144 121.1195920  96.5155074
 125.8337881 121.7406189  97.6341864 132.7011692 111.4595675 107.4012319
 132.7499847 112.3357798 107.0190089 133.2434206 110.9173068 106.8283962
 132.1900671 121.5317811  91.2838274 132.3388791 122.2153275  90.6304946
 132.9967114 121.5122901  91.7987729 134.9310980 112.2127048 104.1558678
 134.0614289 112.5060614 103.8841266 135.1670460 112.7967493 104.8765941
 129.9453304 117.5582988  92.2899343 129.6999346 116.6545318  92.4879553
 130.1149219 117.5600139  91.3478821 137.6350014 108.4306665 101.6724098
 138.1531958 109.1667692 101.3470587 137.2805147 108.7370658 102.5070857
 129.2148952 113.2911346  89.7885504 128.5218196 113.3655701  89.1325540
 128.9700703 112.5271690  90.3107021 137.8862608 104.8506947  97.1924995
 138.1664362 104.1830136  97.8185421 138.6713215 105.0436043  96.6799659
 139.7785846 110.3580165 101.1255971 139.1835778 110.6385177 100.4302459
 139.4935543 110.8474065 101.8972712 136.0742875 115.3626754  86.0966074
 137.0201980 115.2332962  86.1654492 135.6957120 114.6241416  86.5735502
 134.2585792 113.2876730  86.0320959 133.3517248 112.9909843  86.1083672
 134.5361773 112.9906548  85.1655245 125.1763733 114.6083094  96.4820005
 124.8566517 113.7548402  96.1894379 124.6297161 114.8231672  97.2377973
 128.9543640 117.3245535 100.1989512 129.1729650 118.2562643 100.2177546
 129.3669414 116.9653509 100.9844316 135.8747858 107.8313620  92.1865200
 135.0648586 107.4860705  92.5620446 136.5632275 107.5221164  92.7752812
 137.8038406 106.9091667  93.8089497 138.3569445 107.3287120  94.4679520
 138.0408493 105.9827415  93.8512453 133.0284577 110.1463666  86.1732938
 133.8903741 110.4718564  86.4328755 133.2134921 109.3595161  85.6606004
 125.0451993 118.2286005  98.4513127 124.3515464 117.8139958  97.9383081
 125.7924984 118.2706542  97.8546546 141.1817213 109.0192192  93.3168161
 140.6015882 109.6776996  92.9346213 140.9153146 108.1969537  92.9055579
 139.6320780 108.4197250  95.5189481 140.1320558 108.5313784  94.7103800
 140.2756388 108.1158303  96.1590290 126.9588735 118.1604259  96.3279142
 126.9359423 118.2591946  95.3761025 127.2689372 119.0069410  96.6496308
 129.6176113 120.2180414 100.4425756 130.5719367 120.1864356 100.3755688
 129.4188637 119.7571038 101.2575982 130.2075495 118.7881530 103.0096554
 131.0268384 119.2825609 103.0331391 130.4812303 117.8713498 102.9814121
 139.9642091 111.1792282  92.3724509 139.0767946 111.4641933  92.1544704
 140.3796080 111.0186046  91.5251786 127.9726342 125.7600034  97.4595954
 127.8380810 125.0000434  96.8933952 127.5558404 126.4840933  96.9924743
 139.1085305 120.9436957  86.4672529 139.8121155 121.1486960  87.0830185
 138.3847954 121.5113719  86.7321613 139.9383115 116.6946818  92.5874799
 139.8818316 117.1515370  91.7482432 140.4911458 115.9337503  92.4097642
 131.1295468 126.6569351  97.6714397 131.0127852 127.6014783  97.5693087
 130.3087914 126.3542912  98.0600196 140.6717894 117.8851600  89.8827329
 140.6166698 117.7195871  88.9415773 140.0463950 118.5927632  90.0389518
 125.4610409 113.1219664 103.7088751 126.1069273 112.6118618 104.1975976
 125.2527560 113.8588346 104.2832176 133.9814020 107.3859709  89.4612647
 133.9692690 108.3301549  89.6180918 134.8737442 107.2029854  89.1672108
 137.7966139 103.9802485  93.7158584 137.0298535 103.4260972  93.8615266
 138.2076844 104.0524354  94.5772735 129.8007900 110.2687281 107.8063765
 130.6639362 109.9124086 108.0167090 129.2273311 109.9301176 108.4939169
  56.8833658  -3.3878954  80.1419148  56.8057688  -2.4371129  80.2207629
  56.2795301  -3.7333081  80.7994075  59.1572027  -8.0296801  78.8624688
  59.0217702  -7.1845265  79.2909536  59.6981839  -7.8277523  78.0990622
  54.4196309  -7.3955607  81.5175366  54.5962937  -6.4737642  81.3296350
  55.2153142  -7.7097187  81.9469746  55.5427624  -5.8777433  87.5185709
  56.0935049  -6.0060370  86.7462703  54.7039100  -5.5782544  87.1680601
  61.7568187  -3.9562595  75.2980411  61.0829886  -3.6530898  75.9065369
  62.1434009  -3.1533515  74.9485868  58.6674174  -6.3384070  82.6942154
  58.6250352  -6.1123224  81.7650686  59.5836872  -6.5720696  82.8427955
  61.6034819  -7.0802946  86.8416484  61.6571841  -6.5112009  87.6094200
  60.7349600  -6.9101061  86.4770521  59.9559402  -3.7882923  77.5127490
  60.1311158  -4.2594880  78.3273113  59.2692190  -3.1617157  77.7408751
  54.5220488  -0.6393560  84.2867350  54.7617086  -0.0075036  84.9646369
  53.6789684  -0.9905520  84.5732710  59.0348349  -4.8314437  86.6908854
  58.9618521  -4.0259466  87.2028159  58.5925743  -4.6322472  85.8656876
  58.8238129  -5.5942667  80.2011676  58.0405651  -5.0520987  80.2949900
  59.5230874  -5.0768688  80.6005917  61.4947033  -4.9327603  88.8467013
  62.2075005  -4.2980139  88.7742914  61.0037062  -4.8363737  88.0307015
  56.5458947  -7.1833160  89.6672584  57.2468406  -6.5496677  89.8201978
  56.0754062  -6.8418428  88.9068223  61.3067406  -4.5928859  81.5953304
  61.4889801  -5.4107203  82.0581057  62.1300392  -4.3761167  81.1578194
  61.6409572  -5.6660674  78.8568353  62.1697338  -6.1768220  78.2438515
  61.9037791  -5.9818144  79.7213886  52.1426665  -7.6496805  86.6003686
  52.7280101  -8.3953117  86.7331591  51.9451503  -7.3392848  87.4840350
  54.9965320  -4.6145558  81.6166129  54.3275695  -4.1299430  81.1330169
  54.8578190  -4.3676337  82.5309507  59.1370588  -2.5801814  88.2148787
  59.6888896  -2.4170193  88.9797872  59.4776782  -1.9897376  87.5428812
  62.2738976  -4.6319839  85.2012469  62.1490115  -5.4330099  84.6923415
  62.9318067  -4.1373645  84.7126439  59.2836400  -5.0143332  90.2297442
  59.5923526  -5.2594186  91.1020141  60.0811882  -4.8096694  89.7416312
  59.3057012  -2.8605423  82.4602818  58.8662002  -3.3529044  83.1535675
  60.0565129  -3.4032455  82.2194893  51.7849351  -6.6693882  82.4627446
  52.6107371  -6.9690110  82.0826090  51.4343403  -7.4386260  82.9117235
  56.7530884  -7.3167414  84.5325120  56.1310893  -7.9796709  84.2327348
  57.4235751  -7.2906282  83.8498768  49.9857956  -8.7507556  83.4216380
  49.1489864  -9.1785381  83.2400381  49.9581601  -8.5575112  84.3587171
  56.3144391  -8.7663490  78.0083580  56.4632511  -8.0828026  77.3550253
  57.1210834  -8.7858400  78.5233036  59.8139796  -6.2715360  75.4795328
  59.2413763  -5.6525173  75.0265800  60.3872590  -5.7215998  76.0135250
  63.0337056  -5.9878210  76.6103910  63.9667729  -6.0532648  76.8136786
  62.9460269  -5.1521943  76.1518443  52.0970062  -4.5381268  84.1841261
  51.9624530  -5.2980867  83.6179259  51.6802124  -3.8140368  83.7170050
  55.2539187  -3.6411951  84.3959703  55.1371572  -2.6966518  84.2938394
  54.4331634  -3.9438389  84.7845502  56.2793702  -2.9883689  87.6115632
  57.1820948  -2.9560078  87.9282127  56.0531072  -3.9183238  87.6261967
  58.0347304  -4.2352702  84.2725710  57.0842935  -4.2350841  84.1590083
  58.3379790  -4.9819968  83.7561745  73.7699997   1.6007836  85.3371473
  74.4078407   1.4814584  84.6334813  73.6520840   2.5488680  85.3959425
  70.5789703   1.5535264  85.2732997  70.2408215   1.4376329  84.3853532
  71.4479472   1.1526429  85.2534004  66.4376519   3.4070741  81.2629888
  65.8741384   3.3160678  80.4946176  66.3228914   2.5870645  81.7432381
  71.0609486   2.7070116  91.2319203  71.0498127   2.3122914  90.3599707
  71.2230126   1.9736189  91.8252974  63.9840951   4.9021932  84.1014109
  64.7762243   4.5612757  83.6860408  64.2237601   5.0116907  85.0216262
  72.0176078   7.0741708  76.5744353  71.3664058   7.6595789  76.1878367
  72.8120441   7.6047903  76.6339391  65.9431705   4.1630846  76.9731488
  66.7162581   3.6159833  76.8344363  66.2957104   5.0275095  77.1845949
  67.7816748   5.4907228  90.1798387  67.4906613   6.3952859  90.0645053
  68.4173732   5.5323755  90.8942456  68.7072954   2.8684076  86.7699747
  69.3036527   2.6440099  86.0556710  68.7647926   2.1268822  87.3725194
  68.2797983   0.3223512  74.6049938  68.5323503  -0.1994967  73.8433401
  67.3422542   0.1589657  74.7076621  73.3241266  -0.6740710  82.4124681
  74.1104355  -1.0921287  82.0615098  73.5879970   0.2305382  82.5806329
  73.4951343   4.7632140  77.1113338  72.8597176   4.8366767  77.8234242
  73.1648749   5.3525739  76.4332417  67.9994272   2.2251618  76.8074312
  67.8830530   1.5496521  77.4755397  68.1096531   1.7383992  75.9906466
  70.3425812   1.6861765  80.5121002  69.9784020   1.1592386  81.2233923
  71.1992928   1.2960234  80.3387487  69.9831299  -3.2848336  75.5082350
  70.1505702  -2.4168099  75.8752821  69.7928468  -3.1221054  74.5843640
  72.7406633   5.1768643  87.1748181  72.4407356   6.0793682  87.0663988
  72.3957692   4.9100827  88.0269334  66.1919114   1.6282440  83.2084885
  65.2669611   1.4958654  83.4162577  66.4403527   2.4076659  83.7054827
  69.9620520  -0.8290678  76.4929017  69.8420145  -0.3833627  77.3314497
  69.2673109  -0.4805360  75.9342555  63.5527925   1.2715714  84.0428674
  63.6820306   1.5250193  84.9568086  62.8725376   1.8643422  83.7233329
  67.7227412  11.9412964  80.1419148  67.6451442  12.8920789  80.2207629
  67.1189056  11.5958836  80.7994075  70.2144642  -0.8859171  92.7980515
  69.4377976  -0.3265251  92.7883380  70.8535205  -0.4002388  93.3195385
  75.6605586  -0.3569205  77.3209351  76.5723443  -0.1241818  77.1457049
  75.1515234   0.2267839  76.7584430  68.4691014   1.9226283  92.3598482
  69.2105699   2.4611326  92.0833306  67.7628000   2.5492571  92.5170034
  73.9446354   4.0655423  90.9570644  74.3529710   3.6237834  90.2125276
  73.2223616   3.4908051  91.2104837  70.2977424  -0.9971970  88.3304201
  71.1438619  -0.5732557  88.4738850  70.2376062  -1.6538346  89.0242764
  74.2675169   4.6256614  84.7122933  73.6384031   4.7902328  84.0099000
  73.8800831   5.0398223  85.4833897  78.1464401   5.5611051  82.0667296
  77.4615439   5.9409953  81.5164330  78.2308250   6.1706378  82.7999244
  75.4015332   3.2071010  88.6662640  75.6132227   3.8502770  87.9897021
  75.3545081   2.3733327  88.1984570  69.8203131   4.3631022  81.9773018
  70.2841476   4.6418725  81.1877640  69.5559929   3.4614466  81.7946108
  66.7127212   3.9102503  84.9152781  67.2828569   4.3389772  84.2770265
  67.3035324   3.6285088  85.6136967  68.7572017   0.4854174  78.7862583
  69.4596060   0.9375218  79.2536509  68.4252645  -0.1562007  79.4142476
  67.2052378  -0.9234069  93.1613792  66.5751039  -0.2417788  93.3949189
  67.0988466  -1.0350988  92.2166930  62.4997351  -1.2562273  84.0879716
  61.7096405  -1.0004745  83.6119827  62.9908598  -0.4413935  84.1931757
  76.5161160   6.0842966  86.8384997  77.3378604   5.6823153  86.5567679
  76.5123563   5.9811200  87.7901113  64.4512096  -0.8917694  81.0463193
  63.6543259  -0.7799000  81.5646689  64.2237688  -0.5531042  80.1804084
  70.2817764   5.6327009  88.9945708  70.3462196   6.0947416  89.8303880
  69.5728688   5.0024374  89.1228018  60.7835054  -1.0031783  86.5194707
  61.0343092  -0.1184773  86.7852283  61.3194602  -1.1827181  85.7469799
  84.6067153   2.4281714  83.1869969  83.8530862   1.8589112  83.0313973
  84.7414694   2.3944379  84.1340603  69.9965781   7.2995117  78.8624688
  69.8611456   8.1446652  79.2909536  70.5375594   7.5014394  78.0990622
  63.4495179   4.8170555  79.4352613  63.9619699   5.6113805  79.5858178
  64.1017892   4.1196845  79.3686215  65.2590063   7.9336311  81.5175366
  65.4356692   8.8554276  81.3296350  66.0546897   7.6194730  81.9469746
  64.5442420  -0.0199057  91.3937530  64.4295935  -0.9213800  91.6944628
  63.6886938   0.2264640  91.0422346  71.6234258   7.9218683  92.9925030
  71.1798112   7.1355062  92.6745935  72.2851471   8.1097834  92.3268921
  66.3821379   9.4514485  87.5185709  66.9328804   9.3231548  86.7462703
  65.5432855   9.7509374  87.1680601  73.7215496   8.2021483  91.0206431
  73.7033971   9.0230364  90.5286701  74.6435416   8.0775558  91.2456573
  70.1788550   5.7165613  91.8629940  70.7116887   4.9553901  91.6329248
  69.6502631   5.4239264  92.6054094  61.4144095   3.1459209  80.2112184
  62.2519317   3.5556217  79.9945891  61.5922363   2.2058651  80.1812378
  73.3108528   0.8134290  75.8996017  72.7955151   1.5838894  76.1384404
  73.0385836   0.1399426  76.5229078  78.2842802   3.5666644  77.8349190
  77.5072244   3.2277804  77.3904352  78.9634283   3.5719267  77.1604155
  73.0994831  -1.3138618  77.7255798  72.7944966  -0.9992469  78.5765941
  74.0525273  -1.2357198  77.7683131  71.5441263   4.8451605  79.3748752
  71.0162624   4.1104365  79.0621989  71.0428765   5.6226281  79.1288720
  76.5234109   3.0400626  84.4915798  75.8657783   3.7299887  84.5795927
  77.3274508   3.4297058  84.8349784  66.2759990  -4.4928729  81.7355363
  66.8503742  -4.7153547  81.0028556  66.8630973  -4.4240034  82.4883965
  75.3339567   1.3944998  82.5419740  75.8471449   2.0274990  83.0441450
  75.9840791   0.7946194  82.1763100  66.6029577  -2.4624268  75.7551249
  65.7666890  -2.1249581  76.0760523  66.4634347  -2.5975288  74.8178386
  69.6893863   2.6631815  72.3783725  68.7820925   2.4321069  72.5774874
  70.1864895   1.8669435  72.5657706  72.5961942  11.3729323  75.2980411
  71.9223640  11.6761019  75.9065369  72.9827764  12.1758403  74.9485868
  71.8120398  -1.1305546  84.7878080  70.8942960  -0.9090599  84.6299768
  72.2280542  -1.0559236  83.9289788  72.5955446   0.2685870  79.9180761
  73.3427265   0.7807267  79.6087883  72.8647036  -0.0530078  80.7785154
  70.8682096   2.7644410  76.9007715  69.9593315   2.4803443  76.9980185
  70.8977180   3.1843489  76.0411022  76.1001364   6.3751000  80.6698882
  75.6463691   5.5341910  80.7264073  75.4695330   7.0112398  81.0073663
  74.5434303   8.2127496  81.6048701  74.8357277   8.7732554  80.8861066
  75.0532923   8.5056057  82.3601860  61.4370267   0.4849924  80.8822917
  61.2394666  -0.1080715  80.1573984  60.8816931   0.1802135  81.5998856
  69.4166990   0.3773031  83.0017510  69.4715600  -0.5753133  82.9259987
  68.6058192   0.5332470  83.4858809  70.5658184   4.3053154  74.2395793
  70.1277614   3.5889013  73.7801431  71.3068625   4.5329269  73.6780885
  67.3559350  -1.0049909  80.7607889  66.5427216  -0.7055739  81.1673081
  67.8518344  -1.3994221  81.4782371  69.5067928   8.9907848  82.6942154
  69.4644107   9.2168694  81.7650686  70.4230627   8.7571222  82.8427955
  72.9533562  -0.5408085  89.5922783  73.3082950  -0.3136612  90.4517249
  73.6005693  -0.2089708  88.9700038  78.6831299   2.5810351  80.2972112
  78.5449197   2.7711947  79.3693301  78.3267518   3.3429734  80.7540163
  66.8473425  -3.4331554  86.3769124  67.4872804  -3.5742795  85.6792087
  66.0150955  -3.7197041  86.0007726  78.7100678   4.6486878  85.3083384
  79.1437185   4.5562167  86.1566438  79.4232259   4.6244378  84.6703400
  67.6233729   5.8670877  82.4904117  68.4174327   5.3721197  82.2886691
  66.9125421   5.3388740  82.1271822  72.4428573   8.2488972  86.8416484
  72.4965596   8.8179908  87.6094200  71.5743355   8.4190857  86.4770521
  63.9316492   0.0113958  78.5663869  63.0014080  -0.0501586  78.7833831
  64.0273964  -0.5110089  77.7700510  63.8502041  -3.4631229  81.1542111
  64.1108859  -2.5485896  81.0451271  64.6719214  -3.9306786  81.3038724
  65.3226967  -2.0493472  88.3240935  65.9950020  -2.2576110  87.6753584
  64.4956753  -2.2471386  87.8846168  79.5716228   4.6910579  87.8416269
  79.7652118   5.5956389  88.0875544  79.4716846   4.2317998  88.6754854
  74.6331337   4.8417321  93.4157150  74.4816843   4.6127873  92.4987233
  74.6236016   5.7987923  93.4288495  71.4016673   2.4149234  88.4003416
  72.3308733   2.5660394  88.2272383  70.9807703   2.5033255  87.5452063
  70.2005005   6.4399899  86.1701954  70.0616091   6.0718683  87.0427892
  69.4119601   6.9547538  85.9985911  70.7953157  11.5408995  77.5127490
  70.9704913  11.0697038  78.3273113  70.1085945  12.1674761  77.7408751
  71.7510220   5.8181501  83.5590791  71.4160053   5.7782271  84.4548441
  71.2514166   5.1526217  83.0861202  65.7254464   1.2249131  89.0843373
  65.5874262   0.4929370  89.6854912  66.6359387   1.1358031  88.8027560
  74.6869412   3.1637536  73.8327851  74.0698582   2.4384364  73.7360904
  74.2185900   3.9246896  73.4894925  68.3536765   0.9369091  88.5727052
  69.0636383   0.2962283  88.5313671  68.3106073   1.1881985  89.4953233
  76.3423543   7.8736444  91.4933631  76.2836089   7.1895664  90.8264214
  76.7443062   8.6155434  91.0414257  67.0665699  -2.0765692  90.3922692
  66.5303056  -2.5274953  91.0444288  66.4782407  -1.9419783  89.6493156
  65.3614242  14.6898358  84.2867350  65.6010840  15.3216882  84.9646369
  64.5183439  14.3386398  84.5732710  66.4767958  -2.6177040  72.9549155
  65.5997424  -2.7388239  72.5911402  66.9525711  -3.4090962  72.7028044
  76.3440951   5.8376028  89.7247611  75.4567729   5.5001950  89.8474010
  76.9139502   5.1059059  89.9616376  57.9970098   2.1700120  83.0490662
  58.6841138   1.8561850  82.4611678  57.8418226   3.0741484  82.7757914
  62.8004820  -2.9409684  87.4775686  62.7163009  -3.5484014  86.7426096
  61.9787526  -2.4500666  87.4785183  69.8742104  10.4977480  86.6908854
  69.8012275  11.3032452  87.2028159  69.4319497  10.6969446  85.8656876
  69.6631884   9.7349250  80.2011676  68.8799405  10.2770930  80.2949900
  70.3624629  10.2523230  80.6005917  80.8258291   1.2484245  84.4864173
  80.8148167   2.1308961  84.1158106  79.9575671   0.8955796  84.2918710
  72.3340787  10.3964314  88.8467013  73.0468760  11.0311779  88.7742914
  71.8430816  10.4928180  88.0307015  74.0558314   4.3015567  80.4184305
  73.1214593   4.4217029  80.2489009  74.2334983   3.3988034  80.1544314
  69.5563502  -2.3138737  82.5717566  69.1861290  -2.8667697  83.2598471
  70.0522595  -2.9180604  82.0192566  77.4430866   0.1432886  80.9534339
  77.9091318   0.9760878  80.8794641  77.8938366  -0.3222132  81.6579597
  67.3852701   8.1458758  89.6672584  68.0862161   8.7795241  89.8201978
  66.9147816   8.4873489  88.9068223  75.5107097   6.4876707  77.9520491
  75.7866941   6.3733302  78.8614365  74.6411596   6.0894192  77.9132664
  75.1853987   0.7003365  87.4925134  74.5325437   0.9479273  86.8377587
  75.5634367  -0.1132497  87.1587611  72.1461161  10.7363058  81.5953304
  72.3283555   9.9184714  82.0581057  72.9694147  10.9530751  81.1578194
  72.4803326   9.6631243  78.8568353  73.0091093   9.1523698  78.2438515
  72.7431546   9.3473774  79.7213886  71.2341560   1.4423176  93.9791171
  70.5582197   1.3417306  94.6493546  72.0569194   1.2862390  94.4427168
  62.9820419   7.6795113  86.6003686  63.5673856   6.9338801  86.7331591
  62.7845258   7.9899069  87.4840350  65.8359074  10.7146360  81.6166129
  65.1669450  11.1992488  81.1330169  65.6971944  10.9615581  82.5309507
  57.5738074   0.2500713  85.3208130  57.6122173  -0.2835696  86.1145248
  57.0678367  -0.2764082  84.7019107  69.9764343  12.7490104  88.2148787
  70.5282651  12.9121725  88.9797872  70.3170536  13.3394541  87.5428812
  64.9528836  -4.9034747  88.8170672  65.0170163  -4.0419916  88.4048070
  64.8895956  -5.5160745  88.0843030  64.4281109  -2.8311614  92.4643706
  65.0553147  -3.2134537  93.0781230  63.5709028  -3.0497412  92.8299399
  74.8275217   7.5751361  94.0697442  75.3715121   8.1881319  93.5752396
  74.2462062   8.1330940  94.5864455  61.2046651  -1.0235185  78.3962061
  61.5000092  -1.9324506  78.3429115  60.3034687  -1.0447445  78.0743063
  73.1132730  10.6972079  85.2012469  72.9883870   9.8961819  84.6923415
  73.7711821  11.1918273  84.7126439  64.7340898  -2.9479188  84.3789610
  64.0127484  -2.3343221  84.2397083  65.5234154  -2.4121424  84.3006256
  75.1767639   8.4981099  86.8292019  74.2297974   8.3786450  86.7570346
  75.5250412   7.6103597  86.9118281  62.9334493  -3.3421087  78.5201386
  62.6047199  -4.2223708  78.3376492  63.2873864  -3.3973419  79.4077775
  72.1814072   8.2933815  83.0296372  72.0339034   7.3650523  83.2103942
  73.0067565   8.3153906  82.5453447  66.0476316  -3.0548117  78.8876864
  66.3872389  -2.5262196  78.1655472  66.4948437  -2.7167711  79.6635430
  75.7848194   9.1162374  84.1161244  76.7094741   8.9105236  83.9785696
  75.6163497   8.8678775  85.0250586  68.0344463  -4.5573496  77.0870157
  68.7552826  -4.1792243  76.5833873  67.4109767  -3.8384619  77.1905135
  66.9174808  -0.8942634  84.5999234  66.7719388  -0.5802331  85.4923515
  66.4400011  -0.2757733  84.0470132  70.6297321  -3.4702745  86.6933251
  70.3715099  -2.5485675  86.6917581  70.0982362  -3.8672311  87.3833715
  75.5743510   9.6348042  79.4723336  75.7480387   9.0694464  78.7197188
  76.0672401  10.4348937  79.2902826  61.3920470   1.6462711  87.5386895
  60.8473938   2.4222519  87.6707169  62.2699820   1.9933515  87.3806016
  81.4282901   2.3984465  81.0913636  81.8714047   1.6491790  80.6932759
  80.5509411   2.3894601  80.7087368  76.5618682   8.9514806  76.5720234
  77.2569587   9.5721499  76.7907549  76.9041833   8.1010157  76.8472612
  62.1786492   0.7732607  90.4317052  61.4368228   0.9215242  91.0181682
  61.8579236   1.0340873  89.5683801  78.4610106   6.4014512  78.1007565
  78.9861430   6.7401784  77.3756885  78.3732458   5.4661527  77.9170700
  70.1230154  10.3148585  90.2297442  70.4317281  10.0697732  91.1020141
  70.9205636  10.5195224  89.7416312  70.1450766  12.4686495  82.4602818
  69.7055757  11.9762874  83.1535675  70.8958883  11.9259463  82.2194893
  62.6243105   8.6598036  82.4627446  63.4501125   8.3601808  82.0826090
  62.2737157   7.8905658  82.9117235  67.5924638   8.0124504  84.5325120
  66.9704648   7.3495209  84.2327348  68.2629505   8.0385636  83.8498768
  60.8251710   6.5784362  83.4216380  59.9883619   6.1506537  83.2400381
  60.7975356   6.7716806  84.3587171  67.6649166  -3.5093708  94.1257626
  67.7137321  -2.6331585  93.7435395  68.2071680  -4.0516315  93.5529269
  78.1504012   7.0347415  93.4058763  77.3599555   7.0171554  92.8663262
  77.9137366   7.5735709  94.1607799  78.2701887   3.8839882  90.7191491
  78.3199892   3.7189889  91.6607014  78.1615810   3.0167141  90.3289372
  67.1538145   6.5628427  78.0083580  67.3026266   7.2463892  77.3550253
  67.9604589   6.5433517  78.5233036  75.5605649  -0.1329190  92.0350798
  76.4615512  -0.2722726  91.7434796  75.6353624   0.0325264  92.9748976
  69.8948454  -2.7562336  90.8803984  69.0251764  -2.4628770  90.6086573
  70.1307935  -2.1721891  91.6011248  79.7720083   6.3036823  90.9633513
  79.4804892   6.6666804  91.7996974  79.1592215   5.5903831  90.7846845
  80.9715766   3.8689703  83.4836083  81.8062657   4.3079507  83.6473644
  81.1074895   3.3928356  82.6644329  78.0207272   1.4269438  89.4313571
  78.4961393   1.6197084  88.6232422  77.0972837   1.4828624  89.1856955
  64.9090778   2.5893605  79.0144649  64.6636820   1.6855935  79.2124859
  65.0786693   2.5910755  78.0724127  64.1786426  -1.6778037  76.5130811
  63.4855671  -1.6033683  75.8570847  63.9338178  -2.4417694  77.0352328
  70.6533551   9.0576558  75.4795328  70.0807518   9.6766745  75.0265800
  71.2266345   9.6075919  76.0135250  73.8730811   9.3413708  76.6103910
  74.8061484   9.2759270  76.8136786  73.7854023  10.1769975  76.1518443
  76.5018827   8.6579578  73.5707858  76.4232459   8.3239442  74.4643616
  77.3228494   9.1501346  73.5699330  79.1997018   1.5241318  86.7784176
  79.1673339   0.5857318  86.9643860  79.8097642   1.6025354  86.0450001
  71.0380349   0.3937370  72.8211380  71.9839454   0.2643579  72.8899798
  70.6594594  -0.3447968  73.2980808  85.0173568   2.5857324  85.9190213
  85.7476957   2.3242612  86.4797916  84.4080514   1.8486046  85.9592281
  83.0988865   0.7265187  86.5164664  82.3722029   0.5921152  85.9081156
  82.6836152   1.0342016  87.3221382  70.9219042   4.4455117  94.2812037
  71.8422051   4.6233716  94.4752084  70.8868625   3.5011162  94.1291737
  69.2223266  -1.6812653  72.7566265  68.3154722  -1.9779540  72.8328979
  69.4999248  -1.9782835  71.8900552  60.1401207  -0.3606290  83.2065312
  59.8203991  -1.2140982  82.9139686  59.5934635  -0.1457712  83.9623279
  63.9181114   2.3556151  86.9234818  64.1367124   3.2873259  86.9422852
  64.3306888   1.9964126  87.7089622  68.7908980  -2.0710643  96.3137567
  68.6905707  -1.1216286  96.2449658  68.5730522  -2.3992404  95.4413637
  60.0089467   3.2596622  85.1758433  59.3152938   2.8450575  84.6628388
  60.7562458   3.3017158  84.5791852  68.6540250   1.3586496  95.1302629
  68.1707332   2.1586856  95.3366518  68.7401189   1.3694441  94.1770073
  61.9226209   3.1914876  83.0524448  61.8996898   3.2902563  82.1006331
  62.2326846   4.0380026  83.3741614  64.5813587   5.2491031  87.1671063
  65.5356841   5.2174973  87.1000994  64.3826111   4.7881654  87.9821289
  65.1712969   3.8192147  89.7341860  65.9905858   4.3136225  89.7576698
  65.4449777   2.9024115  89.7059428  62.9363816  10.7910650  84.1841261
  62.8018284  10.0311051  83.6179259  62.5195878  11.5151550  83.7170050
  74.0722779   5.9747574  73.1917836  74.7758629   6.1797576  73.8075492
  73.3485428   6.5424336  73.4566919  74.9020589   1.7257435  79.3120106
  74.8455791   2.1825986  78.4727739  75.4548932   0.9648119  79.1342949
  66.0932942  11.6879967  84.3959703  65.9765326  12.6325400  84.2938394
  65.2725388  11.3853529  84.7845502  75.9809476   6.4130103  75.2416296
  76.8155080   5.9811301  75.0593771  75.8193819   6.2412117  76.1693190
  75.6355369   2.9162216  76.6072635  75.5804172   2.7506488  75.6661079
  75.0101424   3.6238249  76.7634825  60.4247884  -1.8469719  90.4334057
  61.0706747  -2.3570766  90.9221283  60.2165035  -1.1101038  91.0077483
  72.9501276   5.2211128  95.9326198  73.8192435   5.3951780  95.5712833
  72.4708027   6.0405545  95.8101927  67.1187456  12.3408229  87.6115632
  68.0214703  12.3731839  87.9282127  66.8924826  11.4108680  87.6261967
  68.8741058  11.0939216  84.2725710  67.9236689  11.0941077  84.1590083
  69.1773544  10.3471950  83.7561745  64.7645375  -4.7002102  94.5309072
  65.6276836  -5.0565298  94.7412396  64.1910785  -5.0388208  95.2184476
  84.6093752  16.9299754  85.3371473  85.2472162  16.8106501  84.6334813
  84.4914594  17.8780598  85.3959425  81.4183458  16.8827182  85.2732997
  81.0801969  16.7668247  84.3853532  82.2873226  16.4818347  85.2534004
  77.2770274  18.7362658  81.2629888  76.7135139  18.6452595  80.4946176
  77.1622669  17.9162563  81.7432381  81.9003241  18.0362034  91.2319203
  81.8891882  17.6414832  90.3599707  82.0623880  17.3028106  91.8252974
  74.8234705  20.2313850  84.1014109  75.6155997  19.8904675  83.6860408
  75.0631356  20.3408825  85.0216262  82.8569832  22.4033626  76.5744353
  82.2057812  22.9887707  76.1878367  83.6514195  22.9339821  76.6339391
  76.7825459  19.4922763  76.9731488  77.5556335  18.9451750  76.8344363
  77.1350858  20.3567013  77.1845949  78.6210502  20.8199146  90.1798387
  78.3300368  21.7244776  90.0645053  79.2567486  20.8615673  90.8942456
  79.5466709  18.1975994  86.7699747  80.1430281  17.9732016  86.0556710
  79.6041680  17.4560740  87.3725194  79.1191737  15.6515429  74.6049938
  79.3717258  15.1296951  73.8433401  78.1816296  15.4881575  74.7076621
  84.1635020  14.6551208  82.4124681  84.9498109  14.2370631  82.0615098
  84.4273724  15.5597300  82.5806329  84.3345097  20.0924058  77.1113338
  83.6990930  20.1658685  77.8234242  84.0042504  20.6817657  76.4332417
  89.5643447  14.5926441  83.3157659  90.2968619  14.0225658  83.5495489
  88.8082803  14.2048041  83.7564165  78.8388026  17.5543535  76.8074312
  78.7224284  16.8788439  77.4755397  78.9490286  17.0675909  75.9906466
  81.1819567  17.0153682  80.5121002  80.8177774  16.4884303  81.2233923
  82.0386683  16.6252152  80.3387487  87.0868868   8.3048015  87.7752268
  86.7552192   9.1743426  87.5513483  86.4914481   7.9884299  88.4546298
  80.8225054  12.0443582  75.5082350  80.9899456  12.9123819  75.8752821
  80.6322223  12.2070864  74.5843640  83.5800387  20.5060561  87.1748181
  83.2801110  21.4085600  87.0663988  83.2351447  20.2392744  88.0269334
  77.0312869  16.9574358  83.2084885  76.1063365  16.8250572  83.4162577
  77.2797282  17.7368577  83.7054827  86.9797531  13.0243101  84.8545618
  86.0714408  12.9558510  84.5604379  86.9285127  13.5015046  85.6827443
  80.8014275  14.5001240  76.4929017  80.6813900  14.9458290  77.3314497
  80.1066863  14.8486557  75.9342555  74.3921680  16.6007631  84.0428674
  74.5214061  16.8542110  84.9568086  73.7119131  17.1935339  83.7233329
  78.5621167  27.2704881  80.1419148  78.4845197  28.2212707  80.2207629
  77.9582810  26.9250754  80.7994075  81.0538397  14.4432747  92.7980515
  80.2771731  15.0026667  92.7883380  81.6928960  14.9289530  93.3195385
  88.8459177  11.2259540  86.6323492  88.2033558  11.5192073  85.9863286
  88.3414106  11.1112460  87.4376689  86.4999341  14.9722713  77.3209351
  87.4117197  15.2050100  77.1457049  85.9908988  15.5559757  76.7584430
  79.3084769  17.2518200  92.3598482  80.0499453  17.7903244  92.0833306
  78.6021754  17.8784489  92.5170034  84.7840109  19.3947341  90.9570644
  85.1923465  18.9529751  90.2125276  84.0617370  18.8199968  91.2104837
  81.1371179  14.3319947  88.3304201  81.9832374  14.7559361  88.4738850
  81.0769816  13.6753572  89.0242764  85.1068923  19.9548531  84.7122933
  84.4777786  20.1194245  84.0099000  84.7194585  20.3690141  85.4833897
  88.9858155  20.8902969  82.0667296  88.3009193  21.2701871  81.5164330
  89.0702004  21.4998296  82.7999244  84.2870624  11.9924316  89.9885374
  84.0431556  12.7466376  89.4519650  84.5630554  12.3709663  90.8232621
  86.2409087  18.5362928  88.6662640  86.4525982  19.1794688  87.9897021
  86.1938835  17.7025245  88.1984570  83.8435316  11.1480749  85.5699212
  82.9819795  11.4462002  85.8615950  83.8697750  11.3651148  84.6380245
  80.6596885  19.6922939  81.9773018  81.1235231  19.9710642  81.1877640
  80.3953683  18.7906384  81.7946108  77.5520966  19.2394421  84.9152781
  78.1222323  19.6681689  84.2770265  78.1429078  18.9577006  85.6136967
  79.5965771  15.8146092  78.7862583  80.2989815  16.2667135  79.2536509
  79.2646400  15.1729911  79.4142476  78.0446133  14.4057848  93.1613792
  77.4144793  15.0874129  93.3949189  77.9382221  14.2940930  92.2166930
  73.3391105  14.0729644  84.0879716  72.5490159  14.3287173  83.6119827
  73.8302353  14.8877982  84.1931757  87.3554915  21.4134884  86.8384997
  88.1772358  21.0115071  86.5567679  87.3517318  21.3103118  87.7901113
  75.2905851  14.4374224  81.0463193  74.4937014  14.5492918  81.5646689
  75.0631443  14.7760876  80.1804084  81.1211518  20.9618927  88.9945708
  81.1855951  21.4239334  89.8303880  80.4122442  20.3316292  89.1228018
  71.6228808  14.3260135  86.5194707  71.8736847  15.2107145  86.7852283
  72.1588357  14.1464736  85.7469799  95.4460908  17.7573632  83.1869969
  94.6924616  17.1881030  83.0313973  95.5808449  17.7236297  84.1340603
  80.8359536  22.6287034  78.8624688  80.7005211  23.4738570  79.2909536
  81.3769348  22.8306312  78.0990622  77.3226875   8.7078614  95.5239043
  76.9293821   8.1544813  96.1986687  78.1393016   9.0189193  95.9145561
  74.2888933  20.1462472  79.4352613  74.8013454  20.9405723  79.5858178
  74.9411646  19.4488763  79.3686215  76.0983818  23.2628229  81.5175366
  76.2750446  24.1846193  81.3296350  76.8940651  22.9486648  81.9469746
  80.2394836  10.1236493  93.1159300  80.9804550  10.7243646  93.0363762
  80.4712759   9.3814131  92.5577342  75.3836174  15.3092861  91.3937530
  75.2689690  14.4078118  91.6944628  74.5280692  15.5556557  91.0422346
  82.4628012  23.2510601  92.9925030  82.0191866  22.4646979  92.6745935
  83.1245226  23.4389751  92.3268921  77.2215133  24.7806402  87.5185709
  77.7722558  24.6523466  86.7462703  76.3826609  25.0801291  87.1680601
  84.5609250  23.5313401  91.0206431  84.5427726  24.3522282  90.5286701
  85.4829170  23.4067476  91.2456573  81.0182304  21.0457530  91.8629940
  81.5510641  20.2845818  91.6329248  80.4896385  20.7531182  92.6054094
  84.1851999   6.1517596  87.3923582  83.8416269   7.0419238  87.3162692
  84.5530962   5.9619254  86.5293167  72.2537850  18.4751127  80.2112184
  73.0913072  18.8848135  79.9945891  72.4316118  17.5350569  80.1812378
  84.1502282  16.1426207  75.8996017  83.6348906  16.9130812  76.1384404
  83.8779591  15.4691344  76.5229078  81.7349393  10.9875908  80.9581255
  80.8790989  10.5982759  80.7786894  82.1476345  11.0667869  80.0981041
  83.2648540   8.5222251  85.3572815  82.7613335   8.4852387  84.5440620
  83.5579147   9.4314994  85.4169471  79.5091426   8.6060981  84.3638996
  80.3744422   8.4103790  84.0044886  79.5768935   8.3771333  85.2908353
  89.1236556  18.8958562  77.8349190  88.3465999  18.5569722  77.3904352
  89.8028037  18.9011185  77.1604155  83.9388585  14.0153299  77.7255798
  83.6338721  14.3299449  78.5765941  84.8919027  14.0934719  77.7683131
  82.3835017  20.1743523  79.3748752  81.8556379  19.4396282  79.0621989
  81.8822520  20.9518199  79.1288720  87.3627863  18.3692543  84.4915798
  86.7051538  19.0591805  84.5795927  88.1668262  18.7588975  84.8349784
  77.1153745  10.8363189  81.7355363  77.6897497  10.6138371  81.0028556
  77.7024727  10.9051884  82.4883965  86.1733322  16.7236916  82.5419740
  86.6865204  17.3566908  83.0441450  86.8234546  16.1238111  82.1763100
  77.4423332  12.8667650  75.7551249  76.6060644  13.2042337  76.0760523
  77.3028101  12.7316630  74.8178386  79.4176412   7.7104438  80.4630433
  78.7640825   7.3953455  79.8387048  79.3756887   7.0880178  81.1890256
  80.5287617  17.9923733  72.3783725  79.6214679  17.7612986  72.5774874
  81.0258649  17.1961352  72.5657706  83.4355696  26.7021240  75.2980411
  82.7617395  27.0052937  75.9065369  83.8221518  27.5050321  74.9485868
  82.6514153  14.1986372  84.7878080  81.7336714  14.4201319  84.6299768
  83.0674296  14.2732682  83.9289788  83.4349201  15.5977787  79.9180761
  84.1821019  16.1099184  79.6087883  83.7040790  15.2761840  80.7785154
  81.7075851  18.0936328  76.9007715  80.7987070  17.8095361  76.9980185
  81.7370935  18.5135406  76.0411022  86.9395118  21.7042917  80.6698882
  86.4857445  20.8633827  80.7264073  86.3089085  22.3404316  81.0073663
  85.8828038  12.6334903  81.8999550  85.1450794  12.1212290  82.2309792
  86.1354811  12.1935285  81.0882827  85.3828057  23.5419414  81.6048701
  85.6751032  24.1024471  80.8861066  85.8926678  23.8347975  82.3601860
  85.9839665   5.4111155  82.4941319  86.2898542   4.5508519  82.2067234
  86.7092270   6.0028776  82.2940313  72.2764021  15.8141842  80.8822917
  72.0788421  15.2211203  80.1573984  71.7210685  15.5094052  81.5998856
  80.2560745  15.7064949  83.0017510  80.3109355  14.7538785  82.9259987
  79.4451947  15.8624388  83.4858809  81.4051939  19.6345072  74.2395793
  80.9671368  18.9180931  73.7801431  82.1462379  19.8621186  73.6780885
  78.1953105  14.3242008  80.7607889  77.3820970  14.6236179  81.1673081
  78.6912099  13.9297697  81.4782371  80.3461683  24.3199765  82.6942154
  80.3037861  24.5460611  81.7650686  81.2624381  24.0863140  82.8427955
  83.7927316  14.7883833  89.5922783  84.1476704  15.0155306  90.4517249
  84.4399448  15.1202210  88.9700038  89.5225053  17.9102269  80.2972112
  89.3842952  18.1003865  79.3693301  89.1661272  18.6721651  80.7540163
  77.6867179  11.8960364  86.3769124  78.3266559  11.7549123  85.6792087
  76.8544710  11.6094877  86.0007726  89.5494433  19.9778796  85.3083384
  89.9830940  19.8854085  86.1566438  90.2626014  19.9536296  84.6703400
  78.4627483  21.1962794  82.4904117  79.2568082  20.7013114  82.2886691
  77.7519176  20.6680657  82.1271822  83.2822328  23.5780890  86.8416484
  83.3359350  24.1471826  87.6094200  82.4137109  23.7482775  86.4770521
  74.7710247  15.3405876  78.5663869  73.8407835  15.2790331  78.7833831
  74.8667719  14.8181829  77.7700510  74.6895796  11.8660689  81.1542111
  74.9502613  12.7806022  81.0451271  75.5112968  11.3985131  81.3038724
  76.1620721  13.2798446  88.3240935  76.8343775  13.0715808  87.6753584
  75.3350508  13.0820532  87.8846168  90.4109982  20.0202496  87.8416269
  90.6045873  20.9248307  88.0875544  90.3110601  19.5609915  88.6754854
  82.0646293   9.9060387  90.3406596  81.4174208  10.6050337  90.2471073
  82.8347309  10.3396531  90.7082844  85.4725091  20.1709239  93.4157150
  85.3210598  19.9419791  92.4987233  85.4629771  21.1279840  93.4288495
  82.2410428  17.7441152  88.4003416  83.1702488  17.8952311  88.2272383
  81.8201458  17.8325173  87.5452063  81.0398759  21.7691816  86.1701954
  80.9009845  21.4010601  87.0427892  80.2513356  22.2839456  85.9985911
  81.6346911  26.8700913  77.5127490  81.8098667  26.3988956  78.3273113
  80.9479699  27.4966679  77.7408751  82.5903974  21.1473419  83.5590791
  82.2553807  21.1074189  84.4548441  82.0907920  20.4818135  83.0861202
  76.5648218  16.5541049  89.0843373  76.4268016  15.8221288  89.6854912
  77.4753142  16.4649949  88.8027560  85.5263166  18.4929453  73.8327851
  84.9092337  17.7676281  73.7360904  85.0579655  19.2538814  73.4894925
  79.1930519  16.2661008  88.5727052  79.9030138  15.6254200  88.5313671
  79.1499827  16.5173903  89.4953233  87.1817298  23.2028362  91.4933631
  87.1229844  22.5187582  90.8264214  87.5836816  23.9447352  91.0414257
  77.9059453  13.2526226  90.3922692  77.3696810  12.8016965  91.0444288
  77.3176162  13.3872135  89.6493156  77.3161712  12.7114878  72.9549155
  76.4391178  12.5903678  72.5911402  77.7919465  11.9200956  72.7028044
  87.1834705  21.1667946  89.7247611  86.2961484  20.8293867  89.8474010
  87.7533256  20.4350977  89.9616376  68.8363852  17.4992037  83.0490662
  69.5234892  17.1853767  82.4611678  68.6811981  18.4033402  82.7757914
  73.6398574  12.3882234  87.4775686  73.5556763  11.7807903  86.7426096
  72.8181281  12.8791252  87.4785183  80.7135858  25.8269398  86.6908854
  80.6406030  26.6324369  87.2028159  80.2713252  26.0261364  85.8656876
  80.5025638  25.0641168  80.2011676  79.7193160  25.6062848  80.2949900
  81.2018383  25.5815148  80.6005917  83.8122288  10.8735797  82.8445881
  84.3090988  10.1205760  82.5246951  83.0409270  10.9100114  82.2789091
  91.6652046  16.5776163  84.4864173  91.6541922  17.4600878  84.1158106
  90.7969425  16.2247714  84.2918710  83.1734542  25.7256232  88.8467013
  83.8862514  26.3603697  88.7742914  82.6824571  25.8220098  88.0307015
  84.8952069  19.6307485  80.4184305  83.9608348  19.7508947  80.2489009
  85.0728737  18.7279951  80.1544314  80.3957257  13.0153180  82.5717566
  80.0255044  12.4624221  83.2598471  80.8916349  12.4111314  82.0192566
  88.2824620  15.4724804  80.9534339  88.7485072  16.3052795  80.8794641
  88.7332121  15.0069785  81.6579597  78.2246456  23.4750675  89.6672584
  78.9255915  24.1087158  89.8201978  77.7541571  23.8165407  88.9068223
  86.3500851  21.8168625  77.9520491  86.6260695  21.7025220  78.8614365
  85.4805350  21.4186110  77.9132664  86.2541283   7.8405391  84.9925240
  85.3404363   8.0709618  85.1607447  86.6834384   7.9243835  85.8439272
  86.0247741  16.0295283  87.4925134  85.3719192  16.2771190  86.8377587
  86.4028121  15.2159421  87.1587611  82.9854915  26.0654976  81.5953304
  83.1677310  25.2476632  82.0581057  83.8087901  26.2822668  81.1578194
  83.3197081  24.9923161  78.8568353  83.8484847  24.4815616  78.2438515
  83.5825300  24.6765691  79.7213886  82.0735314  16.7715094  93.9791171
  81.3975952  16.6709223  94.6493546  82.8962948  16.6154308  94.4427168
  73.8214174  23.0087030  86.6003686  74.4067610  22.2630718  86.7331591
  73.6239012  23.3190987  87.4840350  76.6752829  26.0438278  81.6166129
  76.0063204  26.5284405  81.1330169  76.5365698  26.2907498  82.5309507
  68.4131828  15.5792631  85.3208130  68.4515928  15.0456221  86.1145248
  67.9072121  15.0527836  84.7019107  80.8158097  28.0782021  88.2148787
  81.3676405  28.2413643  88.9797872  81.1564291  28.6686459  87.5428812
  75.7922591  10.4257171  88.8170672  75.8563917  11.2872002  88.4048070
  75.7289711   9.8131173  88.0843030  75.2674863  12.4980304  92.4643706
  75.8946902  12.1157381  93.0781230  74.4102782  12.2794506  92.8299399
  85.6668972  22.9043279  94.0697442  86.2108876  23.5173237  93.5752396
  85.0855817  23.4622857  94.5864455  72.0440406  14.3056733  78.3962061
  72.3393847  13.3967411  78.3429115  71.1428442  14.2844472  78.0743063
  83.9526485  26.0263997  85.2012469  83.8277624  25.2253737  84.6923415
  84.6105576  26.5210190  84.7126439  75.5734653  12.3812729  84.3789610
  74.8521239  12.9948697  84.2397083  76.3627909  12.9170494  84.3006256
  86.0161393  23.8273017  86.8292019  85.0691729  23.7078368  86.7570346
  86.3644166  22.9395515  86.9118281  78.3760966   9.7167156  90.6530261
  78.8995368   9.9629452  91.4156571  78.1573300  10.5487191  90.2333399
  73.7728247  11.9870830  78.5201386  73.4440954  11.1068209  78.3376492
  74.1267618  11.9318499  79.4077775  83.0207826  23.6225733  83.0296372
  82.8732789  22.6942441  83.2103942  83.8461320  23.6445824  82.5453447
  76.8870071  12.2743800  78.8876864  77.2266143  12.8029721  78.1655472
  77.3342191  12.6124206  79.6635430  86.6241948  24.4454292  84.1161244
  87.5488496  24.2397153  83.9785696  86.4557252  24.1970693  85.0250586
  79.5813511  10.6580851  88.3379932  79.2410332   9.8588664  88.7400612
  78.8752518  10.9582562  87.7656765  80.2329983   7.7430163  86.7907255
  81.0556053   7.2690642  86.6686145  80.4768047   8.5220647  87.2905941
  78.8738218  10.7718422  77.0870157  79.5946580  11.1499675  76.5833873
  78.2503522  11.4907299  77.1905135  83.0169341  11.4763571  78.0228489
  83.2332955  12.3588209  77.7217317  82.5363408  11.0849784  77.2934131
  77.7568562  14.4349284  84.5999234  77.6113143  14.7489587  85.4923515
  77.2793766  15.0534184  84.0470132  79.6164945  11.4251832  84.6480123
  79.6026514  10.5292925  84.3112421  80.3337373  11.4322496  85.2818409
  81.4691076  11.8589172  86.6933251  81.2108853  12.7806243  86.6917581
  80.9376116  11.4619607  87.3833715  86.4137264  24.9639959  79.4723336
  86.5874142  24.3986382  78.7197188  86.9066156  25.7640854  79.2902826
  72.2314224  16.9754628  87.5386895  71.6867692  17.7514436  87.6707169
  73.1093574  17.3225433  87.3806016  79.0201841  10.3066212  79.9167693
  79.1417752   9.3782858  80.1158581  78.7303883  10.3204898  79.0046009
  81.8893031   7.9921123  83.0534413  81.9114728   8.0560456  82.0986393
  82.3061090   7.1525631  83.2474919  92.2676656  17.7276382  81.0913636
  92.7107802  16.9783707  80.6932759  91.3903166  17.7186519  80.7087368
  87.4012437  24.2806724  76.5720234  88.0963342  24.9013416  76.7907549
  87.7435587  23.4302075  76.8472612  73.0180246  16.1024525  90.4317052
  72.2761982  16.2507160  91.0181682  72.6972990  16.3632790  89.5683801
  89.3003860  21.7306429  78.1007565  89.8255184  22.0693702  77.3756885
  89.2126213  20.7953445  77.9170700  80.9623909  25.6440503  90.2297442
  81.2711035  25.3989650  91.1020141  81.7599391  25.8487141  89.7416312
  80.9844521  27.7978413  82.4602818  80.5449511  27.3054791  83.1535675
  81.7352638  27.2551380  82.2194893  73.4636860  23.9889953  82.4627446
  74.2894880  23.6893725  82.0826090  73.1130912  23.2197576  82.9117235
  78.4318393  23.3416422  84.5325120  77.8098402  22.6787127  84.2327348
  79.1023260  23.3677554  83.8498768  78.5042920  11.8198210  94.1257626
  78.5531076  12.6960332  93.7435395  79.0465435  11.2775603  93.5529269
  88.9897766  22.3639333  93.4058763  88.1993310  22.3463472  92.8663262
  88.7531121  22.9027627  94.1607799  89.1095641  19.2131799  90.7191491
  89.1593646  19.0481807  91.6607014  89.0009564  18.3459058  90.3289372
  77.9931900  21.8920345  78.0083580  78.1420020  22.5755809  77.3550253
  78.7998343  21.8725435  78.5233036  86.3999404  15.1962727  92.0350798
  87.3009266  15.0569192  91.7434796  86.4747378  15.3617182  92.9748976
  80.7342209  12.5729582  90.8803984  79.8645518  12.8663148  90.6086573
  80.9701689  13.1570027  91.6011248  90.6113838  21.6328741  90.9633513
  90.3198646  21.9958721  91.7996974  89.9985969  20.9195749  90.7846845
  91.8109520  19.1981621  83.4836083  92.6456412  19.6371425  83.6473644
  91.9468649  18.7220274  82.6644329  88.8601026  16.7561355  89.4313571
  89.3355148  16.9489002  88.6232422  87.9366592  16.8120541  89.1856955
  75.7484533  17.9185523  79.0144649  75.5030575  17.0147853  79.2124859
  75.9180447  17.9202673  78.0724127  83.4381243   8.7909199  88.3969405
  83.9563187   9.5270226  88.0715893  83.0836375   9.0973192  89.2316164
  75.0180180  13.6513880  76.5130811  74.3249425  13.7258235  75.8570847
  74.7731932  12.8874224  77.0352328  83.6893837   5.2109482  83.9170301
  83.9695591   4.5432671  84.5430728  84.4744444   5.4038577  83.4044965
  81.4927305  24.3868475  75.4795328  80.9201272  25.0058663  75.0265800
  82.0660099  24.9367837  76.0135250  87.5602695  13.6327116  87.6641877
  88.5120118  13.7325213  87.6854101  87.3906146  12.8405384  88.1739961
  85.5817075  10.7182699  87.8501277  84.9867007  10.9987711  87.1547766
  85.2966771  11.2076600  88.6218019  84.7124565  24.6705626  76.6103910
  85.6455238  24.6051187  76.8136786  84.6247778  25.5061892  76.1518443
  87.3412582  23.9871496  73.5707858  87.2626213  23.6531359  74.4643616
  88.1622249  24.4793264  73.5699330  90.0390773  16.8533235  86.7784176
  90.0067093  15.9149236  86.9643860  90.6491397  16.9317272  86.0450001
  81.8774104  15.7229288  72.8211380  82.8233209  15.5935496  72.8899798
  81.4988349  14.9843950  73.2980808  90.1885261  13.6444279  86.8242459
  89.6724310  12.8602735  86.6372388  91.0725210  13.3162995  86.9888979
  87.8495988   7.3885294  82.7838272  87.6520810   7.0800382  83.6681604
  88.4595694   8.1146933  82.9136202  95.8567323  17.9149242  85.9190213
  96.5870711  17.6534530  86.4797916  95.2474268  17.1777964  85.9592281
  93.9382620  16.0557105  86.5164664  93.2115784  15.9213070  85.9081156
  93.5229907  16.3633933  87.3221382  81.7612796  19.7747034  94.2812037
  82.6815806  19.9525633  94.4752084  81.7262379  18.8303080  94.1291737
  80.0617021  13.6479265  72.7566265  79.1548476  13.3512377  72.8328979
  80.3393002  13.3509083  71.8900552  70.9794961  14.9685628  83.2065312
  70.6597746  14.1150936  82.9139686  70.4328390  15.1834206  83.9623279
  74.7574869  17.6848069  86.9234818  74.9760879  18.6165177  86.9422852
  75.1700643  17.3256043  87.7089622  81.6779087   8.1916154  78.9110507
  80.8679815   7.8463239  79.2865753  82.3663504   7.8823698  79.4998118
  83.6069635   7.2694201  80.5334803  84.1600674   7.6889654  81.1924827
  83.8439721   6.3429949  80.5757759  79.6302734  13.2581275  96.3137567
  79.5299461  14.2075632  96.2449658  79.4124276  12.9299514  95.4413637
  78.8315806  10.5066200  72.8978245  79.6934970  10.8321098  73.1574062
  79.0166150   9.7197696  72.3851310  70.8483221  18.5888539  85.1758433
  70.1546693  18.1742492  84.6628388  71.5956212  18.6309076  84.5791852
  86.9848442   9.3794726  80.0413468  86.4047111  10.0379530  79.6591520
  86.7184375   8.5572071  79.6300885  85.4352008   8.7799784  82.2434788
  85.9351787   8.8916318  81.4349107  86.0787616   8.4760837  82.8835596
  79.4934004  16.6878414  95.1302629  79.0101086  17.4878774  95.3366518
  79.5794943  16.6986358  94.1770073  72.7619964  18.5206793  83.0524448
  72.7390652  18.6194481  82.1006331  73.0720600  19.3671944  83.3741614
  75.4207342  20.5782948  87.1671063  76.3750595  20.5466891  87.1000994
  75.2219865  20.1173572  87.9821289  76.0106724  19.1484064  89.7341860
  76.8299613  19.6428143  89.7576698  76.2843532  18.2316032  89.7059428
  85.7673320  11.5394817  79.0969816  84.8799175  11.8244467  78.8790011
  86.1827309  11.3788580  78.2497093  89.1187856  11.5641338  82.8124155
  89.8948246  12.0537790  83.0848772  88.3935990  11.9899392  83.2696025
  91.5560415  12.2768957  83.8698096  92.1504906  12.0364693  83.1591404
  91.6286999  11.5576087  84.4971632  84.9116534  21.3039491  73.1917836
  85.6152384  21.5089494  73.8075492  84.1879182  21.8716253  73.4566919
  85.7414344  17.0549353  79.3120106  85.6849545  17.5117904  78.4727739
  86.2942686  16.2940037  79.1342949  89.5519150  12.8439084  80.1370226
  89.2956084  12.4435720  80.9678433  88.9272018  13.5582878  80.0120365
  93.8631488  15.5835158  82.6441517  93.3031046  15.6528347  83.4173079
  93.2574991  15.4076142  81.9241013  76.9326696  27.0171885  84.3959703
  76.8159081  27.9617317  84.2938394  76.1119143  26.7145446  84.7845502
  86.8203231  21.7422020  75.2416296  87.6548835  21.3103219  75.0593771
  86.6587574  21.5704034  76.1693190  86.4749123  18.2454134  76.6072635
  86.4197927  18.0798405  75.6661079  85.8495178  18.9530167  76.7634825
  71.2641638  13.4822198  90.4334057  71.9100502  12.9721152  90.9221283
  71.0558789  14.2190880  91.0077483  83.7895030  20.5503046  95.9326198
  84.6586190  20.7243698  95.5712833  83.3101782  21.3697462  95.8101927
  79.7845249   7.7462243  76.1857954  79.7723918   8.6904083  76.3426225
  80.6768670   7.5632388  75.8917415  77.9581211  27.6700147  87.6115632
  78.8608457  27.7023757  87.9282127  77.7318581  26.7400598  87.6261967
  79.7134813  26.4231133  84.2725710  78.7630444  26.4232995  84.1590083
  80.0167299  25.6763868  83.7561745  83.5997368   4.3405019  80.4403890
  82.8329764   3.7863506  80.5860573  84.0108073   4.4126888  81.3018042
  75.6039129  10.6289815  94.5309072  76.4670591  10.2726620  94.7412396
  75.0304540  10.2903710  95.2184476  95.4487506  32.2591672  85.3371473
  96.0865916  32.1398419  84.6334813  95.3308349  33.2072516  85.3959425
  92.2577212  32.2119100  85.2732997  91.9195724  32.0960164  84.3853532
  93.1266981  31.8110265  85.2534004  88.1164028  34.0654576  81.2629888
  87.5528893  33.9744513  80.4946176  88.0016423  33.2454481  81.7432381
  92.7396995  33.3653951  91.2319203  92.7285636  32.9706750  90.3599707
  92.9017635  32.6320024  91.8252974  85.6628460  35.5605768  84.1014109
  86.4549752  35.2196592  83.6860408  85.9025110  35.6700743  85.0216262
  93.6963587  37.7325544  76.5744353  93.0451567  38.3179624  76.1878367
  94.4907950  38.2631739  76.6339391  87.6219214  34.8214681  76.9731488
  88.3950090  34.2743668  76.8344363  87.9744613  35.6858930  77.1845949
  89.4604256  36.1491063  90.1798387  89.1694122  37.0536694  90.0645053
  90.0961241  36.1907591  90.8942456  90.3860463  33.5267912  86.7699747
  90.9824036  33.3023934  86.0556710  90.4435435  32.7852657  87.3725194
  89.9585492  30.9807347  74.6049938  90.2111012  30.4588868  73.8433401
  89.0210051  30.8173493  74.7076621  95.0028775  29.9843125  82.4124681
  95.7891864  29.5662549  82.0615098  95.2667479  30.8889218  82.5806329
  95.1738852  35.4215976  77.1113338  94.5384685  35.4950602  77.8234242
  94.8436258  36.0109575  76.4332417 100.4037202  29.9218359  83.3157659
 101.1362374  29.3517575  83.5495489  99.6476557  29.5339959  83.7564165
  89.6781780  32.8835453  76.8074312  89.5618039  32.2080356  77.4755397
  89.7884040  32.3967827  75.9906466  92.0213321  32.3445600  80.5121002
  91.6571529  31.8176221  81.2233923  92.8780437  31.9544069  80.3387487
  97.9262622  23.6339933  87.7752268  97.5945947  24.5035344  87.5513483
  97.3308235  23.3176217  88.4546298  91.6618808  27.3735500  75.5082350
  91.8293211  28.2415736  75.8752821  91.4715977  27.5362782  74.5843640
  94.4194142  35.8352479  87.1748181  94.1194865  36.7377518  87.0663988
  94.0745201  35.5684662  88.0269334  87.8706623  32.2866276  83.2084885
  86.9457120  32.1542490  83.4162577  88.1191036  33.0660495  83.7054827
  97.8191285  28.3535019  84.8545618  96.9108163  28.2850427  84.5604379
  97.7678881  28.8306964  85.6827443  91.6408029  29.8293157  76.4929017
  91.5207654  30.2750208  77.3314497  90.9460618  30.1778475  75.9342555
  85.2315434  31.9299549  84.0428674  85.3607815  32.1834028  84.9568086
  84.5512885  32.5227257  83.7233329  89.4014921  42.5996799  80.1419148
  89.3238951  43.5504624  80.2207629  88.7976565  42.2542672  80.7994075
  91.8932151  29.7724665  92.7980515  91.1165485  30.3318585  92.7883380
  92.5322714  30.2581448  93.3195385  99.6852932  26.5551457  86.6323492
  99.0427312  26.8483990  85.9863286  99.1807860  26.4404378  87.4376689
  97.3393095  30.3014631  77.3209351  98.2510952  30.5342017  77.1457049
  96.8302742  30.8851675  76.7584430  90.1478523  32.5810118  92.3598482
  90.8893208  33.1195162  92.0833306  89.4415509  33.2076407  92.5170034
  95.6233863  34.7239258  90.9570644  96.0317219  34.2821669  90.2125276
  94.9011125  34.1491886  91.2104837  91.9764933  29.6611865  88.3304201
  92.8226128  30.0851279  88.4738850  91.9163571  29.0045489  89.0242764
  95.9462678  35.2840449  84.7122933  95.3171540  35.4486163  84.0099000
  95.5588340  35.6982059  85.4833897  99.8251910  36.2194887  82.0667296
  99.1402948  36.5993788  81.5164330  99.9095759  36.8290213  82.7999244
  95.1264378  27.3216233  89.9885374  94.8825310  28.0758294  89.4519650
  95.4024309  27.7001581  90.8232621  97.0802841  33.8654846  88.6662640
  97.2919736  34.5086606  87.9897021  97.0332589  33.0317162  88.1984570
  94.6829070  26.4772666  85.5699212  93.8213549  26.7753920  85.8615950
  94.7091505  26.6943065  84.6380245  91.4990640  35.0214857  81.9773018
  91.9628985  35.3002560  81.1877640  91.2347438  34.1198302  81.7946108
  88.3914721  34.5686339  84.9152781  88.9616078  34.9973607  84.2770265
  88.9822833  34.2868923  85.6136967  90.4359526  31.1438009  78.7862583
  91.1383569  31.5959053  79.2536509  90.1040154  30.5021828  79.4142476
  88.8839887  29.7349766  93.1613792  88.2538548  30.4166047  93.3949189
  88.7775975  29.6232848  92.2166930  84.1784860  29.4021562  84.0879716
  83.3883914  29.6579091  83.6119827  84.6696107  30.2169900  84.1931757
  98.1948669  36.7426801  86.8384997  99.0166113  36.3406989  86.5567679
  98.1911072  36.6395035  87.7901113  86.1299605  29.7666141  81.0463193
  85.3330768  29.8784836  81.5646689  85.9025197  30.1052794  80.1804084
  91.9605273  36.2910845  88.9945708  92.0249705  36.7531252  89.8303880
  91.2516197  35.6608209  89.1228018  82.4622563  29.6552053  86.5194707
  82.7130601  30.5399062  86.7852283  82.9982111  29.4756654  85.7469799
 106.2854662  33.0865550  83.1869969 105.5318371  32.5172948  83.0313973
 106.4202203  33.0528214  84.1340603  91.6753290  37.9578952  78.8624688
  91.5398965  38.8030488  79.2909536  92.2163103  38.1598230  78.0990622
  88.1620630  24.0370532  95.5239043  87.7687575  23.4836730  96.1986687
  88.9786770  24.3481110  95.9145561  85.1282688  35.4754390  79.4352613
  85.6407208  36.2697640  79.5858178  85.7805401  34.7780681  79.3686215
  86.9377572  38.5920146  81.5175366  87.1144201  39.5138111  81.3296350
  87.7334406  38.2778566  81.9469746  91.0788591  25.4528411  93.1159300
  91.8198304  26.0535564  93.0363762  91.3106514  24.7106049  92.5577342
  86.2229929  30.6384778  91.3937530  86.1083444  29.7370035  91.6944628
  85.3674447  30.8848475  91.0422346  93.3021767  38.5802519  92.9925030
  92.8585621  37.7938897  92.6745935  93.9638980  38.7681669  92.3268921
  88.0608888  40.1098320  87.5185709  88.6116313  39.9815384  86.7462703
  87.2220364  40.4093209  87.1680601  95.4003005  38.8605318  91.0206431
  95.3821480  39.6814200  90.5286701  96.3222925  38.7359394  91.2456573
  91.8576059  36.3749448  91.8629940  92.3904396  35.6137736  91.6329248
  91.3290140  36.0823100  92.6054094  95.0245754  21.4809514  87.3923582
  94.6810023  22.3711156  87.3162692  95.3924716  21.2911172  86.5293167
  83.0931604  33.8043044  80.2112184  83.9306826  34.2140053  79.9945891
  83.2709872  32.8642487  80.1812378  94.9896037  31.4718125  75.8996017
  94.4742660  32.2422730  76.1384404  94.7173345  30.7983261  76.5229078
  92.5743148  26.3167826  80.9581255  91.7184744  25.9274676  80.7786894
  92.9870099  26.3959787  80.0981041  94.1042294  23.8514169  85.3572815
  93.6007090  23.8144304  84.5440620  94.3972901  24.7606912  85.4169471
  90.3485180  23.9352899  84.3638996  91.2138177  23.7395707  84.0044886
  90.4162689  23.7063251  85.2908353  99.9630311  34.2250480  77.8349190
  99.1859753  33.8861639  77.3904352 100.6421792  34.2303103  77.1604155
  94.7782340  29.3445217  77.7255798  94.4732475  29.6591366  78.5765941
  95.7312782  29.4226637  77.7683131  93.2228772  35.5035440  79.3748752
  92.6950133  34.7688200  79.0621989  92.7216274  36.2810117  79.1288720
  98.2021618  33.6984461  84.4915798  97.5445292  34.3883722  84.5795927
  99.0062017  34.0880893  84.8349784  87.9547499  26.1655107  81.7355363
  88.5291251  25.9430288  81.0028556  88.5418482  26.2343801  82.4883965
  97.0127076  32.0528834  82.5419740  97.5258958  32.6858825  83.0441450
  97.6628300  31.4530029  82.1763100  88.2817086  28.1959568  75.7551249
  87.4454399  28.5334254  76.0760523  88.1421856  28.0608548  74.8178386
  90.2570167  23.0396356  80.4630433  89.6034579  22.7245373  79.8387048
  90.2150641  22.4172096  81.1890256  91.3681372  33.3215651  72.3783725
  90.4608434  33.0904904  72.5774874  91.8652404  32.5253270  72.5657706
  94.2749451  42.0313158  75.2980411  93.6011149  42.3344855  75.9065369
  94.6615273  42.8342238  74.9485868  93.4907907  29.5278289  84.7878080
  92.5730469  29.7493236  84.6299768  93.9068051  29.6024600  83.9289788
  94.2742955  30.9269705  79.9180761  95.0214774  31.4391102  79.6087883
  94.5434545  30.6053758  80.7785154  92.5469605  33.4228246  76.9007715
  91.6380824  33.1387278  76.9980185  92.5764689  33.8427324  76.0411022
  97.7788873  37.0334835  80.6698882  97.3251200  36.1925745  80.7264073
  97.1482839  37.6696233  81.0073663  96.7221792  27.9626821  81.8999550
  95.9844549  27.4504207  82.2309792  96.9748566  27.5227203  81.0882827
  96.2221812  38.8711332  81.6048701  96.5144786  39.4316389  80.8861066
  96.7320432  39.1639893  82.3601860  96.8233420  20.7403073  82.4941319
  97.1292296  19.8800437  82.2067234  97.5486024  21.3320693  82.2940313
  83.1157776  31.1433760  80.8822917  82.9182175  30.5503120  80.1573984
  82.5604440  30.8385970  81.5998856  91.0954499  31.0356866  83.0017510
  91.1503109  30.0830703  82.9259987  90.2845701  31.1916305  83.4858809
  92.2445693  34.9636989  74.2395793  91.8065123  34.2472848  73.7801431
  92.9856134  35.1913104  73.6780885  89.0346859  29.6533926  80.7607889
  88.2214725  29.9528096  81.1673081  89.5305853  29.2589615  81.4782371
  91.1855437  39.6491683  82.6942154  91.1431616  39.8752529  81.7650686
  92.1018136  39.4155057  82.8427955  94.6321071  30.1175750  89.5922783
  94.9870459  30.3447224  90.4517249  95.2793202  30.4494127  88.9700038
 100.3618808  33.2394186  80.2972112 100.2236706  33.4295782  79.3693301
 100.0055027  34.0013569  80.7540163  88.5260934  27.2252281  86.3769124
  89.1660313  27.0841041  85.6792087  87.6938464  26.9386795  86.0007726
 100.3888187  35.3070713  85.3083384 100.8224694  35.2146002  86.1566438
 101.1019768  35.2828214  84.6703400  89.3021238  36.5254712  82.4904117
  90.0961836  36.0305032  82.2886691  88.5912930  35.9972575  82.1271822
  94.1216082  38.9072807  86.8416484  94.1753105  39.4763744  87.6094200
  93.2530864  39.0774692  86.4770521  85.6104001  30.6697794  78.5663869
  84.6801589  30.6082249  78.7833831  85.7061473  30.1473746  77.7700510
  85.5289550  27.1952606  81.1542111  85.7896368  28.1097940  81.0451271
  86.3506723  26.7277049  81.3038724  87.0014476  28.6090364  88.3240935
  87.6737529  28.4007726  87.6753584  86.1744262  28.4112450  87.8846168
 101.2503737  35.3494414  87.8416269 101.4439627  36.2540224  88.0875544
 101.1504355  34.8901833  88.6754854  92.9040048  25.2352305  90.3406596
  92.2567963  25.9342254  90.2471073  93.6741063  25.6688448  90.7082844
  96.3118846  35.5001157  93.4157150  96.1604352  35.2711708  92.4987233
  96.3023525  36.4571758  93.4288495  93.0804182  33.0733069  88.4003416
  94.0096242  33.2244229  88.2272383  92.6595212  33.1617090  87.5452063
  91.8792514  37.0983734  86.1701954  91.7403600  36.7302518  87.0427892
  91.0907110  37.6131373  85.9985911  92.4740666  42.1992830  77.5127490
  92.6492421  41.7280874  78.3273113  91.7873454  42.8258597  77.7408751
  93.4297729  36.4765337  83.5590791  93.0947562  36.4366107  84.4548441
  92.9301675  35.8110052  83.0861202  87.4041973  31.8832967  89.0843373
  87.2661771  31.1513205  89.6854912  88.3146896  31.7941867  88.8027560
  96.3656921  33.8221371  73.8327851  95.7486091  33.0968199  73.7360904
  95.8973409  34.5830731  73.4894925  90.0324274  31.5952926  88.5727052
  90.7423892  30.9546118  88.5313671  89.9893582  31.8465821  89.4953233
  98.0211052  38.5320279  91.4933631  97.9623598  37.8479499  90.8264214
  98.4230571  39.2739269  91.0414257  88.7453208  28.5818144  90.3922692
  88.2090565  28.1308882  91.0444288  88.1569916  28.7164053  89.6493156
  87.0401751  45.3482193  84.2867350  87.2798349  45.9800717  84.9646369
  86.1970948  44.9970233  84.5732710  88.1555467  28.0406795  72.9549155
  87.2784933  27.9195596  72.5911402  88.6313220  27.2492874  72.7028044
  98.0228460  36.4959863  89.7247611  97.1355238  36.1585785  89.8474010
  98.5927011  35.7642894  89.9616376  84.4792329  27.7174151  87.4775686
  84.3950518  27.1099821  86.7426096  83.6575035  28.2083170  87.4785183
  91.5529613  41.1561316  86.6908854  91.4799784  41.9616287  87.2028159
  91.1107006  41.3553281  85.8656876  91.3419393  40.3933086  80.2011676
  90.5586914  40.9354766  80.2949900  92.0412138  40.9107065  80.6005917
  94.6516043  26.2027715  82.8445881  95.1484742  25.4497677  82.5246951
  93.8803024  26.2392032  82.2789091 102.5045800  31.9068081  84.4864173
 102.4935676  32.7892796  84.1158106 101.6363180  31.5539631  84.2918710
  94.0128296  41.0548150  88.8467013  94.7256269  41.6895614  88.7742914
  93.5218325  41.1512016  88.0307015  95.7345823  34.9599402  80.4184305
  94.8002102  35.0800865  80.2489009  95.9122492  34.0571869  80.1544314
  91.2351011  28.3445098  82.5717566  90.8648799  27.7916138  83.2598471
  91.7310104  27.7403231  82.0192566  99.1218375  30.8016722  80.9534339
  99.5878827  31.6344713  80.8794641  99.5725875  30.3361703  81.6579597
  89.0640210  38.8042593  89.6672584  89.7649669  39.4379076  89.8201978
  88.5935325  39.1457325  88.9068223  97.1894606  37.1460543  77.9520491
  97.4654450  37.0317137  78.8614365  96.3199105  36.7478028  77.9132664
  97.0935037  23.1697309  84.9925240  96.1798117  23.4001535  85.1607447
  97.5228139  23.2535753  85.8439272  96.8641496  31.3587200  87.4925134
  96.2112946  31.6063108  86.8377587  97.2421876  30.5451339  87.1587611
  93.8248670  41.3946894  81.5953304  94.0071064  40.5768550  82.0581057
  94.6481656  41.6114586  81.1578194  94.1590835  40.3215079  78.8568353
  94.6878602  39.8107533  78.2438515  94.4219055  40.0057609  79.7213886
  92.9129069  32.1007012  93.9791171  92.2369706  32.0001141  94.6493546
  93.7356703  31.9446225  94.4427168  84.6607928  38.3378948  86.6003686
  85.2461365  37.5922636  86.7331591  84.4632767  38.6482905  87.4840350
  87.5146583  41.3730195  81.6166129  86.8456959  41.8576323  81.1330169
  87.3759453  41.6199416  82.5309507  91.6551852  43.4073939  88.2148787
  92.2070160  43.5705560  88.9797872  91.9958045  43.9978377  87.5428812
  86.6316345  25.7549089  88.8170672  86.6957672  26.6163920  88.4048070
  86.5683465  25.1423090  88.0843030  86.1068618  27.8272221  92.4643706
  86.7340656  27.4449299  93.0781230  85.2496536  27.6086423  92.8299399
  96.5062726  38.2335197  94.0697442  97.0502630  38.8465155  93.5752396
  95.9249571  38.7914775  94.5864455  82.8834160  29.6348650  78.3962061
  83.1787601  28.7259329  78.3429115  81.9822196  29.6136390  78.0743063
  94.7920239  41.3555915  85.2012469  94.6671379  40.5545654  84.6923415
  95.4499330  41.8502108  84.7126439  86.4128407  27.7104647  84.3789610
  85.6914993  28.3240615  84.2397083  87.2021663  28.2462412  84.3006256
  96.8555148  39.1564935  86.8292019  95.9085483  39.0370286  86.7570346
  97.2037921  38.2687433  86.9118281  89.2154721  25.0459074  90.6530261
  89.7389123  25.2921370  91.4156571  88.9967054  25.8779108  90.2333399
  84.6122002  27.3162748  78.5201386  84.2834708  26.4360127  78.3376492
  84.9661373  27.2610417  79.4077775  93.8601581  38.9517651  83.0296372
  93.7126543  38.0234358  83.2103942  94.6855074  38.9737742  82.5453447
  87.7263825  27.6035718  78.8876864  88.0659898  28.1321639  78.1655472
  88.1735946  27.9416124  79.6635430  97.4635703  39.7746210  84.1161244
  98.3882250  39.5689071  83.9785696  97.2951006  39.5262611  85.0250586
  90.4207266  25.9872769  88.3379932  90.0804086  25.1880582  88.7400612
  89.7146272  26.2874479  87.7656765  91.0723738  23.0722081  86.7907255
  91.8949807  22.5982559  86.6686145  91.3161801  23.8512565  87.2905941
  89.7131972  26.1010339  77.0870157  90.4340335  26.4791592  76.5833873
  89.0897276  26.8199216  77.1905135  93.8563095  26.8055488  78.0228489
  94.0726710  27.6880126  77.7217317  93.3757162  26.4141702  77.2934131
  88.5962317  29.7641202  84.5999234  88.4506897  30.0781505  85.4923515
  88.1187520  30.3826102  84.0470132  90.4558699  26.7543750  84.6480123
  90.4420268  25.8584843  84.3112421  91.1731128  26.7614413  85.2818409
  92.3084830  27.1881090  86.6933251  92.0502608  28.1098161  86.6917581
  91.7769870  26.7911524  87.3833715  97.2531019  40.2931877  79.4723336
  97.4267896  39.7278299  78.7197188  97.7459910  41.0932772  79.2902826
  83.0707979  32.3046546  87.5386895  82.5261447  33.0806354  87.6707169
  83.9487329  32.6517351  87.3806016  89.8595595  25.6358130  79.9167693
  89.9811507  24.7074776  80.1158581  89.5697638  25.6496816  79.0046009
  92.7286786  23.3213040  83.0534413  92.7508483  23.3852373  82.0986393
  93.1454845  22.4817549  83.2474919 103.1070410  33.0568300  81.0913636
 103.5501556  32.3075625  80.6932759 102.2296920  33.0478436  80.7087368
  98.2406191  39.6098641  76.5720234  98.9357096  40.2305334  76.7907549
  98.5829342  38.7593993  76.8472612  83.8574001  31.4316442  90.4317052
  83.1155737  31.5799078  91.0181682  83.5366745  31.6924708  89.5683801
 100.1397614  37.0598347  78.1007565 100.6648939  37.3985620  77.3756885
 100.0519967  36.1245362  77.9170700  91.8017663  40.9732421  90.2297442
  92.1104790  40.7281567  91.1020141  92.5993145  41.1779059  89.7416312
  91.8238275  43.1270330  82.4602818  91.3843266  42.6346709  83.1535675
  92.5746392  42.5843298  82.2194893  84.3030614  39.3181871  82.4627446
  85.1288634  39.0185643  82.0826090  83.9524666  38.5489494  82.9117235
  89.2712147  38.6708339  84.5325120  88.6492157  38.0079044  84.2327348
  89.9417014  38.6969471  83.8498768  82.5039219  37.2368198  83.4216380
  81.6671128  36.8090372  83.2400381  82.4762865  37.4300641  84.3587171
  89.3436675  27.1490127  94.1257626  89.3924830  28.0252250  93.7435395
  89.8859189  26.6067520  93.5529269  99.8291521  37.6931251  93.4058763
  99.0387064  37.6755389  92.8663262  99.5924875  38.2319544  94.1607799
  99.9489396  34.5423717  90.7191491  99.9987401  34.3773724  91.6607014
  99.8403319  33.6750976  90.3289372  88.8325654  37.2212263  78.0083580
  88.9813775  37.9047727  77.3550253  89.6392098  37.2017353  78.5233036
  97.2393158  30.5254645  92.0350798  98.1403021  30.3861110  91.7434796
  97.3141133  30.6909100  92.9748976  91.5735963  27.9021500  90.8803984
  90.7039273  28.1955066  90.6086573  91.8095444  28.4861945  91.6011248
 101.4507592  36.9620658  90.9633513 101.1592401  37.3250639  91.7996974
 100.8379724  36.2487667  90.7846845 102.6503275  34.5273538  83.4836083
 103.4850166  34.9663342  83.6473644 102.7862404  34.0512191  82.6644329
  99.6994781  32.0853273  89.4313571 100.1748902  32.2780919  88.6232422
  98.7760346  32.1412459  89.1856955  86.5878287  33.2477440  79.0144649
  86.3424329  32.3439770  79.2124859  86.7574202  33.2494591  78.0724127
  94.2774997  24.1201117  88.3969405  94.7956941  24.8562144  88.0715893
  93.9230130  24.4265110  89.2316164  85.8573935  28.9805798  76.5130811
  85.1643180  29.0550153  75.8570847  85.6125687  28.2166141  77.0352328
  94.5287591  20.5401399  83.9170301  94.8089345  19.8724588  84.5430728
  95.3138198  20.7330495  83.4044965  92.3321060  39.7160393  75.4795328
  91.7595027  40.3350580  75.0265800  92.9053853  40.2659755  76.0135250
  98.3996450  28.9619033  87.6641877  99.3513873  29.0617131  87.6854101
  98.2299900  28.1697302  88.1739961  96.4210829  26.0474616  87.8501277
  95.8260761  26.3279629  87.1547766  96.1360526  26.5368517  88.6218019
  95.5518320  39.9997543  76.6103910  96.4848993  39.9343105  76.8136786
  95.4641532  40.8353810  76.1518443  98.1806336  39.3163414  73.5707858
  98.1019968  38.9823277  74.4643616  99.0016003  39.8085181  73.5699330
 100.8784527  32.1825153  86.7784176 100.8460848  31.2441154  86.9643860
 101.4885151  32.2609190  86.0450001  92.7167858  31.0521206  72.8211380
  93.6626963  30.9227414  72.8899798  92.3382103  30.3135868  73.2980808
 101.0279016  28.9736196  86.8242459 100.5118065  28.1894653  86.6372388
 101.9118964  28.6454913  86.9888979  98.6889743  22.7177212  82.7838272
  98.4914564  22.4092300  83.6681604  99.2989448  23.4438851  82.9136202
 106.6961077  33.2441160  85.9190213 107.4264466  32.9826448  86.4797916
 106.0868023  32.5069882  85.9592281 104.7776374  31.3849022  86.5164664
 104.0509538  31.2504987  85.9081156 104.3623661  31.6925851  87.3221382
  92.6006551  35.1038952  94.2812037  93.5209560  35.2817551  94.4752084
  92.5656134  34.1594997  94.1291737  90.9010775  28.9771182  72.7566265
  89.9942231  28.6804295  72.8328979  91.1786756  28.6801000  71.8900552
  81.8188716  30.2977546  83.2065312  81.4991500  29.4442854  82.9139686
  81.2722144  30.5126124  83.9623279  85.5968623  33.0139987  86.9234818
  85.8154633  33.9457094  86.9422852  86.0094397  32.6547961  87.7089622
  92.5172841  23.5208072  78.9110507  91.7073570  23.1755157  79.2865753
  93.2057258  23.2115616  79.4998118  94.4463389  22.5986119  80.5334803
  94.9994428  23.0181572  81.1924827  94.6833476  21.6721867  80.5757759
  90.4696489  28.5873192  96.3137567  90.3693216  29.5367549  96.2449658
  90.2518031  28.2591431  95.4413637  89.6709560  25.8358117  72.8978245
  90.5328724  26.1613016  73.1574062  89.8559904  25.0489613  72.3851310
  81.6876976  33.9180457  85.1758433  80.9940447  33.5034410  84.6628388
  82.4349967  33.9600994  84.5791852  97.8242197  24.7086644  80.0413468
  97.2440866  25.3671448  79.6591520  97.5578129  23.8863989  79.6300885
  96.2745763  24.1091702  82.2434788  96.7745541  24.2208236  81.4349107
  96.9181371  23.8052754  82.8835596  90.3327759  32.0170331  95.1302629
  89.8494840  32.8170691  95.3366518  90.4188698  32.0278276  94.1770073
  86.2601096  35.9074866  87.1671063  87.2144350  35.8758808  87.1000994
  86.0613620  35.4465490  87.9821289  86.8500478  34.4775982  89.7341860
  87.6693367  34.9720061  89.7576698  87.1237286  33.5607950  89.7059428
  96.6067075  26.8686734  79.0969816  95.7192930  27.1536385  78.8790011
  97.0221064  26.7080498  78.2497093  99.9581611  26.8933255  82.8124155
 100.7342001  27.3829708  83.0848772  99.2329745  27.3191309  83.2696025
 102.3954169  27.6060874  83.8698096 102.9898660  27.3656610  83.1591404
 102.4680753  26.8868005  84.4971632  84.6151325  41.4494485  84.1841261
  84.4805793  40.6894886  83.6179259  84.1983387  42.1735385  83.7170050
  95.7510288  36.6331409  73.1917836  96.4546138  36.8381411  73.8075492
  95.0272937  37.2008171  73.4566919  96.5808098  32.3841270  79.3120106
  96.5243300  32.8409822  78.4727739  97.1336441  31.6231955  79.1342949
 100.3912904  28.1731002  80.1370226 100.1349838  27.7727638  80.9678433
  99.7665772  28.8874796  80.0120365 104.7025242  30.9127075  82.6441517
 104.1424800  30.9820265  83.4173079 104.0968745  30.7368060  81.9241013
  87.7720451  42.3463802  84.3959703  87.6552835  43.2909235  84.2938394
  86.9512897  42.0437364  84.7845502  97.6596985  37.0713938  75.2416296
  98.4942589  36.6395137  75.0593771  97.4981328  36.8995952  76.1693190
  97.3142878  33.5746051  76.6072635  97.2591681  33.4090323  75.6661079
  96.6888933  34.2822084  76.7634825  82.1035393  28.8114116  90.4334057
  82.7494256  28.3013070  90.9221283  81.8952544  29.5482797  91.0077483
  94.6288785  35.8794963  95.9326198  95.4979944  36.0535616  95.5712833
  94.1495536  36.6989380  95.8101927  90.6239003  23.0754160  76.1857954
  90.6117673  24.0196000  76.3426225  91.5162425  22.8924306  75.8917415
  88.7974965  42.9992064  87.6115632  89.7002212  43.0315675  87.9282127
  88.5712335  42.0692515  87.6261967  90.5528567  41.7523051  84.2725710
  89.6024198  41.7524912  84.1590083  90.8561053  41.0055785  83.7561745
  94.4391123  19.6696937  80.4403890  93.6723518  19.1155424  80.5860573
  94.8501828  19.7418806  81.3018042  86.4432884  25.9581733  94.5309072
  87.3064345  25.6018538  94.7412396  85.8698294  25.6195628  95.2184476
 106.2881261  47.5883589  85.3371473 106.9259671  47.4690337  84.6334813
 106.1702103  48.5364433  85.3959425 103.0970967  47.5411017  85.2732997
 102.7589478  47.4252082  84.3853532 103.9660735  47.1402182  85.2534004
  98.9557783  49.3946494  81.2629888  98.3922648  49.3036431  80.4946176
  98.8410178  48.5746398  81.7432381 103.5790750  48.6945869  91.2319203
 103.5679391  48.2998667  90.3599707 103.7411389  47.9611942  91.8252974
  96.5022214  50.8897685  84.1014109  97.2943506  50.5488510  83.6860408
  96.7418865  50.9992660  85.0216262 104.5357341  53.0617461  76.5744353
 103.8845321  53.6471542  76.1878367 105.3301704  53.5923656  76.6339391
  98.4612968  50.1506599  76.9731488  99.2343844  49.6035586  76.8344363
  98.8138367  51.0150848  77.1845949 100.2998011  51.4782981  90.1798387
 100.0087877  52.3828612  90.0645053 100.9354995  51.5199509  90.8942456
 101.2254218  48.8559829  86.7699747 101.8217790  48.6315852  86.0556710
 101.2829189  48.1144575  87.3725194 100.7979246  46.3099265  74.6049938
 101.0504767  45.7880786  73.8433401  99.8603805  46.1465410  74.7076621
 105.8422529  45.3135043  82.4124681 106.6285618  44.8954466  82.0615098
 106.1061233  46.2181135  82.5806329 106.0132606  50.7507893  77.1113338
 105.3778439  50.8242520  77.8234242 105.6830013  51.3401492  76.4332417
 111.2430956  45.2510276  83.3157659 111.9756128  44.6809493  83.5495489
 110.4870312  44.8631877  83.7564165 100.5175535  48.2127371  76.8074312
 100.4011793  47.5372274  77.4755397 100.6277795  47.7259745  75.9906466
 102.8607076  47.6737518  80.5121002 102.4965283  47.1468139  81.2233923
 103.7174192  47.2835987  80.3387487 108.7656377  38.9631850  87.7752268
 108.4339701  39.8327261  87.5513483 108.1701990  38.6468134  88.4546298
 102.5012563  42.7027418  75.5082350 102.6686965  43.5707654  75.8752821
 102.3109732  42.8654699  74.5843640 105.2587896  51.1644396  87.1748181
 104.9588619  52.0669435  87.0663988 104.9138956  50.8976580  88.0269334
  98.7100378  47.6158193  83.2084885  97.7850874  47.4834407  83.4162577
  98.9584791  48.3952413  83.7054827 108.6585040  43.6826937  84.8545618
 107.7501917  43.6142345  84.5604379 108.6072636  44.1598882  85.6827443
 102.4801784  45.1585075  76.4929017 102.3601409  45.6042126  77.3314497
 101.7854372  45.5070393  75.9342555  96.0709189  47.2591467  84.0428674
  96.2001570  47.5125946  84.9568086  95.3906640  47.8519175  83.7233329
 100.2408676  57.9288717  80.1419148 100.1632706  58.8796542  80.2207629
  99.6370319  57.5834589  80.7994075 102.7325906  45.1016582  92.7980515
 101.9559240  45.6610502  92.7883380 103.3716469  45.5873365  93.3195385
 110.5246686  41.8843375  86.6323492 109.8821066  42.1775908  85.9863286
 110.0201615  41.7696295  87.4376689 108.1786850  45.6306548  77.3209351
 109.0904706  45.8633935  77.1457049 107.6696497  46.2143592  76.7584430
 100.9872278  47.9102036  92.3598482 101.7286962  48.4487080  92.0833306
 100.2809263  48.5368324  92.5170034 106.4627618  50.0531176  90.9570644
 106.8710974  49.6113587  90.2125276 105.7404879  49.4783804  91.2104837
 102.8158688  44.9903783  88.3304201 103.6619883  45.4143196  88.4738850
 102.7557325  44.3337407  89.0242764 106.7856432  50.6132367  84.7122933
 106.1565295  50.7778081  84.0099000 106.3982094  51.0273976  85.4833897
 110.6645664  51.5486805  82.0667296 109.9796702  51.9285706  81.5164330
 110.7489513  52.1582131  82.7999244 105.9658133  42.6508151  89.9885374
 105.7219065  43.4050212  89.4519650 106.2418063  43.0293499  90.8232621
 107.9196596  49.1946764  88.6662640 108.1313491  49.8378523  87.9897021
 107.8726344  48.3609080  88.1984570 105.5222825  41.8064584  85.5699212
 104.6607304  42.1045838  85.8615950 105.5485259  42.0234983  84.6380245
 102.3384394  50.3506775  81.9773018 102.8022740  50.6294478  81.1877640
 102.0741192  49.4490219  81.7946108  99.2308475  49.8978256  84.9152781
  99.8009832  50.3265525  84.2770265  99.8216587  49.6160841  85.6136967
 101.2753280  46.4729927  78.7862583 101.9777323  46.9250971  79.2536509
 100.9433909  45.8313746  79.4142476  99.7233642  45.0641684  93.1613792
  99.0932302  45.7457965  93.3949189  99.6169730  44.9524765  92.2166930
  95.0178614  44.7313480  84.0879716  94.2277668  44.9871008  83.6119827
  95.5089861  45.5461818  84.1931757 109.0342424  52.0718719  86.8384997
 109.8559867  51.6698906  86.5567679 109.0304827  51.9686953  87.7901113
  96.9693359  45.0958059  81.0463193  96.1724523  45.2076753  81.5646689
  96.7418952  45.4344711  80.1804084 102.7999027  51.6202762  88.9945708
 102.8643460  52.0823169  89.8303880 102.0909951  50.9900127  89.1228018
  93.3016317  44.9843970  86.5194707  93.5524356  45.8690980  86.7852283
  93.8375865  44.8048572  85.7469799 117.1248417  48.4157467  83.1869969
 116.3712125  47.8464865  83.0313973 117.2595958  48.3820132  84.1340603
 102.5147045  53.2870870  78.8624688 102.3792720  54.1322405  79.2909536
 103.0556857  53.4890147  78.0990622  99.0014384  39.3662450  95.5239043
  98.6081330  38.8128648  96.1986687  99.8180525  39.6773028  95.9145561
  95.9676442  50.8046308  79.4352613  96.4800963  51.5989558  79.5858178
  96.6199155  50.1072598  79.3686215  97.7771327  53.9212064  81.5175366
  97.9537955  54.8430029  81.3296350  98.5728160  53.6070483  81.9469746
 101.9182345  40.7820329  93.1159300 102.6592059  41.3827482  93.0363762
 102.1500268  40.0397966  92.5577342  97.0623683  45.9676696  91.3937530
  96.9477199  45.0661953  91.6944628  96.2068201  46.2140393  91.0422346
 104.1415521  53.9094436  92.9925030 103.6979375  53.1230815  92.6745935
 104.8032735  54.0973587  92.3268921  98.9002642  55.4390238  87.5185709
  99.4510067  55.3107301  86.7462703  98.0614118  55.7385127  87.1680601
 106.2396759  54.1897236  91.0206431 106.2215235  55.0106117  90.5286701
 107.1616679  54.0651311  91.2456573 102.6969813  51.7041366  91.8629940
 103.2298150  50.9429654  91.6329248 102.1683894  51.4115017  92.6054094
 105.8639508  36.8101432  87.3923582 105.5203778  37.7003073  87.3162692
 106.2318471  36.6203089  86.5293167  93.9325359  49.1334962  80.2112184
  94.7700581  49.5431970  79.9945891  94.1103627  48.1934404  80.1812378
 105.8289791  46.8010043  75.8996017 105.3136414  47.5714647  76.1384404
 105.5567100  46.1275179  76.5229078 103.4136902  41.6459743  80.9581255
 102.5578498  41.2566594  80.7786894 103.8263854  41.7251704  80.0981041
 104.9436049  39.1806087  85.3572815 104.4400844  39.1436222  84.5440620
 105.2366656  40.0898829  85.4169471 101.1878935  39.2644816  84.3638996
 102.0531931  39.0687625  84.0044886 101.2556444  39.0355168  85.2908353
 110.8024065  49.5542397  77.8349190 110.0253508  49.2153557  77.3904352
 111.4815546  49.5595021  77.1604155 105.6176094  44.6737135  77.7255798
 105.3126230  44.9883284  78.5765941 106.5706536  44.7518555  77.7683131
 104.0622526  50.8327358  79.3748752 103.5343888  50.0980118  79.0621989
 103.5610029  51.6102034  79.1288720 109.0415372  49.0276379  84.4915798
 108.3839047  49.7175640  84.5795927 109.8455771  49.4172811  84.8349784
  98.7941254  41.4947024  81.7355363  99.3685006  41.2722206  81.0028556
  99.3812236  41.5635719  82.4883965 107.8520831  47.3820751  82.5419740
 108.3652713  48.0150743  83.0441450 108.5022055  46.7821947  82.1763100
  99.1210841  43.5251485  75.7551249  98.2848153  43.8626172  76.0760523
  98.9815610  43.3900465  74.8178386 101.0963921  38.3688273  80.4630433
 100.4428334  38.0537290  79.8387048 101.0544396  37.7464014  81.1890256
 102.2075126  48.6507568  72.3783725 101.3002188  48.4196822  72.5774874
 102.7046158  47.8545188  72.5657706 105.1143205  57.3605076  75.2980411
 104.4404904  57.6636772  75.9065369 105.5009027  58.1634156  74.9485868
 104.3301662  44.8570207  84.7878080 103.4124223  45.0785154  84.6299768
 104.7461805  44.9316517  83.9289788 105.1136710  46.2561623  79.9180761
 105.8608528  46.7683020  79.6087883 105.3828299  45.9345675  80.7785154
 103.3863360  48.7520163  76.9007715 102.4774579  48.4679196  76.9980185
 103.4158444  49.1719242  76.0411022 108.6182627  52.3626753  80.6698882
 108.1644954  51.5217663  80.7264073 107.9876594  52.9988151  81.0073663
 107.5615547  43.2918739  81.8999550 106.8238303  42.7796125  82.2309792
 107.8142320  42.8519120  81.0882827 107.0615566  54.2003249  81.6048701
 107.3538541  54.7608307  80.8861066 107.5714187  54.4931810  82.3601860
 107.6627174  36.0694991  82.4941319 107.9686051  35.2092354  82.2067234
 108.3879779  36.6612611  82.2940313  93.9551530  46.4725677  80.8822917
  93.7575930  45.8795038  80.1573984  93.3998194  46.1677888  81.5998856
 101.9348254  46.3648784  83.0017510 101.9896864  45.4122620  82.9259987
 101.1239456  46.5208223  83.4858809 103.0839447  50.2928907  74.2395793
 102.6458877  49.5764766  73.7801431 103.8249888  50.5205022  73.6780885
  99.8740614  44.9825844  80.7607889  99.0608479  45.2820014  81.1673081
 100.3699608  44.5881532  81.4782371 102.0249192  54.9783601  82.6942154
 101.9825370  55.2044447  81.7650686 102.9411890  54.7446975  82.8427955
 105.4714825  45.4467668  89.5922783 105.8264213  45.6739141  90.4517249
 106.1186957  45.7786045  88.9700038 111.2012562  48.5686104  80.2972112
 111.0630461  48.7587700  79.3693301 110.8448781  49.3305487  80.7540163
  99.3654688  42.5544199  86.3769124 100.0054068  42.4132958  85.6792087
  98.5332219  42.2678713  86.0007726 111.2281942  50.6362631  85.3083384
 111.6618449  50.5437920  86.1566438 111.9413523  50.6120131  84.6703400
 100.1414992  51.8546630  82.4904117 100.9355591  51.3596950  82.2886691
  99.4306685  51.3264493  82.1271822 104.9609837  54.2364725  86.8416484
 105.0146859  54.8055661  87.6094200 104.0924618  54.4066610  86.4770521
  96.4497756  45.9989711  78.5663869  95.5195344  45.9374167  78.7833831
  96.5455228  45.4765664  77.7700510  96.3683305  42.5244524  81.1542111
  96.6290122  43.4389857  81.0451271  97.1900477  42.0568967  81.3038724
  97.8408230  43.9382281  88.3240935  98.5131284  43.7299643  87.6753584
  97.0138017  43.7404367  87.8846168 112.0897491  50.6786332  87.8416269
 112.2833382  51.5832142  88.0875544 111.9898110  50.2193751  88.6754854
 103.7433802  40.5644222  90.3406596 103.0961717  41.2634172  90.2471073
 104.5134818  40.9980366  90.7082844 107.1512600  50.8293074  93.4157150
 106.9998107  50.6003626  92.4987233 107.1417280  51.7863676  93.4288495
 103.9197937  48.4024987  88.4003416 104.8489997  48.5536147  88.2272383
 103.4988967  48.4909008  87.5452063 102.7186268  52.4275652  86.1701954
 102.5797354  52.0594436  87.0427892 101.9300865  52.9423291  85.9985911
 103.3134420  57.5284748  77.5127490 103.4886176  57.0572791  78.3273113
 102.6267208  58.1550514  77.7408751 104.2691483  51.8057254  83.5590791
 103.9341316  51.7658024  84.4548441 103.7695429  51.1401970  83.0861202
  98.2435727  47.2124884  89.0843373  98.1055525  46.4805123  89.6854912
  99.1540651  47.1233784  88.8027560 107.2050675  49.1513289  73.8327851
 106.5879846  48.4260117  73.7360904 106.7367164  49.9122649  73.4894925
 100.8718028  46.9244844  88.5727052 101.5817647  46.2838036  88.5313671
 100.8287336  47.1757738  89.4953233 108.8604807  53.8612197  91.4933631
 108.8017353  53.1771417  90.8264214 109.2624325  54.6031187  91.0414257
  99.5846962  43.9110061  90.3922692  99.0484319  43.4600800  91.0444288
  98.9963671  44.0455970  89.6493156  97.8795506  60.6774111  84.2867350
  98.1192104  61.3092635  84.9646369  97.0364702  60.3262151  84.5732710
  98.9949221  43.3698713  72.9549155  98.1178687  43.2487514  72.5911402
  99.4706974  42.5784791  72.7028044 108.8622214  51.8251781  89.7247611
 107.9748993  51.4877703  89.8474010 109.4320765  51.0934812  89.9616376
  90.5151361  48.1575873  83.0490662  91.2022401  47.8437603  82.4611678
  90.3599490  49.0617237  82.7757914  95.3186083  43.0466069  87.4775686
  95.2344272  42.4391739  86.7426096  94.4968790  43.5375087  87.4785183
 102.3923367  56.4853233  86.6908854 102.3193539  57.2908205  87.2028159
 101.9500761  56.6845199  85.8656876 102.1813147  55.7225003  80.2011676
 101.3980669  56.2646683  80.2949900 102.8805892  56.2398983  80.6005917
 105.4909797  41.5319633  82.8445881 105.9878497  40.7789595  82.5246951
 104.7196779  41.5683949  82.2789091 113.3439555  47.2359998  84.4864173
 113.3329431  48.1184714  84.1158106 112.4756934  46.8831549  84.2918710
 104.8522051  56.3840067  88.8467013 105.5650023  57.0187532  88.7742914
 104.3612080  56.4803933  88.0307015 106.5739578  50.2891320  80.4184305
 105.6395857  50.4092782  80.2489009 106.7516246  49.3863787  80.1544314
 102.0744766  43.6737016  82.5717566 101.7042553  43.1208056  83.2598471
 102.5703858  43.0695149  82.0192566 109.9612129  46.1308639  80.9534339
 110.4272581  46.9636631  80.8794641 110.4119630  45.6653621  81.6579597
  99.9033964  54.1334511  89.6672584 100.6043424  54.7670994  89.8201978
  99.4329079  54.4749242  88.9068223 108.0288360  52.4752460  77.9520491
 108.3048204  52.3609055  78.8614365 107.1592859  52.0769945  77.9132664
 107.9328792  38.4989226  84.9925240 107.0191872  38.7293453  85.1607447
 108.3621893  38.5827670  85.8439272 107.7035250  46.6879118  87.4925134
 107.0506701  46.9355026  86.8377587 108.0815630  45.8743256  87.1587611
 104.6642424  56.7238811  81.5953304 104.8464819  55.9060467  82.0581057
 105.4875410  56.9406504  81.1578194 104.9984590  55.6506996  78.8568353
 105.5272356  55.1399451  78.2438515 105.2612809  55.3349527  79.7213886
 103.7522823  47.4298929  93.9791171 103.0763460  47.3293059  94.6493546
 104.5750457  47.2738143  94.4427168  95.5001683  53.6670866  86.6003686
  96.0855119  52.9214554  86.7331591  95.3026521  53.9774822  87.4840350
  98.3540338  56.7022113  81.6166129  97.6850713  57.1868241  81.1330169
  98.2153207  56.9491334  82.5309507  90.0919337  46.2376466  85.3208130
  90.1303437  45.7040057  86.1145248  89.5859630  45.7111671  84.7019107
 102.4945606  58.7365857  88.2148787 103.0463914  58.8997478  88.9797872
 102.8351800  59.3270294  87.5428812  97.4710100  41.0841006  88.8170672
  97.5351426  41.9455837  88.4048070  97.4077220  40.4715008  88.0843030
  96.9462372  43.1564139  92.4643706  97.5734411  42.7741216  93.0781230
  96.0890291  42.9378341  92.8299399 107.3456481  53.5627114  94.0697442
 107.8896385  54.1757072  93.5752396 106.7643326  54.1206693  94.5864455
  93.7227915  44.9640568  78.3962061  94.0181356  44.0551247  78.3429115
  92.8215951  44.9428308  78.0743063 105.6313994  56.6847832  85.2012469
 105.5065133  55.8837572  84.6923415 106.2893085  57.1794026  84.7126439
  97.2522162  43.0396565  84.3789610  96.5308748  43.6532532  84.2397083
  98.0415418  43.5754330  84.3006256 107.6948902  54.4856852  86.8292019
 106.7479238  54.3662203  86.7570346 108.0431675  53.5979350  86.9118281
 100.0548475  40.3750991  90.6530261 100.5782877  40.6213288  91.4156571
  99.8360809  41.2071026  90.2333399  95.4515756  42.6454666  78.5201386
  95.1228463  41.7652045  78.3376492  95.8055127  42.5902334  79.4077775
 104.6995335  54.2809568  83.0296372 104.5520298  53.3526276  83.2103942
 105.5248829  54.3029659  82.5453447  98.5657580  42.9327636  78.8876864
  98.9053652  43.4613557  78.1655472  99.0129700  43.2708042  79.6635430
 108.3029457  55.1038127  84.1161244 109.2276005  54.8980989  83.9785696
 108.1344761  54.8554528  85.0250586 101.2601020  41.3164686  88.3379932
 100.9197841  40.5172499  88.7400612 100.5540027  41.6166397  87.7656765
 101.9117492  38.4013999  86.7907255 102.7343562  37.9274477  86.6686145
 102.1555556  39.1804482  87.2905941 100.5525727  41.4302257  77.0870157
 101.2734089  41.8083510  76.5833873  99.9291031  42.1491134  77.1905135
 104.6956850  42.1347406  78.0228489 104.9120464  43.0172044  77.7217317
 104.2150917  41.7433620  77.2934131  99.4356071  45.0933119  84.5999234
  99.2900652  45.4073422  85.4923515  98.9581275  45.7118020  84.0470132
 101.2952454  42.0835667  84.6480123 101.2814023  41.1876761  84.3112421
 102.0124882  42.0906331  85.2818409 103.1478585  42.5173008  86.6933251
 102.8896362  43.4390078  86.6917581 102.6163625  42.1203442  87.3833715
 108.0924773  55.6223795  79.4723336 108.2661651  55.0570217  78.7197188
 108.5853665  56.4224690  79.2902826  93.9101733  47.6338464  87.5386895
  93.3655201  48.4098272  87.6707169  94.7881083  47.9809268  87.3806016
 100.6989350  40.9650048  79.9167693 100.8205261  40.0366694  80.1158581
 100.4091392  40.9788734  79.0046009 103.5680540  38.6504958  83.0534413
 103.5902237  38.7144291  82.0986393 103.9848599  37.8109467  83.2474919
 113.9464165  48.3860218  81.0913636 114.3895311  47.6367543  80.6932759
 113.0690675  48.3770354  80.7087368 109.0799946  54.9390559  76.5720234
 109.7750850  55.5597252  76.7907549 109.4223096  54.0885910  76.8472612
  94.6967755  46.7608360  90.4317052  93.9549491  46.9090995  91.0181682
  94.3760499  47.0216626  89.5683801 110.9791369  52.3890265  78.1007565
 111.5042693  52.7277537  77.3756885 110.8913722  51.4537280  77.9170700
 102.6411418  56.3024338  90.2297442 102.9498544  56.0573485  91.1020141
 103.4386900  56.5070977  89.7416312 102.6632030  58.4562248  82.4602818
 102.2237020  57.9638627  83.1535675 103.4140147  57.9135216  82.2194893
  95.1424369  54.6473789  82.4627446  95.9682389  54.3477561  82.0826090
  94.7918421  53.8781411  82.9117235 100.1105902  54.0000257  84.5325120
  99.4885911  53.3370962  84.2327348 100.7810769  54.0261389  83.8498768
  93.3432974  52.5660115  83.4216380  92.5064882  52.1382290  83.2400381
  93.3156619  52.7592559  84.3587171 100.1830429  42.4782045  94.1257626
 100.2318585  43.3544168  93.7435395 100.7252944  41.9359438  93.5529269
 110.6685275  53.0223168  93.4058763 109.8780819  53.0047307  92.8663262
 110.4318630  53.5611462  94.1607799 110.7883150  49.8715635  90.7191491
 110.8381155  49.7065642  91.6607014 110.6797073  49.0042894  90.3289372
  99.6719409  52.5504180  78.0083580  99.8207529  53.2339645  77.3550253
 100.4785852  52.5309270  78.5233036 108.0786912  45.8546563  92.0350798
 108.9796775  45.7153028  91.7434796 108.1534887  46.0201017  92.9748976
 102.4129718  43.2313417  90.8803984 101.5433027  43.5246983  90.6086573
 102.6489198  43.8153862  91.6011248 112.2901347  52.2912576  90.9633513
 111.9986155  52.6542557  91.7996974 111.6773478  51.5779584  90.7846845
 113.4897029  49.8565456  83.4836083 114.3243921  50.2955260  83.6473644
 113.6256158  49.3804109  82.6644329 110.5388535  47.4145191  89.4313571
 111.0142657  47.6072837  88.6232422 109.6154101  47.4704377  89.1856955
  97.4272042  48.5769358  79.0144649  97.1818084  47.6731688  79.2124859
  97.5967956  48.5786508  78.0724127 105.1168752  39.4493034  88.3969405
 105.6350696  40.1854061  88.0715893 104.7623884  39.7557028  89.2316164
  96.6967689  44.3097716  76.5130811  96.0036934  44.3842071  75.8570847
  96.4519441  43.5458059  77.0352328 105.3681346  35.8693317  83.9170301
 105.6483100  35.2016506  84.5430728 106.1531953  36.0622412  83.4044965
 103.1714814  55.0452311  75.4795328 102.5988781  55.6642498  75.0265800
 103.7447608  55.5951672  76.0135250 109.2390204  44.2910951  87.6641877
 110.1907627  44.3909049  87.6854101 109.0693655  43.4989219  88.1739961
 107.2604584  41.3766534  87.8501277 106.6654516  41.6571547  87.1547766
 106.9754280  41.8660435  88.6218019 106.3912074  55.3289461  76.6103910
 107.3242747  55.2635023  76.8136786 106.3035287  56.1645728  76.1518443
 109.0200091  54.6455331  73.5707858 108.9413722  54.3115195  74.4643616
 109.8409758  55.1377099  73.5699330 111.7178282  47.5117071  86.7784176
 111.6854602  46.5733071  86.9643860 112.3278906  47.5901107  86.0450001
 103.5561613  46.3813124  72.8211380 104.5020718  46.2519332  72.8899798
 103.1775858  45.6427785  73.2980808 111.8672770  44.3028114  86.8242459
 111.3511819  43.5186571  86.6372388 112.7512719  43.9746831  86.9888979
 109.5283497  38.0469130  82.7838272 109.3308318  37.7384218  83.6681604
 110.1383203  38.7730768  82.9136202 117.5354832  48.5733077  85.9190213
 118.2658220  48.3118366  86.4797916 116.9261777  47.8361799  85.9592281
 115.6170129  46.7140940  86.5164664 114.8903293  46.5796905  85.9081156
 115.2017416  47.0217769  87.3221382 103.4400305  50.4330870  94.2812037
 104.3603315  50.6109469  94.4752084 103.4049888  49.4886915  94.1291737
 101.7404530  44.3063100  72.7566265 100.8335985  44.0096213  72.8328979
 102.0180511  44.0092918  71.8900552  92.6582470  45.6269463  83.2065312
  92.3385255  44.7734772  82.9139686  92.1115899  45.8418041  83.9623279
  96.4362378  48.3431904  86.9234818  96.6548388  49.2749012  86.9422852
  96.8488152  47.9839879  87.7089622 103.3566596  38.8499990  78.9110507
 102.5467324  38.5047075  79.2865753 104.0451013  38.5407533  79.4998118
 105.2857144  37.9278036  80.5334803 105.8388183  38.3473490  81.1924827
 105.5227230  37.0013785  80.5757759 101.3090243  43.9165110  96.3137567
 101.2086970  44.8659467  96.2449658 101.0911785  43.5883349  95.4413637
 100.5103315  41.1650035  72.8978245 101.3722479  41.4904933  73.1574062
 100.6953659  40.3781531  72.3851310  92.5270730  49.2472375  85.1758433
  91.8334202  48.8326328  84.6628388  93.2743721  49.2892911  84.5791852
 108.6635951  40.0378562  80.0413468 108.0834620  40.6963366  79.6591520
 108.3971884  39.2155906  79.6300885 107.1139517  39.4383619  82.2434788
 107.6139296  39.5500154  81.4349107 107.7575125  39.1344672  82.8835596
 101.1721513  47.3462249  95.1302629 100.6888595  48.1462609  95.3366518
 101.2582452  47.3570194  94.1770073  94.4407473  49.1790629  83.0524448
  94.4178161  49.2778316  82.1006331  94.7508109  50.0255779  83.3741614
  97.0994851  51.2366784  87.1671063  98.0538104  51.2050726  87.1000994
  96.9007374  50.7757407  87.9821289  97.6894233  49.8067900  89.7341860
  98.5087122  50.3011978  89.7576698  97.9631041  48.8899868  89.7059428
 107.4460829  42.1978652  79.0969816 106.5586684  42.4828303  78.8790011
 107.8614818  42.0372415  78.2497093 110.7975365  42.2225173  82.8124155
 111.5735755  42.7121625  83.0848772 110.0723499  42.6483227  83.2696025
 113.2347924  42.9352792  83.8698096 113.8292415  42.6948528  83.1591404
 113.3074508  42.2159923  84.4971632  95.4545080  56.7786403  84.1841261
  95.3199547  56.0186804  83.6179259  95.0377142  57.5027303  83.7170050
 106.5904043  51.9623327  73.1917836 107.2939893  52.1673329  73.8075492
 105.8666691  52.5300089  73.4566919 107.4201853  47.7133188  79.3120106
 107.3637054  48.1701739  78.4727739 107.9730195  46.9523873  79.1342949
 111.2306659  43.5022920  80.1370226 110.9743593  43.1019555  80.9678433
 110.6059527  44.2166714  80.0120365 115.5418997  46.2418993  82.6441517
 114.9818555  46.3112182  83.4173079 114.9362500  46.0659978  81.9241013
  98.6114205  57.6755720  84.3959703  98.4946590  58.6201153  84.2938394
  97.7906652  57.3729282  84.7845502 108.4990740  52.4005856  75.2416296
 109.3336344  51.9687054  75.0593771 108.3375083  52.2287870  76.1693190
 108.1536632  48.9037969  76.6072635 108.0985436  48.7382241  75.6661079
 107.5282687  49.6114002  76.7634825  92.9429147  44.1406034  90.4334057
  93.5888011  43.6304988  90.9221283  92.7346298  44.8774715  91.0077483
 105.4682539  51.2086881  95.9326198 106.3373699  51.3827533  95.5712833
 104.9889291  52.0281298  95.8101927 101.4632758  38.4046078  76.1857954
 101.4511427  39.3487918  76.3426225 102.3556179  38.2216224  75.8917415
  99.6368720  58.3283982  87.6115632 100.5395966  58.3607592  87.9282127
  99.4106090  57.3984433  87.6261967 101.3922322  57.0814969  84.2725710
 100.4417953  57.0816830  84.1590083 101.6954808  56.3347703  83.7561745
 105.2784877  34.9988855  80.4403890 104.5117273  34.4447341  80.5860573
 105.6895582  35.0710724  81.3018042  97.2826638  41.2873651  94.5309072
  98.1458100  40.9310455  94.7412396  96.7092049  40.9487545  95.2184476
 117.1275015  62.9175507  85.3371473 117.7653425  62.7982254  84.6334813
 117.0095858  63.8656351  85.3959425 113.9364721  62.8702935  85.2732997
 113.5983233  62.7544000  84.3853532 114.8054490  62.4694100  85.2534004
 109.7951537  64.7238411  81.2629888 109.2316402  64.6328348  80.4946176
 109.6803932  63.9038316  81.7432381 114.4184504  64.0237787  91.2319203
 114.4073145  63.6290585  90.3599707 114.5805144  63.2903859  91.8252974
 107.3415969  66.2189603  84.1014109 108.1337261  65.8780428  83.6860408
 107.5812619  66.3284578  85.0216262 115.3751096  68.3909379  76.5744353
 114.7239076  68.9763460  76.1878367 116.1695459  68.9215574  76.6339391
 109.3006723  65.4798516  76.9731488 110.0737599  64.9327503  76.8344363
 109.6532122  66.3442766  77.1845949 111.1391765  66.8074899  90.1798387
 110.8481631  67.7120529  90.0645053 111.7748750  66.8491426  90.8942456
 112.0647972  64.1851747  86.7699747 112.6611545  63.9607770  86.0556710
 112.1222944  63.4436493  87.3725194 111.6373001  61.6391182  74.6049938
 111.8898521  61.1172704  73.8433401 110.6997560  61.4757328  74.7076621
 116.6816284  60.6426961  82.4124681 117.4679373  60.2246384  82.0615098
 116.9454988  61.5473053  82.5806329 116.8526361  66.0799811  77.1113338
 116.2172194  66.1534438  77.8234242 116.5223767  66.6693410  76.4332417
 122.0824711  60.5802194  83.3157659 122.8149883  60.0101411  83.5495489
 121.3264066  60.1923794  83.7564165 111.3569289  63.5419288  76.8074312
 111.2405548  62.8664192  77.4755397 111.4671549  63.0551662  75.9906466
 113.7000830  63.0029436  80.5121002 113.3359038  62.4760056  81.2233923
 114.5567946  62.6127905  80.3387487 119.6050131  54.2923768  87.7752268
 119.2733456  55.1619179  87.5513483 119.0095744  53.9760052  88.4546298
 113.3406317  58.0319335  75.5082350 113.5080720  58.8999572  75.8752821
 113.1503486  58.1946617  74.5843640 116.0981651  66.4936314  87.1748181
 115.7982374  67.3961353  87.0663988 115.7532710  66.2268497  88.0269334
 109.5494132  62.9450111  83.2084885 108.6244628  62.8126325  83.4162577
 109.7978545  63.7244330  83.7054827 119.4978794  59.0118854  84.8545618
 118.5895672  58.9434263  84.5604379 119.4466390  59.4890799  85.6827443
 113.3195538  60.4876993  76.4929017 113.1995163  60.9334043  77.3314497
 112.6248127  60.8362310  75.9342555 106.9102943  62.5883384  84.0428674
 107.0395324  62.8417863  84.9568086 106.2300394  63.1811092  83.7233329
 111.0802430  73.2580634  80.1419148 111.0026460  74.2088460  80.2207629
 110.4764074  72.9126507  80.7994075 113.5719660  60.4308500  92.7980515
 112.7952994  60.9902420  92.7883380 114.2110223  60.9165283  93.3195385
 121.3640441  57.2135293  86.6323492 120.7214821  57.5067826  85.9863286
 120.8595369  57.0988213  87.4376689 119.0180604  60.9598466  77.3209351
 119.9298461  61.1925853  77.1457049 118.5090251  61.5435510  76.7584430
 111.8266032  63.2393953  92.3598482 112.5680717  63.7778997  92.0833306
 111.1203018  63.8660242  92.5170034 117.3021372  65.3823094  90.9570644
 117.7104728  64.9405504  90.2125276 116.5798634  64.8075721  91.2104837
 113.6552442  60.3195700  88.3304201 114.5013637  60.7435114  88.4738850
 113.5951080  59.6629325  89.0242764 117.6250187  65.9424284  84.7122933
 116.9959049  66.1069998  84.0099000 117.2375849  66.3565894  85.4833897
 121.5039419  66.8778722  82.0667296 120.8190457  67.2577624  81.5164330
 121.5883268  67.4874049  82.7999244 116.8051887  57.9800069  89.9885374
 116.5612819  58.7342129  89.4519650 117.0811818  58.3585416  90.8232621
 118.7590350  64.5238681  88.6662640 118.9707245  65.1670441  87.9897021
 118.7120098  63.6900998  88.1984570 116.3616579  57.1356502  85.5699212
 115.5001058  57.4337755  85.8615950 116.3879014  57.3526901  84.6380245
 113.1778149  65.6798692  81.9773018 113.6416494  65.9586395  81.1877640
 112.9134947  64.7782137  81.7946108 110.0702230  65.2270174  84.9152781
 110.6403587  65.6557442  84.2770265 110.6610341  64.9452759  85.6136967
 112.1147035  61.8021845  78.7862583 112.8171078  62.2542888  79.2536509
 111.7827663  61.1605664  79.4142476 110.5627396  60.3933601  93.1613792
 109.9326057  61.0749882  93.3949189 110.4563484  60.2816683  92.2166930
 105.8572369  60.0605397  84.0879716 105.0671423  60.3162926  83.6119827
 106.3483616  60.8753735  84.1931757 119.8736178  67.4010637  86.8384997
 120.6953622  66.9990824  86.5567679 119.8698581  67.2978871  87.7901113
 107.8087114  60.4249977  81.0463193 107.0118277  60.5368671  81.5646689
 107.5812706  60.7636629  80.1804084 113.6392782  66.9494680  88.9945708
 113.7037214  67.4115087  89.8303880 112.9303705  66.3192045  89.1228018
 104.1410072  60.3135888  86.5194707 104.3918110  61.1982898  86.7852283
 104.6769620  60.1340489  85.7469799 127.9642171  63.7449385  83.1869969
 127.2105880  63.1756783  83.0313973 128.0989712  63.7112050  84.1340603
 113.3540799  68.6162787  78.8624688 113.2186474  69.4614323  79.2909536
 113.8950612  68.8182065  78.0990622 109.8408139  54.6954367  95.5239043
 109.4475084  54.1420566  96.1986687 110.6574279  55.0064946  95.9145561
 106.8070197  66.1338225  79.4352613 107.3194717  66.9281476  79.5858178
 107.4592909  65.4364516  79.3686215 108.6165081  69.2503982  81.5175366
 108.7931710  70.1721946  81.3296350 109.4121915  68.9362401  81.9469746
 112.7576100  56.1112246  93.1159300 113.4985813  56.7119399  93.0363762
 112.9894023  55.3689884  92.5577342 107.9017438  61.2968614  91.3937530
 107.7870953  60.3953871  91.6944628 107.0461956  61.5432310  91.0422346
 114.9809276  69.2386354  92.9925030 114.5373130  68.4522732  92.6745935
 115.6426489  69.4265504  92.3268921 109.7396397  70.7682156  87.5185709
 110.2903822  70.6399219  86.7462703 108.9007873  71.0677045  87.1680601
 117.0790514  69.5189154  91.0206431 117.0608989  70.3398035  90.5286701
 118.0010434  69.3943229  91.2456573 113.5363568  67.0333283  91.8629940
 114.0691905  66.2721572  91.6329248 113.0077649  66.7406935  92.6054094
 116.7033263  52.1393349  87.3923582 116.3597532  53.0294991  87.3162692
 117.0712225  51.9495007  86.5293167 104.7719113  64.4626880  80.2112184
 105.6094335  64.8723888  79.9945891 104.9497381  63.5226322  80.1812378
 116.6683546  62.1301960  75.8996017 116.1530169  62.9006565  76.1384404
 116.3960854  61.4567097  76.5229078 114.2530657  56.9751661  80.9581255
 113.3972253  56.5858512  80.7786894 114.6657608  57.0543622  80.0981041
 115.7829803  54.5098004  85.3572815 115.2794599  54.4728140  84.5440620
 116.0760410  55.4190747  85.4169471 112.0272689  54.5936734  84.3638996
 112.8925686  54.3979543  84.0044886 112.0950198  54.3647086  85.2908353
 121.6417820  64.8834315  77.8349190 120.8647262  64.5445475  77.3904352
 122.3209301  64.8886938  77.1604155 116.4569849  60.0029052  77.7255798
 116.1519984  60.3175202  78.5765941 117.4100291  60.0810472  77.7683131
 114.9016281  66.1619276  79.3748752 114.3737642  65.4272035  79.0621989
 114.4003783  66.9393952  79.1288720 119.8809127  64.3568296  84.4915798
 119.2232801  65.0467558  84.5795927 120.6849526  64.7464728  84.8349784
 109.6335008  56.8238942  81.7355363 110.2078760  56.6014124  81.0028556
 110.2205991  56.8927637  82.4883965 118.6914585  62.7112669  82.5419740
 119.2046467  63.3442661  83.0441450 119.3415809  62.1113864  82.1763100
 109.9604595  58.8543403  75.7551249 109.1241908  59.1918090  76.0760523
 109.8209365  58.7192383  74.8178386 111.9357676  53.6980191  80.4630433
 111.2822088  53.3829208  79.8387048 111.8938150  53.0755931  81.1890256
 113.0468881  63.9799486  72.3783725 112.1395942  63.7488740  72.5774874
 113.5439913  63.1837105  72.5657706 115.9536960  72.6896993  75.2980411
 115.2798658  72.9928690  75.9065369 116.3402782  73.4926074  74.9485868
 115.1695416  60.1862125  84.7878080 114.2517978  60.4077072  84.6299768
 115.5855560  60.2608435  83.9289788 115.9530464  61.5853540  79.9180761
 116.7002283  62.0974937  79.6087883 116.2222054  61.2637593  80.7785154
 114.2257114  64.0812081  76.9007715 113.3168333  63.7971114  76.9980185
 114.2552198  64.5011159  76.0411022 119.4576382  67.6918670  80.6698882
 119.0038709  66.8509580  80.7264073 118.8270348  68.3280069  81.0073663
 118.4009301  58.6210656  81.8999550 117.6632058  58.1088043  82.2309792
 118.6536075  58.1811038  81.0882827 117.9009321  69.5295167  81.6048701
 118.1932295  70.0900224  80.8861066 118.4107941  69.8223728  82.3601860
 118.5020928  51.3986908  82.4941319 118.8079805  50.5384272  82.2067234
 119.2273533  51.9904529  82.2940313 104.7945285  61.8017595  80.8822917
 104.5969684  61.2086956  80.1573984 104.2391949  61.4969805  81.5998856
 112.7742008  61.6940702  83.0017510 112.8290618  60.7414538  82.9259987
 111.9633210  61.8500141  83.4858809 113.9233202  65.6220825  74.2395793
 113.4852632  64.9056684  73.7801431 114.6643643  65.8496939  73.6780885
 110.7134368  60.3117761  80.7607889 109.9002234  60.6111932  81.1673081
 111.2093362  59.9173450  81.4782371 112.8642946  70.3075518  82.6942154
 112.8219125  70.5336365  81.7650686 113.7805645  70.0738893  82.8427955
 116.3108580  60.7759586  89.5922783 116.6657968  61.0031059  90.4517249
 116.9580711  61.1077963  88.9700038 122.0406317  63.8978022  80.2972112
 121.9024215  64.0879618  79.3693301 121.6842536  64.6597404  80.7540163
 110.2048443  57.8836117  86.3769124 110.8447822  57.7424876  85.6792087
 109.3725973  57.5970630  86.0007726 122.0675696  65.9654549  85.3083384
 122.5012203  65.8729838  86.1566438 122.7807277  65.9412049  84.6703400
 110.9808747  67.1838547  82.4904117 111.7749345  66.6888867  82.2886691
 110.2700439  66.6556410  82.1271822 115.8003591  69.5656643  86.8416484
 115.8540614  70.1347579  87.6094200 114.9318373  69.7358528  86.4770521
 107.2891510  61.3281629  78.5663869 106.3589098  61.2666084  78.7833831
 107.3848982  60.8057582  77.7700510 107.2077059  57.8536442  81.1542111
 107.4683877  58.7681775  81.0451271 108.0294232  57.3860884  81.3038724
 108.6801985  59.2674199  88.3240935 109.3525038  59.0591561  87.6753584
 107.8531771  59.0696285  87.8846168 122.9291246  66.0078249  87.8416269
 123.1227136  66.9124060  88.0875544 122.8291864  65.5485668  88.6754854
 114.5827557  55.8936140  90.3406596 113.9355472  56.5926090  90.2471073
 115.3528572  56.3272284  90.7082844 117.9906355  66.1584992  93.4157150
 117.8391861  65.9295544  92.4987233 117.9811034  67.1155593  93.4288495
 114.7591691  63.7316905  88.4003416 115.6883751  63.8828064  88.2272383
 114.3382721  63.8200926  87.5452063 113.5580023  67.7567569  86.1701954
 113.4191108  67.3886354  87.0427892 112.7694619  68.2715209  85.9985911
 114.1528175  72.8576666  77.5127490 114.3279930  72.3864709  78.3273113
 113.4660963  73.4842432  77.7408751 115.1085238  67.1349172  83.5590791
 114.7735071  67.0949942  84.4548441 114.6089184  66.4693888  83.0861202
 109.0829482  62.5416802  89.0843373 108.9449280  61.8097041  89.6854912
 109.9934405  62.4525702  88.8027560 118.0444430  64.4805206  73.8327851
 117.4273600  63.7552034  73.7360904 117.5760918  65.2414567  73.4894925
 111.7111783  62.2536761  88.5727052 112.4211401  61.6129953  88.5313671
 111.6681091  62.5049656  89.4953233 119.6998561  69.1904115  91.4933631
 119.6411107  68.5063335  90.8264214 120.1018080  69.9323105  91.0414257
 110.4240717  59.2401979  90.3922692 109.8878074  58.7892718  91.0444288
 109.8357425  59.3747888  89.6493156 108.7189260  76.0066028  84.2867350
 108.9585858  76.6384553  84.9646369 107.8758457  75.6554068  84.5732710
 109.8342976  58.6990631  72.9549155 108.9572442  58.5779431  72.5911402
 110.3100729  57.9076709  72.7028044 119.7015969  67.1543699  89.7247611
 118.8142747  66.8169620  89.8474010 120.2714520  66.4226730  89.9616376
 101.3545116  63.4867790  83.0490662 102.0416155  63.1729520  82.4611678
 101.1993244  64.3909155  82.7757914 106.1579838  58.3757987  87.4775686
 106.0738027  57.7683656  86.7426096 105.3362544  58.8667005  87.4785183
 113.2317122  71.8145151  86.6908854 113.1587293  72.6200122  87.2028159
 112.7894515  72.0137117  85.8656876 113.0206902  71.0516921  80.2011676
 112.2374423  71.5938601  80.2949900 113.7199647  71.5690901  80.6005917
 116.3303552  56.8611550  82.8445881 116.8272251  56.1081513  82.5246951
 115.5590533  56.8975867  82.2789091 124.1833309  62.5651916  84.4864173
 124.1723185  63.4476631  84.1158106 123.3150688  62.2123467  84.2918710
 115.6915805  71.7131985  88.8467013 116.4043778  72.3479450  88.7742914
 115.2005834  71.8095851  88.0307015 117.4133332  65.6183238  80.4184305
 116.4789611  65.7384700  80.2489009 117.5910001  64.7155704  80.1544314
 112.9138520  59.0028933  82.5717566 112.5436308  58.4499974  83.2598471
 113.4097613  58.3987067  82.0192566 120.8005884  61.4600557  80.9534339
 121.2666336  62.2928548  80.8794641 121.2513384  60.9945538  81.6579597
 110.7427719  69.4626428  89.6672584 111.4437178  70.0962911  89.8201978
 110.2722834  69.8041160  88.9068223 118.8682115  67.8044378  77.9520491
 119.1441959  67.6900973  78.8614365 117.9986614  67.4061863  77.9132664
 118.7722546  53.8281144  84.9925240 117.8585626  54.0585371  85.1607447
 119.2015648  53.9119588  85.8439272 118.5429005  62.0171036  87.4925134
 117.8900455  62.2646943  86.8377587 118.9209385  61.2035174  87.1587611
 115.5036179  72.0530729  81.5953304 115.6858573  71.2352385  82.0581057
 116.3269165  72.2698421  81.1578194 115.8378344  70.9798914  78.8568353
 116.3666111  70.4691369  78.2438515 116.1006564  70.6641444  79.7213886
 114.5916578  62.7590847  93.9791171 113.9157215  62.6584976  94.6493546
 115.4144212  62.6030061  94.4427168 106.3395437  68.9962783  86.6003686
 106.9248874  68.2506471  86.7331591 106.1420275  69.3066740  87.4840350
 109.1934092  72.0314031  81.6166129 108.5244468  72.5160158  81.1330169
 109.0546962  72.2783251  82.5309507 100.9313092  61.5668384  85.3208130
 100.9697191  61.0331974  86.1145248 100.4253385  61.0403589  84.7019107
 113.3339361  74.0657774  88.2148787 113.8857669  74.2289396  88.9797872
 113.6745554  74.6562212  87.5428812 108.3103854  56.4132924  88.8170672
 108.3745181  57.2747755  88.4048070 108.2470974  55.8006926  88.0843030
 107.7856127  58.4856057  92.4643706 108.4128165  58.1033134  93.0781230
 106.9284045  58.2670259  92.8299399 118.1850235  68.8919032  94.0697442
 118.7290139  69.5048990  93.5752396 117.6037080  69.4498610  94.5864455
 104.5621669  60.2932486  78.3962061 104.8575110  59.3843164  78.3429115
 103.6609705  60.2720225  78.0743063 116.4707748  72.0139750  85.2012469
 116.3458888  71.2129490  84.6923415 117.1286839  72.5085943  84.7126439
 108.0915916  58.3688482  84.3789610 107.3702502  58.9824450  84.2397083
 108.8809172  58.9046247  84.3006256 118.5342657  69.8148770  86.8292019
 117.5872992  69.6954121  86.7570346 118.8825430  68.9271268  86.9118281
 110.8942230  55.7042909  90.6530261 111.4176632  55.9505205  91.4156571
 110.6754563  56.5362944  90.2333399 106.2909511  57.9746583  78.5201386
 105.9622217  57.0943962  78.3376492 106.6448882  57.9194252  79.4077775
 115.5389090  69.6101486  83.0296372 115.3914052  68.6818194  83.2103942
 116.3642583  69.6321577  82.5453447 109.4051334  58.2619553  78.8876864
 109.7447407  58.7905475  78.1655472 109.8523455  58.5999959  79.6635430
 119.1423212  70.4330045  84.1161244 120.0669759  70.2272906  83.9785696
 118.9738515  70.1846446  85.0250586 112.0994775  56.6456604  88.3379932
 111.7591595  55.8464417  88.7400612 111.3933781  56.9458315  87.7656765
 112.7511247  53.7305916  86.7907255 113.5737316  53.2566395  86.6686145
 112.9949310  54.5096400  87.2905941 111.3919481  56.7594175  77.0870157
 112.1127844  57.1375428  76.5833873 110.7684785  57.4783052  77.1905135
 115.5350604  57.4639324  78.0228489 115.7514219  58.3463962  77.7217317
 115.0544671  57.0725537  77.2934131 110.2749826  60.4225037  84.5999234
 110.1294406  60.7365340  85.4923515 109.7975029  61.0409937  84.0470132
 112.1346208  57.4127585  84.6480123 112.1207777  56.5168678  84.3112421
 112.8518636  57.4198249  85.2818409 113.9872339  57.8464925  86.6933251
 113.7290117  58.7681996  86.6917581 113.4557379  57.4495360  87.3833715
 118.9318528  70.9515712  79.4723336 119.1055405  70.3862135  78.7197188
 119.4247419  71.7516607  79.2902826 104.7495488  62.9630381  87.5386895
 104.2048956  63.7390189  87.6707169 105.6274838  63.3101186  87.3806016
 111.5383104  56.2941965  79.9167693 111.6599016  55.3658611  80.1158581
 111.2485147  56.3080651  79.0046009 114.4074295  53.9796876  83.0534413
 114.4295992  54.0436209  82.0986393 114.8242354  53.1401384  83.2474919
 124.7857919  63.7152135  81.0913636 125.2289065  62.9659460  80.6932759
 123.9084429  63.7062272  80.7087368 119.9193700  70.2682477  76.5720234
 120.6144605  70.8889169  76.7907549 120.2616850  69.4177828  76.8472612
 105.5361510  62.0900278  90.4317052 104.7943246  62.2382913  91.0181682
 105.2154254  62.3508543  89.5683801 121.8185123  67.7182182  78.1007565
 122.3436448  68.0569455  77.3756885 121.7307476  66.7829198  77.9170700
 113.4805172  71.6316256  90.2297442 113.7892299  71.3865403  91.1020141
 114.2780654  71.8362894  89.7416312 113.5025784  73.7854166  82.4602818
 113.0630775  73.2930544  83.1535675 114.2533901  73.2427133  82.2194893
 105.9818123  69.9765706  82.4627446 106.8076143  69.6769478  82.0826090
 105.6312175  69.2073329  82.9117235 110.9499656  69.3292175  84.5325120
 110.3279666  68.6662880  84.2327348 111.6204523  69.3553307  83.8498768
 104.1826728  67.8952033  83.4216380 103.3458637  67.4674207  83.2400381
 104.1550374  68.0884476  84.3587171 111.0224184  57.8073963  94.1257626
 111.0712339  58.6836085  93.7435395 111.5646698  57.2651356  93.5529269
 121.5079030  68.3515086  93.4058763 120.7174573  68.3339225  92.8663262
 121.2712384  68.8903380  94.1607799 121.6276905  65.2007552  90.7191491
 121.6774910  65.0357560  91.6607014 121.5190828  64.3334811  90.3289372
 110.5113163  67.8796098  78.0083580 110.6601284  68.5631562  77.3550253
 111.3179607  67.8601188  78.5233036 118.9180667  61.1838480  92.0350798
 119.8190530  61.0444945  91.7434796 118.9928641  61.3492935  92.9748976
 113.2523472  58.5605335  90.8803984 112.3826782  58.8538901  90.6086573
 113.4882953  59.1445780  91.6011248 123.1295101  67.6204494  90.9633513
 122.8379910  67.9834474  91.7996974 122.5167233  66.9071502  90.7846845
 124.3290784  65.1857374  83.4836083 125.1637675  65.6247178  83.6473644
 124.4649913  64.7096027  82.6644329 121.3782290  62.7437108  89.4313571
 121.8536411  62.9364755  88.6232422 120.4547855  62.7996294  89.1856955
 108.2665796  63.9061276  79.0144649 108.0211838  63.0023606  79.2124859
 108.4361711  63.9078426  78.0724127 115.9562506  54.7784952  88.3969405
 116.4744450  55.5145979  88.0715893 115.6017639  55.0848945  89.2316164
 107.5361444  59.6389633  76.5130811 106.8430689  59.7133988  75.8570847
 107.2913196  58.8749977  77.0352328 116.2075100  51.1985235  83.9170301
 116.4876854  50.5308424  84.5430728 116.9925707  51.3914330  83.4044965
 114.0108569  70.3744228  75.4795328 113.4382536  70.9934416  75.0265800
 114.5841362  70.9243590  76.0135250 120.0783959  59.6202869  87.6641877
 121.0301382  59.7200966  87.6854101 119.9087409  58.8281137  88.1739961
 118.0998338  56.7058452  87.8501277 117.5048270  56.9863464  87.1547766
 117.8148035  57.1952353  88.6218019 117.2305829  70.6581379  76.6103910
 118.1636502  70.5926940  76.8136786 117.1429041  71.4937645  76.1518443
 119.8593845  69.9747249  73.5707858 119.7807477  69.6407113  74.4643616
 120.6803512  70.4669017  73.5699330 122.5572036  62.8408988  86.7784176
 122.5248357  61.9024989  86.9643860 123.1672660  62.9193025  86.0450001
 114.3955367  61.7105041  72.8211380 115.3414472  61.5811249  72.8899798
 114.0169612  60.9719703  73.2980808 122.7066525  59.6320032  86.8242459
 122.1905574  58.8478488  86.6372388 123.5906473  59.3038748  86.9888979
 120.3677252  53.3761047  82.7838272 120.1702073  53.0676135  83.6681604
 120.9776957  54.1022686  82.9136202 128.3748586  63.9024995  85.9190213
 129.1051975  63.6410283  86.4797916 127.7655532  63.1653717  85.9592281
 126.4563883  62.0432858  86.5164664 125.7297047  61.9088823  85.9081156
 126.0411170  62.3509686  87.3221382 114.2794060  65.7622787  94.2812037
 115.1997069  65.9401386  94.4752084 114.2443643  64.8178833  94.1291737
 112.5798284  59.6355018  72.7566265 111.6729740  59.3388130  72.8328979
 112.8574265  59.3384836  71.8900552 103.4976225  60.9561381  83.2065312
 103.1779009  60.1026689  82.9139686 102.9509653  61.1709959  83.9623279
 107.2756132  63.6723822  86.9234818 107.4942142  64.6040930  86.9422852
 107.6881906  63.3131796  87.7089622 114.1960350  54.1791907  78.9110507
 113.3861079  53.8338992  79.2865753 114.8844767  53.8699451  79.4998118
 116.1250898  53.2569954  80.5334803 116.6781937  53.6765408  81.1924827
 116.3620985  52.3305702  80.5757759 112.1483998  59.2457028  96.3137567
 112.0480725  60.1951385  96.2449658 111.9305540  58.9175267  95.4413637
 111.3497069  56.4941953  72.8978245 112.2116233  56.8196851  73.1574062
 111.5347413  55.7073449  72.3851310 103.3664485  64.5764292  85.1758433
 102.6727956  64.1618245  84.6628388 104.1137476  64.6184829  84.5791852
 119.5029706  55.3670479  80.0413468 118.9228375  56.0255283  79.6591520
 119.2365638  54.5447824  79.6300885 117.9533272  54.7675537  82.2434788
 118.4533050  54.8792072  81.4349107 118.5968880  54.4636590  82.8835596
 112.0115268  62.6754167  95.1302629 111.5282349  63.4754527  95.3366518
 112.0976207  62.6862111  94.1770073 105.2801227  64.5082546  83.0524448
 105.2571915  64.6070234  82.1006331 105.5901864  65.3547697  83.3741614
 107.9388605  66.5658701  87.1671063 108.8931859  66.5342644  87.1000994
 107.7401129  66.1049325  87.9821289 108.5287987  65.1359817  89.7341860
 109.3480876  65.6303896  89.7576698 108.8024795  64.2191785  89.7059428
 118.2854584  57.5270570  79.0969816 117.3980439  57.8120220  78.8790011
 118.7008573  57.3664333  78.2497093 121.6369120  57.5517091  82.8124155
 122.4129510  58.0413543  83.0848772 120.9117254  57.9775145  83.2696025
 124.0741678  58.2644710  83.8698096 124.6686169  58.0240446  83.1591404
 124.1468262  57.5451840  84.4971632 106.2938834  72.1078321  84.1841261
 106.1593302  71.3478722  83.6179259 105.8770896  72.8319221  83.7170050
 117.4297797  67.2915244  73.1917836 118.1333647  67.4965247  73.8075492
 116.7060446  67.8592006  73.4566919 118.2595607  63.0425106  79.3120106
 118.2030809  63.4993657  78.4727739 118.8123950  62.2815790  79.1342949
 122.0700413  58.8314837  80.1370226 121.8137347  58.4311473  80.9678433
 121.4453281  59.5458631  80.0120365 126.3812751  61.5710911  82.6441517
 125.8212309  61.6404100  83.4173079 125.7756254  61.3951895  81.9241013
 109.4507960  73.0047638  84.3959703 109.3340344  73.9493070  84.2938394
 108.6300406  72.7021199  84.7845502 119.3384494  67.7297774  75.2416296
 120.1730098  67.2978972  75.0593771 119.1768837  67.5579787  76.1693190
 118.9930387  64.2329887  76.6072635 118.9379190  64.0674158  75.6661079
 118.3676442  64.9405920  76.7634825 103.7822902  59.4697951  90.4334057
 104.4281765  58.9596905  90.9221283 103.5740053  60.2066633  91.0077483
 116.3076294  66.5378799  95.9326198 117.1767453  66.7119451  95.5712833
 115.8283045  67.3573216  95.8101927 112.3026512  53.7337996  76.1857954
 112.2905182  54.6779836  76.3426225 113.1949934  53.5508141  75.8917415
 110.4762474  73.6575900  87.6115632 111.3789721  73.6899510  87.9282127
 110.2499844  72.7276351  87.6261967 112.2316076  72.4106886  84.2725710
 111.2811707  72.4108748  84.1590083 112.5348562  71.6639621  83.7561745
 116.1178632  50.3280772  80.4403890 115.3511027  49.7739259  80.5860573
 116.5289337  50.4002641  81.3018042 108.1220393  56.6165568  94.5309072
 108.9851854  56.2602373  94.7412396 107.5485803  56.2779463  95.2184476
 127.9668770  78.2467425  85.3371473 128.6047179  78.1274172  84.6334813
 127.8489612  79.1948269  85.3959425 124.7758476  78.1994853  85.2732997
 124.4376987  78.0835917  84.3853532 125.6448244  77.7986018  85.2534004
 120.6345292  80.0530329  81.2629888 120.0710157  79.9620266  80.4946176
 120.5197687  79.2330234  81.7432381 125.2578259  79.3529704  91.2319203
 125.2466900  78.9582503  90.3599707 125.4198898  78.6195777  91.8252974
 118.1809723  81.5481521  84.1014109 118.9731015  81.2072345  83.6860408
 118.4206374  81.6576496  85.0216262 126.2144850  83.7201297  76.5744353
 125.5632830  84.3055377  76.1878367 127.0089213  84.2507492  76.6339391
 121.9785520  82.1366816  90.1798387 121.6875386  83.0412447  90.0645053
 122.6142504  82.1783344  90.8942456 122.9041727  79.5143665  86.7699747
 123.5005299  79.2899687  86.0556710 122.9616698  78.7728410  87.3725194
 127.5210038  75.9718878  82.4124681 128.3073127  75.5538302  82.0615098
 127.7848742  76.8764971  82.5806329 127.6920115  81.4091729  77.1113338
 127.0565948  81.4826355  77.8234242 127.3617522  81.9985328  76.4332417
 132.9218465  75.9094112  83.3157659 133.6543637  75.3393328  83.5495489
 132.1657821  75.5215712  83.7564165 122.1963044  78.8711206  76.8074312
 122.0799302  78.1956109  77.4755397 122.3065304  78.3843580  75.9906466
 124.5394585  78.3321353  80.5121002 124.1752792  77.8051974  81.2233923
 125.3961701  77.9419822  80.3387487 130.4443885  69.6215686  87.7752268
 130.1127210  70.4911097  87.5513483 129.8489499  69.3051970  88.4546298
 124.1800072  73.3611253  75.5082350 124.3474474  74.2291489  75.8752821
 123.9897241  73.5238535  74.5843640 126.9375405  81.8228232  87.1748181
 126.6376128  82.7253271  87.0663988 126.5926465  81.5560415  88.0269334
 120.3887887  78.2742029  83.2084885 119.4638383  78.1418243  83.4162577
 120.6372300  79.0536248  83.7054827 130.3372549  74.3410772  84.8545618
 129.4289426  74.2726180  84.5604379 130.2860145  74.8182717  85.6827443
 124.1589293  75.8168910  76.4929017 124.0388918  76.2625961  77.3314497
 123.4641881  76.1654228  75.9342555 117.7496698  77.9175302  84.0428674
 117.8789079  78.1709781  84.9568086 117.0694149  78.5103010  83.7233329
 121.9196185  88.5872552  80.1419148 121.8420215  89.5380377  80.2207629
 121.3157828  88.2418425  80.7994075 124.4113415  75.7600418  92.7980515
 123.6346749  76.3194338  92.7883380 125.0503978  76.2457201  93.3195385
 132.2034195  72.5427210  86.6323492 131.5608575  72.8359744  85.9863286
 131.6989124  72.4280131  87.4376689 129.8574359  76.2890384  77.3209351
 130.7692215  76.5217770  77.1457049 129.3484006  76.8727428  76.7584430
 122.6659787  78.5685871  92.3598482 123.4074471  79.1070915  92.0833306
 121.9596772  79.1952160  92.5170034 128.1415127  80.7115011  90.9570644
 128.5498483  80.2697422  90.2125276 127.4192388  80.1367639  91.2104837
 124.4946197  75.6487618  88.3304201 125.3407392  76.0727032  88.4738850
 124.4344834  74.9921242  89.0242764 128.4643941  81.2716202  84.7122933
 127.8352804  81.4361916  84.0099000 128.0769603  81.6857812  85.4833897
 132.3433173  82.2070640  82.0667296 131.6584211  82.5869541  81.5164330
 132.4277022  82.8165967  82.7999244 127.6445642  73.3091987  89.9885374
 127.4006574  74.0634047  89.4519650 127.9205572  73.6877334  90.8232621
 129.5984105  79.8530599  88.6662640 129.8101000  80.4962359  87.9897021
 129.5513853  79.0192915  88.1984570 127.2010334  72.4648420  85.5699212
 126.3394813  72.7629673  85.8615950 127.2272768  72.6818818  84.6380245
 124.0171903  81.0090610  81.9773018 124.4810249  81.2878313  81.1877640
 123.7528701  80.1074055  81.7946108 120.9095984  80.5562092  84.9152781
 121.4797341  80.9849360  84.2770265 121.5004096  80.2744676  85.6136967
 122.9540789  77.1313762  78.7862583 123.6564832  77.5834806  79.2536509
 122.6221418  76.4897581  79.4142476 121.4021151  75.7225519  93.1613792
 120.7719811  76.4041800  93.3949189 121.2957239  75.6108601  92.2166930
 116.6966123  75.3897315  84.0879716 115.9065177  75.6454844  83.6119827
 117.1877370  76.2045653  84.1931757 130.7129933  82.7302554  86.8384997
 131.5347376  82.3282742  86.5567679 130.7092336  82.6270788  87.7901113
 118.6480868  75.7541894  81.0463193 117.8512032  75.8660589  81.5646689
 118.4206461  76.0928547  80.1804084 124.4786536  82.2786598  88.9945708
 124.5430969  82.7407005  89.8303880 123.7697460  81.6483963  89.1228018
 114.9803826  75.6427806  86.5194707 115.2311864  76.5274815  86.7852283
 115.5163374  75.4632407  85.7469799 138.8035926  79.0741303  83.1869969
 138.0499634  78.5048701  83.0313973 138.9383467  79.0403967  84.1340603
 124.1934554  83.9454705  78.8624688 124.0580229  84.7906241  79.2909536
 124.7344366  84.1473983  78.0990622 120.6801893  70.0246285  95.5239043
 120.2868839  69.4712483  96.1986687 121.4968034  70.3356863  95.9145561
 117.6463951  81.4630143  79.4352613 118.1588472  82.2573393  79.5858178
 118.2986664  80.7656434  79.3686215 119.4558836  84.5795899  81.5175366
 119.6325464  85.5013864  81.3296350 120.2515669  84.2654319  81.9469746
 123.5969854  71.4404164  93.1159300 124.3379568  72.0411317  93.0363762
 123.8287777  70.6981802  92.5577342 118.7411192  76.6260531  91.3937530
 118.6264708  75.7245789  91.6944628 117.8855710  76.8724228  91.0422346
 125.8203030  84.5678272  92.9925030 125.3766884  83.7814650  92.6745935
 126.4820244  84.7557422  92.3268921 120.5790151  86.0974073  87.5185709
 121.1297576  85.9691137  86.7462703 119.7401627  86.3968962  87.1680601
 127.9184268  84.8481072  91.0206431 127.9002744  85.6689953  90.5286701
 128.8404188  84.7235147  91.2456573 124.3757322  82.3625201  91.8629940
 124.9085659  81.6013489  91.6329248 123.8471403  82.0698853  92.6054094
 127.5427017  67.4685267  87.3923582 127.1991287  68.3586909  87.3162692
 127.9105980  67.2786925  86.5293167 115.6112868  79.7918797  80.2112184
 116.4488090  80.2015806  79.9945891 115.7891136  78.8518240  80.1812378
 127.5077300  77.4593878  75.8996017 126.9923923  78.2298483  76.1384404
 127.2354608  76.7859014  76.5229078 125.0924411  72.3043579  80.9581255
 124.2366007  71.9150429  80.7786894 125.5051363  72.3835540  80.0981041
 126.6223558  69.8389922  85.3572815 126.1188353  69.8020057  84.5440620
 126.9154165  70.7482665  85.4169471 122.8666444  69.9228652  84.3638996
 123.7319440  69.7271461  84.0044886 122.9343952  69.6939004  85.2908353
 132.4811574  80.2126233  77.8349190 131.7041017  79.8737392  77.3904352
 133.1603055  80.2178856  77.1604155 127.2963603  75.3320970  77.7255798
 126.9913739  75.6467119  78.5765941 128.2494045  75.4102390  77.7683131
 125.7410035  81.4911193  79.3748752 125.2131397  80.7563953  79.0621989
 125.2397538  82.2685870  79.1288720 130.7202881  79.6860214  84.4915798
 130.0626556  80.3759475  84.5795927 131.5243280  80.0756646  84.8349784
 120.4728763  72.1530860  81.7355363 121.0472515  71.9306041  81.0028556
 121.0599745  72.2219554  82.4883965 129.5308340  78.0404587  82.5419740
 130.0440222  78.6734578  83.0441450 130.1809564  77.4405782  82.1763100
 122.7751430  69.0272109  80.4630433 122.1215843  68.7121126  79.8387048
 122.7331905  68.4047849  81.1890256 126.7930714  88.0188911  75.2980411
 126.1192413  88.3220608  75.9065369 127.1796536  88.8217991  74.9485868
 126.0089171  75.5154042  84.7878080 125.0911732  75.7368989  84.6299768
 126.4249314  75.5900353  83.9289788 126.7924218  76.9145458  79.9180761
 127.5396037  77.4266855  79.6087883 127.0615808  76.5929511  80.7785154
 125.0650869  79.4103999  76.9007715 124.1562088  79.1263031  76.9980185
 125.0945952  79.8303077  76.0411022 130.2970136  83.0210588  80.6698882
 129.8432463  82.1801498  80.7264073 129.6664103  83.6571986  81.0073663
 129.2403056  73.9502574  81.8999550 128.5025812  73.4379960  82.2309792
 129.4929829  73.5102956  81.0882827 128.7403075  84.8587085  81.6048701
 129.0326050  85.4192142  80.8861066 129.2501696  85.1515646  82.3601860
 129.3414683  66.7278826  82.4941319 129.6473560  65.8676190  82.2067234
 130.0667288  67.3196446  82.2940313 115.6339039  77.1309513  80.8822917
 115.4363439  76.5378873  80.1573984 115.0785703  76.8261723  81.5998856
 123.6135763  77.0232619  83.0017510 123.6684372  76.0706456  82.9259987
 122.8026965  77.1792058  83.4858809 124.7626956  80.9512742  74.2395793
 124.3246386  80.2348601  73.7801431 125.5037397  81.1788857  73.6780885
 121.5528123  75.6409679  80.7607889 120.7395988  75.9403850  81.1673081
 122.0487117  75.2465368  81.4782371 123.7036701  85.6367436  82.6942154
 123.6612879  85.8628282  81.7650686 124.6199399  85.4030810  82.8427955
 127.1502334  76.1051503  89.5922783 127.5051722  76.3322977  90.4517249
 127.7974466  76.4369880  88.9700038 132.8800071  79.2269939  80.2972112
 132.7417970  79.4171535  79.3693301 132.5236290  79.9889322  80.7540163
 121.0442197  73.2128034  86.3769124 121.6841577  73.0716794  85.6792087
 120.2119728  72.9262548  86.0007726 132.9069451  81.2946466  85.3083384
 133.3405958  81.2021755  86.1566438 133.6201032  81.2703967  84.6703400
 121.8202501  82.5130465  82.4904117 122.6143100  82.0180785  82.2886691
 121.1094194  81.9848328  82.1271822 126.6397346  84.8948560  86.8416484
 126.6934368  85.4639497  87.6094200 125.7712127  85.0650445  86.4770521
 118.1285265  76.6573547  78.5663869 117.1982853  76.5958002  78.7833831
 118.2242737  76.1349499  77.7700510 118.0470814  73.1828359  81.1542111
 118.3077631  74.0973693  81.0451271 118.8687986  72.7152802  81.3038724
 119.5195739  74.5966117  88.3240935 120.1918793  74.3883479  87.6753584
 118.6925526  74.3988203  87.8846168 133.7685000  81.3370167  87.8416269
 133.9620891  82.2415977  88.0875544 133.6685619  80.8777586  88.6754854
 125.4221311  71.2228058  90.3406596 124.7749226  71.9218007  90.2471073
 126.1922327  71.6564201  90.7082844 128.8300109  81.4876910  93.4157150
 128.6785616  81.2587461  92.4987233 128.8204789  82.4447511  93.4288495
 125.5985446  79.0608822  88.4003416 126.5277506  79.2119982  88.2272383
 125.1776476  79.1492843  87.5452063 124.3973777  83.0859487  86.1701954
 124.2584863  82.7178271  87.0427892 123.6088374  83.6007126  85.9985911
 124.9921929  88.1868583  77.5127490 125.1673685  87.7156627  78.3273113
 124.3054717  88.8134350  77.7408751 125.9478992  82.4641090  83.5590791
 125.6128825  82.4241860  84.4548441 125.4482938  81.7985806  83.0861202
 119.9223236  77.8708720  89.0843373 119.7843034  77.1388958  89.6854912
 120.8328160  77.7817620  88.8027560 122.5505537  77.5828679  88.5727052
 123.2605156  76.9421871  88.5313671 122.5074845  77.8341574  89.4953233
 130.5392316  84.5196032  91.4933631 130.4804862  83.8355252  90.8264214
 130.9411834  85.2615022  91.0414257 121.2634471  74.5693897  90.3922692
 120.7271828  74.1184635  91.0444288 120.6751179  74.7039806  89.6493156
 119.5583015  91.3357946  84.2867350 119.7979613  91.9676470  84.9646369
 118.7152211  90.9845986  84.5732710 130.5409723  82.4835616  89.7247611
 129.6536502  82.1461538  89.8474010 131.1108274  81.7518647  89.9616376
 112.1938870  78.8159708  83.0490662 112.8809910  78.5021438  82.4611678
 112.0386999  79.7201073  82.7757914 116.9973592  73.7049905  87.4775686
 116.9131781  73.0975574  86.7426096 116.1756299  74.1958923  87.4785183
 124.0710876  87.1437069  86.6908854 123.9981048  87.9492040  87.2028159
 123.6288270  87.3429034  85.8656876 123.8600656  86.3808839  80.2011676
 123.0768178  86.9230519  80.2949900 124.5593401  86.8982818  80.6005917
 127.1697306  72.1903468  82.8445881 127.6666006  71.4373430  82.5246951
 126.3984288  72.2267785  82.2789091 135.0227064  77.8943834  84.4864173
 135.0116940  78.7768549  84.1158106 134.1544443  77.5415384  84.2918710
 126.5309560  87.0423903  88.8467013 127.2437532  87.6771367  88.7742914
 126.0399589  87.1387769  88.0307015 128.2527087  80.9475155  80.4184305
 127.3183366  81.0676618  80.2489009 128.4303755  80.0447622  80.1544314
 123.7532275  74.3320851  82.5717566 123.3830062  73.7791891  83.2598471
 124.2491367  73.7278985  82.0192566 131.6399638  76.7892475  80.9534339
 132.1060090  77.6220466  80.8794641 132.0907139  76.3237456  81.6579597
 121.5821473  84.7918346  89.6672584 122.2830933  85.4254829  89.8201978
 121.1116588  85.1333078  88.9068223 129.7075869  83.1336296  77.9520491
 129.9835713  83.0192890  78.8614365 128.8380368  82.7353781  77.9132664
 129.6116301  69.1573062  84.9925240 128.6979381  69.3877288  85.1607447
 130.0409402  69.2411506  85.8439272 129.3822759  77.3462954  87.4925134
 128.7294210  77.5938861  86.8377587 129.7603139  76.5327092  87.1587611
 126.3429933  87.3822647  81.5953304 126.5252328  86.5644303  82.0581057
 127.1662919  87.5990339  81.1578194 126.6772099  86.3090832  78.8568353
 127.2059865  85.7983286  78.2438515 126.9400318  85.9933362  79.7213886
 125.4310332  78.0882765  93.9791171 124.7550969  77.9876894  94.6493546
 126.2537966  77.9321978  94.4427168 117.1789192  84.3254701  86.6003686
 117.7642628  83.5798389  86.7331591 116.9814030  84.6358658  87.4840350
 120.0327847  87.3605949  81.6166129 119.3638222  87.8452076  81.1330169
 119.8940716  87.6075169  82.5309507 111.7706846  76.8960301  85.3208130
 111.8090946  76.3623892  86.1145248 111.2647139  76.3695507  84.7019107
 124.1733115  89.3949692  88.2148787 124.7251423  89.5581314  88.9797872
 124.5139309  89.9854130  87.5428812 119.1497609  71.7424842  88.8170672
 119.2138935  72.6039673  88.4048070 119.0864729  71.1298843  88.0843030
 118.6249881  73.8147974  92.4643706 119.2521920  73.4325052  93.0781230
 117.7677800  73.5962176  92.8299399 129.0243990  84.2210950  94.0697442
 129.5683894  84.8340908  93.5752396 128.4430835  84.7790528  94.5864455
 115.4015424  75.6224403  78.3962061 115.6968865  74.7135082  78.3429115
 114.5003460  75.6012143  78.0743063 127.3101503  87.3431668  85.2012469
 127.1852642  86.5421407  84.6923415 127.9680594  87.8377861  84.7126439
 118.9309671  73.6980400  84.3789610 118.2096257  74.3116368  84.2397083
 119.7202927  74.2338165  84.3006256 129.3736411  85.1440688  86.8292019
 128.4266747  85.0246039  86.7570346 129.7219184  84.2563186  86.9118281
 121.7335984  71.0334827  90.6530261 122.2570386  71.2797123  91.4156571
 121.5148318  71.8654861  90.2333399 117.1303265  73.3038501  78.5201386
 116.8015972  72.4235880  78.3376492 117.4842636  73.2486170  79.4077775
 126.3782844  84.9393404  83.0296372 126.2307807  84.0110111  83.2103942
 127.2036338  84.9613495  82.5453447 120.2445089  73.5911471  78.8876864
 120.5841161  74.1197392  78.1655472 120.6917209  73.9291877  79.6635430
 129.9816966  85.7621963  84.1161244 130.9063514  85.5564824  83.9785696
 129.8132270  85.5138364  85.0250586 122.9388529  71.9748522  88.3379932
 122.5985350  71.1756335  88.7400612 122.2327536  72.2750232  87.7656765
 123.5905001  69.0597834  86.7907255 124.4131071  68.5858312  86.6686145
 123.8343065  69.8388318  87.2905941 122.2313236  72.0886093  77.0870157
 122.9521598  72.4667345  76.5833873 121.6078540  72.8074969  77.1905135
 126.3744359  72.7931241  78.0228489 126.5907973  73.6755879  77.7217317
 125.8938426  72.4017455  77.2934131 121.1143580  75.7516955  84.5999234
 120.9688161  76.0657258  85.4923515 120.6368784  76.3701855  84.0470132
 122.9739963  72.7419503  84.6480123 122.9601532  71.8460596  84.3112421
 123.6912391  72.7490166  85.2818409 124.8266094  73.1756843  86.6933251
 124.5683871  74.0973914  86.6917581 124.2951134  72.7787277  87.3833715
 129.7712282  86.2807630  79.4723336 129.9449160  85.7154053  78.7197188
 130.2641174  87.0808525  79.2902826 115.5889242  78.2922299  87.5386895
 115.0442710  79.0682107  87.6707169 116.4668592  78.6393104  87.3806016
 122.3776859  71.6233883  79.9167693 122.4992770  70.6950529  80.1158581
 122.0878901  71.6372569  79.0046009 125.2468049  69.3088793  83.0534413
 125.2689746  69.3728127  82.0986393 125.6636108  68.4693302  83.2474919
 135.6251674  79.0444053  81.0913636 136.0682820  78.2951378  80.6932759
 134.7478184  79.0354189  80.7087368 130.7587455  85.5974394  76.5720234
 131.4538359  86.2181087  76.7907549 131.1010605  84.7469746  76.8472612
 116.3755264  77.4192195  90.4317052 115.6337000  77.5674831  91.0181682
 116.0548008  77.6800461  89.5683801 132.6578878  83.0474100  78.1007565
 133.1830202  83.3861373  77.3756885 132.5701231  82.1121115  77.9170700
 124.3198927  86.9608174  90.2297442 124.6286053  86.7157320  91.1020141
 125.1174409  87.1654812  89.7416312 124.3419539  89.1146083  82.4602818
 123.9024529  88.6222462  83.1535675 125.0927656  88.5719051  82.2194893
 116.8211878  85.3057624  82.4627446 117.6469898  85.0061396  82.0826090
 116.4705930  84.5365247  82.9117235 121.7893411  84.6584092  84.5325120
 121.1673420  83.9954797  84.2327348 122.4598278  84.6845224  83.8498768
 115.0220483  83.2243951  83.4216380 114.1852391  82.7966125  83.2400381
 114.9944128  83.4176394  84.3587171 121.8617938  73.1365880  94.1257626
 121.9106094  74.0128003  93.7435395 122.4040453  72.5943273  93.5529269
 132.3472784  83.6807004  93.4058763 131.5568328  83.6631142  92.8663262
 132.1106139  84.2195297  94.1607799 132.4670659  80.5299470  90.7191491
 132.5168664  80.3649477  91.6607014 132.3584582  79.6626729  90.3289372
 121.3506918  83.2088016  78.0083580 121.4995038  83.8923480  77.3550253
 122.1573361  83.1893106  78.5233036 129.7574421  76.5130398  92.0350798
 130.6584284  76.3736863  91.7434796 129.8322396  76.6784853  92.9748976
 124.0917227  73.8897253  90.8803984 123.2220536  74.1830819  90.6086573
 124.3276707  74.4737698  91.6011248 133.9688856  82.9496411  90.9633513
 133.6773664  83.3126392  91.7996974 133.3560987  82.2363420  90.7846845
 135.1684538  80.5149291  83.4836083 136.0031430  80.9539095  83.6473644
 135.3043667  80.0387944  82.6644329 132.2176044  78.0729026  89.4313571
 132.6930166  78.2656672  88.6232422 131.2941610  78.1288212  89.1856955
 119.1059551  79.2353193  79.0144649 118.8605593  78.3315523  79.2124859
 119.2755465  79.2370344  78.0724127 126.7956261  70.1076870  88.3969405
 127.3138204  70.8437897  88.0715893 126.4411393  70.4140863  89.2316164
 127.0468855  66.5277152  83.9170301 127.3270609  65.8600341  84.5430728
 127.8319462  66.7206248  83.4044965 124.8502323  85.7036146  75.4795328
 124.2776290  86.3226333  75.0265800 125.4235117  86.2535508  76.0135250
 130.9177713  74.9494786  87.6641877 131.8695136  75.0492884  87.6854101
 130.7481164  74.1573055  88.1739961 128.9392093  72.0350369  87.8501277
 128.3442025  72.3155382  87.1547766 128.6541789  72.5244270  88.6218019
 128.0699583  85.9873296  76.6103910 129.0030256  85.9218858  76.8136786
 127.9822796  86.8229563  76.1518443 130.6987600  85.3039167  73.5707858
 130.6201231  84.9699030  74.4643616 131.5197267  85.7960935  73.5699330
 133.3965791  78.1700906  86.7784176 133.3642111  77.2316907  86.9643860
 134.0066415  78.2484943  86.0450001 125.2349122  77.0396959  72.8211380
 126.1808227  76.9103167  72.8899798 124.8563367  76.3011621  73.2980808
 133.5460279  74.9611949  86.8242459 133.0299328  74.1770406  86.6372388
 134.4300228  74.6330666  86.9888979 131.2071006  68.7052965  82.7838272
 131.0095827  68.3968053  83.6681604 131.8170712  69.4314604  82.9136202
 139.2142341  79.2316913  85.9190213 139.9445729  78.9702201  86.4797916
 138.6049286  78.4945635  85.9592281 137.2957638  77.3724775  86.5164664
 136.5690801  77.2380740  85.9081156 136.8804925  77.6801604  87.3221382
 125.1187814  81.0914705  94.2812037 126.0390824  81.2693304  94.4752084
 125.0837397  80.1470750  94.1291737 123.4192039  74.9646935  72.7566265
 122.5123494  74.6680048  72.8328979 123.6968020  74.6676753  71.8900552
 114.3369979  76.2853299  83.2065312 114.0172764  75.4318607  82.9139686
 113.7903408  76.5001877  83.9623279 118.1149887  79.0015740  86.9234818
 118.3335897  79.9332847  86.9422852 118.5275661  78.6423714  87.7089622
 125.0354105  69.5083825  78.9110507 124.2254833  69.1630910  79.2865753
 125.7238522  69.1991369  79.4998118 126.9644653  68.5861872  80.5334803
 127.5175692  69.0057325  81.1924827 127.2014739  67.6597620  80.5757759
 122.9877752  74.5748945  96.3137567 122.8874479  75.5243302  96.2449658
 122.7699294  74.2467184  95.4413637 122.1890824  71.8233870  72.8978245
 123.0509988  72.1488769  73.1574062 122.3741168  71.0365366  72.3851310
 114.2058239  79.9056210  85.1758433 113.5121711  79.4910163  84.6628388
 114.9531230  79.9476747  84.5791852 130.3423460  70.6962397  80.0413468
 129.7622129  71.3547201  79.6591520 130.0759393  69.8739742  79.6300885
 128.7927026  70.0967455  82.2434788 129.2926805  70.2083989  81.4349107
 129.4362634  69.7928507  82.8835596 122.8509022  78.0046084  95.1302629
 122.3676104  78.8046444  95.3366518 122.9369961  78.0154029  94.1770073
 116.1194982  79.8374464  83.0524448 116.0965670  79.9362151  82.1006331
 116.4295618  80.6839615  83.3741614 118.7782360  81.8950619  87.1671063
 119.7325613  81.8634561  87.1000994 118.5794883  81.4341243  87.9821289
 119.3681742  80.4651735  89.7341860 120.1874631  80.9595814  89.7576698
 119.6418550  79.5483703  89.7059428 129.1248338  72.8562487  79.0969816
 128.2374193  73.1412138  78.8790011 129.5402327  72.6956251  78.2497093
 132.4762874  72.8809008  82.8124155 133.2523264  73.3705461  83.0848772
 131.7511008  73.3067062  83.2696025 134.9135433  73.5936628  83.8698096
 135.5079924  73.3532363  83.1591404 134.9862017  72.8743758  84.4971632
 117.1332589  87.4370238  84.1841261 116.9987056  86.6770639  83.6179259
 116.7164651  88.1611138  83.7170050 129.0989362  78.3717023  79.3120106
 129.0424563  78.8285575  78.4727739 129.6517704  77.6107708  79.1342949
 132.9094168  74.1606755  80.1370226 132.6531102  73.7603391  80.9678433
 132.2847036  74.8750549  80.0120365 137.2206506  76.9002828  82.6441517
 136.6606064  76.9696018  83.4173079 136.6150009  76.7243813  81.9241013
 120.2901714  88.3339555  84.3959703 120.1734099  89.2784988  84.2938394
 119.4694161  88.0313117  84.7845502 130.1778249  83.0589691  75.2416296
 131.0123853  82.6270890  75.0593771 130.0162592  82.8871705  76.1693190
 129.8324141  79.5621805  76.6072635 129.7772945  79.3966076  75.6661079
 129.2070196  80.2697837  76.7634825 114.6216656  74.7989869  90.4334057
 115.2675520  74.2888823  90.9221283 114.4133807  75.5358551  91.0077483
 127.1470048  81.8670716  95.9326198 128.0161208  82.0411369  95.5712833
 126.6676800  82.6865133  95.8101927 123.1420267  69.0629914  76.1857954
 123.1298936  70.0071753  76.3426225 124.0343688  68.8800059  75.8917415
 121.3156229  88.9867817  87.6115632 122.2183475  89.0191428  87.9282127
 121.0893599  88.0568268  87.6261967 123.0709831  87.7398804  84.2725710
 122.1205462  87.7400666  84.1590083 123.3742317  86.9931538  83.7561745
 126.9572386  65.6572690  80.4403890 126.1904782  65.1031177  80.5860573
 127.3683091  65.7294559  81.3018042 118.9614147  71.9457486  94.5309072
 119.8245609  71.5894291  94.7412396 118.3879558  71.6071381  95.2184476
 138.8062524  93.5759342  85.3371473 139.4440934  93.4566090  84.6334813
 138.6883367  94.5240186  85.3959425 135.6152230  93.5286770  85.2732997
 135.2770742  93.4127835  84.3853532 136.4841999  93.1277935  85.2534004
 131.4739046  95.3822247  81.2629888 130.9103911  95.2912184  80.4946176
 131.3591441  94.5622151  81.7432381 136.0972013  94.6821622  91.2319203
 136.0860654  94.2874420  90.3599707 136.2592653  93.9487695  91.8252974
 129.0203478  96.8773438  84.1014109 129.8124770  96.5364263  83.6860408
 129.2600128  96.9868413  85.0216262 137.0538605  99.0493215  76.5744353
 136.4026584  99.6347295  76.1878367 137.8482968  99.5799409  76.6339391
 130.9794232  96.1382352  76.9731488 131.7525108  95.5911339  76.8344363
 131.3319631  97.0026601  77.1845949 132.8179274  97.4658734  90.1798387
 132.5269140  98.3704365  90.0645053 133.4536259  97.5075262  90.8942456
 133.7435481  94.8435582  86.7699747 134.3399054  94.6191605  86.0556710
 133.8010453  94.1020328  87.3725194 133.3160510  92.2975018  74.6049938
 133.5686030  91.7756539  73.8433401 132.3785069  92.1341163  74.7076621
 138.3603793  91.3010796  82.4124681 139.1466882  90.8830219  82.0615098
 138.6242497  92.2056888  82.5806329 138.5313870  96.7383646  77.1113338
 137.8959703  96.8118273  77.8234242 138.2011276  97.3277245  76.4332417
 133.0356798  94.2003124  76.8074312 132.9193057  93.5248027  77.4755397
 133.1459058  93.7135498  75.9906466 135.3788339  93.6613271  80.5121002
 135.0146547  93.1343892  81.2233923 136.2355455  93.2711740  80.3387487
 135.0193826  88.6903171  75.5082350 135.1868229  89.5583407  75.8752821
 134.8290995  88.8530452  74.5843640 137.7769160  97.1520149  87.1748181
 137.4769883  98.0545188  87.0663988 137.4320219  96.8852333  88.0269334
 131.2281641  93.6033946  83.2084885 130.3032137  93.4710160  83.4162577
 131.4766054  94.3828166  83.7054827 141.1766303  89.6702690  84.8545618
 140.2683181  89.6018098  84.5604379 141.1253899  90.1474635  85.6827443
 134.9983047  91.1460828  76.4929017 134.8782672  91.5917879  77.3314497
 134.3035636  91.4946146  75.9342555 128.5890452  93.2467220  84.0428674
 128.7182833  93.5001699  84.9568086 127.9087903  93.8394928  83.7233329
 132.7589939 103.9164470  80.1419148 132.6813969 104.8672295  80.2207629
 132.1551583 103.5710342  80.7994075 135.2507169  91.0892335  92.7980515
 134.4740503  91.6486255  92.7883380 135.8897732  91.5749118  93.3195385
 133.5053541  93.8977789  92.3598482 134.2468226  94.4362833  92.0833306
 132.7990527  94.5244077  92.5170034 138.9808881  96.0406929  90.9570644
 139.3892237  95.5989340  90.2125276 138.2586143  95.4659557  91.2104837
 135.3339951  90.9779536  88.3304201 136.1801146  91.4018949  88.4738850
 135.2738589  90.3213160  89.0242764 139.3037696  96.6008120  84.7122933
 138.6746558  96.7653834  84.0099000 138.9163358  97.0149729  85.4833897
 138.4839396  88.6383904  89.9885374 138.2400328  89.3925965  89.4519650
 138.7599327  89.0169252  90.8232621 140.4377859  95.1822517  88.6662640
 140.6494754  95.8254276  87.9897021 140.3907607  94.3484833  88.1984570
 138.0404088  87.7940337  85.5699212 137.1788567  88.0921591  85.8615950
 138.0666523  88.0110736  84.6380245 134.8565658  96.3382528  81.9773018
 135.3204003  96.6170231  81.1877640 134.5922456  95.4365972  81.7946108
 131.7489739  95.8854009  84.9152781 132.3191096  96.3141278  84.2770265
 132.3397850  95.6036594  85.6136967 133.7934544  92.4605680  78.7862583
 134.4958587  92.9126724  79.2536509 133.4615172  91.8189499  79.4142476
 132.2414905  91.0517437  93.1613792 131.6113566  91.7333718  93.3949189
 132.1350993  90.9400518  92.2166930 127.5359878  90.7189233  84.0879716
 126.7458932  90.9746761  83.6119827 128.0271125  91.5337571  84.1931757
 129.4874623  91.0833812  81.0463193 128.6905786  91.1952506  81.5646689
 129.2600215  91.4220464  80.1804084 135.3180291  97.6078515  88.9945708
 135.3824723  98.0698923  89.8303880 134.6091214  96.9775880  89.1228018
 125.8197581  90.9719723  86.5194707 126.0705619  91.8566733  86.7852283
 126.3557129  90.7924325  85.7469799 135.0328308  99.2746623  78.8624688
 134.8973983 100.1198158  79.2909536 135.5738121  99.4765900  78.0990622
 131.5195648  85.3538203  95.5239043 131.1262593  84.8004401  96.1986687
 132.3361788  85.6648781  95.9145561 128.4857706  96.7922061  79.4352613
 128.9982226  97.5865311  79.5858178 129.1380418  96.0948351  79.3686215
 130.2952590  99.9087817  81.5175366 130.4719219 100.8305782  81.3296350
 131.0909424  99.5946236  81.9469746 134.4363609  86.7696082  93.1159300
 135.1773322  87.3703235  93.0363762 134.6681532  86.0273719  92.5577342
 129.5804947  91.9552449  91.3937530 129.4658462  91.0537706  91.6944628
 128.7249465  92.2016146  91.0422346 136.6596785  99.8970189  92.9925030
 136.2160639  99.1106568  92.6745935 137.3213998 100.0849340  92.3268921
 131.4183906 101.4265991  87.5185709 131.9691331 101.2983054  86.7462703
 130.5795382 101.7260880  87.1680601 138.7578023 100.1772989  91.0206431
 138.7396498 100.9981870  90.5286701 139.6797943 100.0527064  91.2456573
 135.2151077  97.6917119  91.8629940 135.7479414  96.9305407  91.6329248
 134.6865158  97.3990770  92.6054094 138.3820772  82.7977185  87.3923582
 138.0385041  83.6878826  87.3162692 138.7499734  82.6078842  86.5293167
 126.4506622  95.1210715  80.2112184 127.2881844  95.5307723  79.9945891
 126.6284890  94.1810157  80.1812378 138.3471055  92.7885796  75.8996017
 137.8317678  93.5590400  76.1384404 138.0748363  92.1150932  76.5229078
 135.9318166  87.6335497  80.9581255 135.0759762  87.2442347  80.7786894
 136.3445117  87.7127457  80.0981041 137.4617312  85.1681840  85.3572815
 136.9582108  85.1311975  84.5440620 137.7547919  86.0774583  85.4169471
 133.7060198  85.2520570  84.3638996 134.5713195  85.0563378  84.0044886
 133.7737707  85.0230921  85.2908353 138.1357358  90.6612888  77.7255798
 137.8307493  90.9759037  78.5765941 139.0887800  90.7394308  77.7683131
 136.5803790  96.8203111  79.3748752 136.0525151  96.0855871  79.0621989
 136.0791292  97.5977788  79.1288720 131.3122517  87.4822777  81.7355363
 131.8866269  87.2597959  81.0028556 131.8993500  87.5511472  82.4883965
 140.3702094  93.3696504  82.5419740 140.8833976  94.0026496  83.0441450
 141.0203318  92.7697700  82.1763100 131.6392104  89.5127238  75.7551249
 130.8029417  89.8501925  76.0760523 131.4996874  89.3776218  74.8178386
 133.6145185  84.3564026  80.4630433 132.9609597  84.0413044  79.8387048
 133.5725659  83.7339767  81.1890256 134.7256390  94.6383321  72.3783725
 133.8183451  94.4072575  72.5774874 135.2227422  93.8420941  72.5657706
 137.6324469 103.3480829  75.2980411 136.9586167 103.6512525  75.9065369
 138.0190291 104.1509909  74.9485868 136.8482925  90.8445960  84.7878080
 135.9305487  91.0660907  84.6299768 137.2643069  90.9192270  83.9289788
 137.6317973  92.2437376  79.9180761 138.3789792  92.7558773  79.6087883
 137.9009563  91.9221428  80.7785154 135.9044623  94.7395916  76.9007715
 134.9955842  94.4554949  76.9980185 135.9339707  95.1594995  76.0411022
 141.1363891  98.3502506  80.6698882 140.6826218  97.5093416  80.7264073
 140.5057857  98.9863904  81.0073663 140.0796810  89.2794492  81.8999550
 139.3419567  88.7671878  82.2309792 140.3323584  88.8394873  81.0882827
 139.5796830 100.1879002  81.6048701 139.8719804 100.7484060  80.8861066
 140.0895450 100.4807563  82.3601860 140.1808437  82.0570744  82.4941319
 140.4867314  81.1968107  82.2067234 140.9061042  82.6488364  82.2940313
 126.4732794  92.4601430  80.8822917 126.2757193  91.8670791  80.1573984
 125.9179458  92.1553641  81.5998856 134.4529517  92.3524537  83.0017510
 134.5078127  91.3998373  82.9259987 133.6420719  92.5083976  83.4858809
 135.6020711  96.2804660  74.2395793 135.1640141  95.5640519  73.7801431
 136.3431152  96.5080775  73.6780885 132.3921877  90.9701597  80.7607889
 131.5789743  91.2695767  81.1673081 132.8880871  90.5757285  81.4782371
 134.5430455 100.9659354  82.6942154 134.5006634 101.1920200  81.7650686
 135.4593154 100.7322728  82.8427955 137.9896089  91.4343421  89.5922783
 138.3445477  91.6614894  90.4517249 138.6368220  91.7661798  88.9700038
 131.8835952  88.5419952  86.3769124 132.5235331  88.4008711  85.6792087
 131.0513482  88.2554466  86.0007726 132.6596256  97.8422383  82.4904117
 133.4536854  97.3472703  82.2886691 131.9487948  97.3140246  82.1271822
 137.4791100 100.2240478  86.8416484 137.5328123 100.7931414  87.6094200
 136.6105882 100.3942363  86.4770521 128.9679019  91.9865464  78.5663869
 128.0376607  91.9249920  78.7833831 129.0636491  91.4641417  77.7700510
 128.8864568  88.5120277  81.1542111 129.1471386  89.4265610  81.0451271
 129.7081741  88.0444720  81.3038724 130.3589494  89.9258034  88.3240935
 131.0312547  89.7175396  87.6753584 129.5319280  89.7280120  87.8846168
 136.2615066  86.5519975  90.3406596 135.6142981  87.2509925  90.2471073
 137.0316081  86.9856119  90.7082844 139.6693864  96.8168827  93.4157150
 139.5179370  96.5879379  92.4987233 139.6598543  97.7739429  93.4288495
 136.4379200  94.3900740  88.4003416 137.3671260  94.5411900  88.2272383
 136.0170230  94.4784761  87.5452063 135.2367532  98.4151405  86.1701954
 135.0978617  98.0470189  87.0427892 134.4482128  98.9299044  85.9985911
 135.8315684 103.5160501  77.5127490 136.0067439 103.0448544  78.3273113
 135.1448472 104.1426267  77.7408751 136.7872747  97.7933007  83.5590791
 136.4522580  97.7533777  84.4548441 136.2876693  97.1277723  83.0861202
 130.7616991  93.2000637  89.0843373 130.6236789  92.4680876  89.6854912
 131.6721914  93.1109537  88.8027560 139.7231939  95.1389042  73.8327851
 139.1061109  94.4135870  73.7360904 139.2548427  95.8998402  73.4894925
 133.3899292  92.9120597  88.5727052 134.0998910  92.2713789  88.5313671
 133.3468600  93.1633491  89.4953233 132.1028226  89.8985815  90.3922692
 131.5665583  89.4476553  91.0444288 131.5144934  90.0331723  89.6493156
 130.3976769 106.6649864  84.2867350 130.6373367 107.2968388  84.9646369
 129.5545966 106.3137904  84.5732710 131.5130484  89.3574466  72.9549155
 130.6359951  89.2363267  72.5911402 131.9888238  88.5660544  72.7028044
 123.0332625  94.1451626  83.0490662 123.7203664  93.8313356  82.4611678
 122.8780753  95.0492990  82.7757914 127.8367347  89.0341822  87.4775686
 127.7525536  88.4267492  86.7426096 127.0150053  89.5250841  87.4785183
 134.9104631 102.4728986  86.6908854 134.8374802 103.2783958  87.2028159
 134.4682024 102.6720952  85.8656876 134.6994411 101.7100756  80.2011676
 133.9161932 102.2522436  80.2949900 135.3987156 102.2274736  80.6005917
 138.0091061  87.5195386  82.8445881 138.5059760  86.7665348  82.5246951
 137.2378042  87.5559702  82.2789091 137.3703314 102.3715820  88.8467013
 138.0831287 103.0063285  88.7742914 136.8793343 102.4679686  88.0307015
 139.0920841  96.2767073  80.4184305 138.1577120  96.3968535  80.2489009
 139.2697510  95.3739540  80.1544314 134.5926029  89.6612769  82.5717566
 134.2223817  89.1083809  83.2598471 135.0885122  89.0570902  82.0192566
 132.4215228 100.1210264  89.6672584 133.1224687 100.7546747  89.8201978
 131.9510343 100.4624995  88.9068223 140.5469624  98.4628214  77.9520491
 140.8229468  98.3484808  78.8614365 139.6774123  98.0645698  77.9132664
 140.4510055  84.4864979  84.9925240 139.5373135  84.7169206  85.1607447
 140.8803157  84.5703423  85.8439272 140.2216514  92.6754871  87.4925134
 139.5687964  92.9230779  86.8377587 140.5996894  91.8619009  87.1587611
 137.1823688 102.7114564  81.5953304 137.3646082 101.8936220  82.0581057
 138.0056674 102.9282257  81.1578194 137.5165853 101.6382749  78.8568353
 138.0453620 101.1275204  78.2438515 137.7794073 101.3225280  79.7213886
 136.2704087  93.4174682  93.9791171 135.5944724  93.3168812  94.6493546
 137.0931721  93.2613896  94.4427168 128.0182946  99.6546619  86.6003686
 128.6036383  98.9090307  86.7331591 127.8207784  99.9650575  87.4840350
 130.8721601 102.6897866  81.6166129 130.2031977 103.1743994  81.1330169
 130.7334471 102.9367087  82.5309507 122.6100601  92.2252219  85.3208130
 122.6484700  91.6915810  86.1145248 122.1040894  91.6987425  84.7019107
 135.0126870 104.7241610  88.2148787 135.5645178 104.8873231  88.9797872
 135.3533063 105.3146048  87.5428812 129.9891363  87.0716760  88.8170672
 130.0532690  87.9331590  88.4048070 129.9258483  86.4590761  88.0843030
 129.4643636  89.1439892  92.4643706 130.0915674  88.7616969  93.0781230
 128.6071554  88.9254094  92.8299399 139.8637744  99.5502867  94.0697442
 140.4077648 100.1632825  93.5752396 139.2824589 100.1082446  94.5864455
 126.2409178  90.9516321  78.3962061 126.5362619  90.0427000  78.3429115
 125.3397214  90.9304061  78.0743063 138.1495257 102.6723585  85.2012469
 138.0246397 101.8713325  84.6923415 138.8074348 103.1669779  84.7126439
 129.7703425  89.0272318  84.3789610 129.0490011  89.6408285  84.2397083
 130.5596681  89.5630083  84.3006256 140.2130165 100.4732605  86.8292019
 139.2660501 100.3537956  86.7570346 140.5612939  99.5855103  86.9118281
 132.5729739  86.3626744  90.6530261 133.0964141  86.6089041  91.4156571
 132.3542072  87.1946779  90.2333399 127.9697020  88.6330419  78.5201386
 127.6409726  87.7527798  78.3376492 128.3236391  88.5778088  79.4077775
 137.2176599 100.2685322  83.0296372 137.0701561  99.3402029  83.2103942
 138.0430092 100.2905412  82.5453447 131.0838843  88.9203389  78.8876864
 131.4234916  89.4489310  78.1655472 131.5310964  89.2583795  79.6635430
 133.7782284  87.3040439  88.3379932 133.4379104  86.5048252  88.7400612
 133.0721290  87.6042150  87.7656765 134.4298756  84.3889752  86.7907255
 135.2524825  83.9150230  86.6686145 134.6736819  85.1680236  87.2905941
 133.0706990  87.4178010  77.0870157 133.7915353  87.7959263  76.5833873
 132.4472294  88.1366887  77.1905135 137.2138113  88.1223159  78.0228489
 137.4301727  89.0047797  77.7217317 136.7332180  87.7309373  77.2934131
 131.9537334  91.0808872  84.5999234 131.8081915  91.3949175  85.4923515
 131.4762538  91.6993773  84.0470132 133.8133717  88.0711420  84.6480123
 133.7995286  87.1752514  84.3112421 134.5306145  88.0782084  85.2818409
 135.6659848  88.5048761  86.6933251 135.4077626  89.4265831  86.6917581
 135.1344888  88.1079195  87.3833715 140.6106037 101.6099548  79.4723336
 140.7842914 101.0445970  78.7197188 141.1034928 102.4100443  79.2902826
 126.4282997  93.6214217  87.5386895 125.8836465  94.3974025  87.6707169
 127.3062347  93.9685021  87.3806016 133.2170613  86.9525801  79.9167693
 133.3386524  86.0242447  80.1158581 132.9272656  86.9664487  79.0046009
 136.0861804  84.6380711  83.0534413 136.1083501  84.7020044  82.0986393
 136.5029863  83.7985220  83.2474919 127.2149019  92.7484113  90.4317052
 126.4730755  92.8966748  91.0181682 126.8941763  93.0092379  89.5683801
 135.1592681 102.2900091  90.2297442 135.4679808 102.0449238  91.1020141
 135.9568163 102.4946730  89.7416312 135.1813293 104.4438001  82.4602818
 134.7418283 103.9514380  83.1535675 135.9321410 103.9010969  82.2194893
 127.6605632 100.6349542  82.4627446 128.4863652 100.3353314  82.0826090
 127.3099684  99.8657164  82.9117235 132.6287165  99.9876010  84.5325120
 132.0067175  99.3246715  84.2327348 133.2992032 100.0137142  83.8498768
 125.8614237  98.5535868  83.4216380 125.0246146  98.1258043  83.2400381
 125.8337883  98.7468312  84.3587171 132.7011693  88.4657798  94.1257626
 132.7499848  89.3419921  93.7435395 133.2434207  87.9235191  93.5529269
 132.1900672  98.5379933  78.0083580 132.3388793  99.2215398  77.3550253
 132.9967116  98.5185023  78.5233036 134.9310981  89.2189170  90.8803984
 134.0614291  89.5122736  90.6086573 135.1670462  89.8029615  91.6011248
 129.9453305  94.5645111  79.0144649 129.6999347  93.6607441  79.2124859
 130.1149220  94.5662261  78.0724127 137.6350015  85.4368787  88.3969405
 138.1531959  86.1729814  88.0715893 137.2805148  85.7432781  89.2316164
 129.2148953  90.2973469  76.5130811 128.5218198  90.3717824  75.8570847
 128.9700705  89.5333812  77.0352328 137.8862609  81.8569070  83.9170301
 138.1664363  81.1892259  84.5430728 138.6713216  82.0498166  83.4044965
 135.6896078 101.0328064  75.4795328 135.1170045 101.6518251  75.0265800
 136.2628871 101.5827425  76.0135250 139.7785847  87.3642287  87.8501277
 139.1835779  87.6447300  87.1547766 139.4935544  87.8536188  88.6218019
 138.9093338 101.3165214  76.6103910 139.8424011 101.2510776  76.8136786
 138.8216550 102.1521481  76.1518443 136.0742876  92.3688877  72.8211380
 137.0201981  92.2395085  72.8899798 135.6957121  91.6303538  73.2980808
 135.9581569  96.4206623  94.2812037 136.8784578  96.5985222  94.4752084
 135.9231152  95.4762668  94.1291737 134.2585793  90.2938853  72.7566265
 133.3517249  89.9971966  72.8328979 134.5361774  89.9968671  71.8900552
 125.1763734  91.6145216  83.2065312 124.8566518  90.7610525  82.9139686
 124.6297162  91.8293794  83.9623279 128.9543641  94.3307657  86.9234818
 129.1729651  95.2624765  86.9422852 129.3669415  93.9715632  87.7089622
 135.8747859  84.8375743  78.9110507 135.0648587  84.4922828  79.2865753
 136.5632276  84.5283286  79.4998118 137.8038407  83.9153789  80.5334803
 138.3569446  84.3349243  81.1924827 138.0408494  82.9889538  80.5757759
 133.8271507  89.9040863  96.3137567 133.7268234  90.8535220  96.2449658
 133.6093049  89.5759102  95.4413637 133.0284578  87.1525788  72.8978245
 133.8903742  87.4780686  73.1574062 133.2134922  86.3657284  72.3851310
 125.0451994  95.2348128  85.1758433 124.3515465  94.8202081  84.6628388
 125.7924985  95.2768664  84.5791852 141.1817215  86.0254315  80.0413468
 140.6015884  86.6839119  79.6591520 140.9153147  85.2031659  79.6300885
 139.6320781  85.4259372  82.2434788 140.1320559  85.5375907  81.4349107
 140.2756389  85.1220425  82.8835596 133.6902777  93.3338002  95.1302629
 133.2069858  94.1338362  95.3366518 133.7763716  93.3445947  94.1770073
 126.9588736  95.1666382  83.0524448 126.9359424  95.2654069  82.1006331
 127.2689373  96.0131532  83.3741614 129.6176114  97.2242537  87.1671063
 130.5719368  97.1926479  87.1000994 129.4188638  96.7633160  87.9821289
 130.2075496  95.7943653  89.7341860 131.0268385  96.2887731  89.7576698
 130.4812304  94.8775621  89.7059428 139.9642093  88.1854405  79.0969816
 139.0767948  88.4704056  78.8790011 140.3796082  88.0248168  78.2497093
 127.9726343 102.7662156  84.1841261 127.8380811 102.0062557  83.6179259
 127.5558405 103.4903056  83.7170050 139.1085306  97.9499080  73.1917836
 139.8121156  98.1549082  73.8075492 138.3847955  98.5175842  73.4566919
 139.9383116  93.7008941  79.3120106 139.8818318  94.1577492  78.4727739
 140.4911459  92.9399626  79.1342949 131.1295469 103.6631473  84.3959703
 131.0127853 104.6076906  84.2938394 130.3087915 103.3605035  84.7845502
 140.6717896  94.8913722  76.6072635 140.6166699  94.7257994  75.6661079
 140.0463951  95.5989755  76.7634825 125.4610411  90.1281787  90.4334057
 126.1069274  89.6180741  90.9221283 125.2527562  90.8650468  91.0077483
 137.9863803  97.1962634  95.9326198 138.8554962  97.3703286  95.5712833
 137.5070554  98.0157051  95.8101927 133.9814021  84.3921831  76.1857954
 133.9692691  85.3363671  76.3426225 134.8737443  84.2091977  75.8917415
 132.1549983 104.3159735  87.6115632 133.0577230 104.3483345  87.9282127
 131.9287353 103.3860186  87.6261967 133.9103585 103.0690722  84.2725710
 132.9599216 103.0692583  84.1590083 134.2136071 102.3223456  83.7561745
 137.7966141  80.9864608  80.4403890 137.0298536  80.4323095  80.5860573
 138.2076845  81.0586477  81.3018042 129.8007902  87.2749404  94.5309072
 130.6639363  86.9186208  94.7412396 129.2273312  86.9363298  95.2184476
 139.8597232 112.2065356  84.1014109 140.6518524 111.8656181  83.6860408
 140.0993883 112.3160331  85.0216262 139.4284207 108.5759138  84.0428674
 139.5576588 108.8293616  84.9568086 138.7481658 109.1686846  83.7233329
 138.3753632 106.0481150  84.0879716 137.5852686 106.3038679  83.6119827
 138.8664879 106.8629488  84.1931757 140.3268377 106.4125730  81.0463193
 139.5299541 106.5244424  81.5646689 140.0993970 106.7512382  80.1804084
 136.6591335 106.3011641  86.5194707 136.9099373 107.1858651  86.7852283
 137.1950883 106.1216242  85.7469799 139.3251460 112.1213978  79.4352613
 139.8375981 112.9157229  79.5858178 139.9774173 111.4240269  79.3686215
 140.4198701 107.2844367  91.3937530 140.3052217 106.3829624  91.6944628
 139.5643219 107.5308063  91.0422346 137.2900377 110.4502633  80.2112184
 138.1275599 110.8599641  79.9945891 137.4678645 109.5102075  80.1812378
 137.3126548 107.7893348  80.8822917 137.1150948 107.1962709  80.1573984
 136.7573212 107.4845558  81.5998856 139.8072774 107.3157382  78.5663869
 138.8770362 107.2541837  78.7833831 139.9030246 106.7933335  77.7700510
 139.7258323 103.8412195  81.1542111 139.9865140 104.7557528  81.0451271
 140.5475495 103.3736637  81.3038724 133.8726379 109.4743543  83.0490662
 134.5597419 109.1605273  82.4611678 133.7174508 110.3784908  82.7757914
 138.6761101 104.3633740  87.4775686 138.5919290 103.7559409  86.7426096
 137.8543808 104.8542758  87.4785183 138.8576701 114.9838536  86.6003686
 139.4430137 114.2382224  86.7331591 138.6601539 115.2942493  87.4840350
 133.4494355 107.5544137  85.3208130 133.4878455 107.0207727  86.1145248
 132.9434648 107.0279342  84.7019107 140.8285118 102.4008677  88.8170672
 140.8926444 103.2623508  88.4048070 140.7652238 101.7882679  88.0843030
 140.3037390 104.4731810  92.4643706 140.9309429 104.0908887  93.0781230
 139.4465309 104.2546012  92.8299399 137.0802933 106.2808239  78.3962061
 137.3756374 105.3718917  78.3429115 136.1790969 106.2595978  78.0743063
 138.8090774 103.9622336  78.5201386 138.4803481 103.0819715  78.3376492
 139.1630145 103.9070005  79.4077775 137.2676751 108.9506134  87.5386895
 136.7230219 109.7265942  87.6707169 138.1456101 109.2976939  87.3806016
 138.0542773 108.0776031  90.4317052 137.3124509 108.2258666  91.0181682
 137.7335517 108.3384296  89.5683801 138.4999387 115.9641459  82.4627446
 139.3257407 115.6645231  82.0826090 138.1493439 115.1949082  82.9117235
 136.7007992 113.8827786  83.4216380 135.8639900 113.4549960  83.2400381
 136.6731637 114.0760229  84.3587171 140.7847060 109.8937029  79.0144649
 140.5393102 108.9899359  79.2124859 140.9542974 109.8954179  78.0724127
 140.0542707 105.6265386  76.5130811 139.3611952 105.7009741  75.8570847
 139.8094459 104.8625730  77.0352328 136.0157488 106.9437134  83.2065312
 135.6960273 106.0902442  82.9139686 135.4690916 107.1585712  83.9623279
 139.7937396 109.6599575  86.9234818 140.0123406 110.5916683  86.9422852
 140.2063170 109.3007549  87.7089622 135.8845748 110.5640046  85.1758433
 135.1909220 110.1493998  84.6628388 136.6318739 110.6060582  84.5791852
 137.7982491 110.4958299  83.0524448 137.7753179 110.5945987  82.1006331
 138.1083127 111.3423450  83.3741614 138.8120098 118.0954074  84.1841261
 138.6774565 117.3354475  83.6179259 138.3952160 118.8194974  83.7170050
 136.3004165 105.4573704  90.4334057 136.9463029 104.9472658  90.9221283
 136.0921316 106.1942386  91.0077483  78.5621168   4.2767004  66.8664455
  78.4845198   5.2274829  66.9452936  77.9582812   3.9312877  67.5239381
  80.8359537  -0.3650843  65.5869995  80.7005212   0.4800693  66.0154842
  81.3769350  -0.1631565  64.8235928  76.0983819   0.2690351  68.2420673
  76.2750447   1.1908316  68.0541657  76.8940653  -0.0451230  68.6715053
  77.2215135   1.7868525  74.2431015  77.7722560   1.6585588  73.4708009
  76.3826611   2.0863414  73.8925908  83.4355697   3.7083363  62.0225718
  82.7617396   4.0115060  62.6310675  83.8221519   4.5112443  61.6731175
  80.3461684   1.3261888  69.4187460  80.3037863   1.5522734  68.4895992
  81.2624383   1.0925262  69.5673262  83.2822329   0.5843012  73.5661791
  83.3359351   1.1533949  74.3339507  82.4137110   0.7544897  73.2015828
  81.6346913   3.8763035  64.2372797  81.8098668   3.4051078  65.0518419
  80.9479701   4.5028801  64.4654058  76.2007998   7.0252398  71.0112657
  76.4404596   7.6570922  71.6891676  75.3577194   6.6740438  71.2978016
  80.7135860   2.8331520  73.4154161  80.6406031   3.6386492  73.9273465
  80.2713253   3.0323486  72.5902182  80.5025639   2.0703290  66.9256982
  79.7193161   2.6124971  67.0195207  81.2018385   2.5877270  67.3251224
  83.1734543   2.7318354  75.5712320  83.8862515   3.3665819  75.4988221
  82.6824572   2.8282220  74.7552321  78.2246457   0.4812798  76.3917890
  78.9255916   1.1149281  76.5447285  77.7541572   0.8227529  75.6313530
  82.9854917   3.0717099  68.3198611  83.1677311   2.2538755  68.7826363
  83.8087903   3.2884791  67.8823501  83.3197082   1.9985284  65.5813660
  83.8484849   1.4877738  64.9683822  83.5825302   1.6827814  66.4459193
  73.8214175   0.0149153  73.3248993  74.4067612  -0.7307159  73.4576897
  73.6239013   0.3253110  74.2085657  76.6752830   3.0500400  68.3411435
  76.0063205   3.5346528  67.8575476  76.5365700   3.2969621  69.2554814
  80.8158099   5.0844144  74.9394094  81.3676407   5.2475765  75.7043179
  81.1564292   5.6748582  74.2674119  83.9526486   3.0326119  71.9257776
  83.8277625   2.2315859  71.4168721  84.6105577   3.5272313  71.4371746
  80.9623910   2.6502626  76.9542748  81.2711036   2.4051772  77.8265448
  81.7599392   2.8549264  76.4661618  80.9844522   4.8040535  69.1848125
  80.5449512   4.3116914  69.8780981  81.7352639   4.2613503  68.9440200
  73.4636861   0.9952076  69.1872753  74.2894881   0.6955848  68.8071396
  73.1130913   0.2259698  69.6362542  78.4318394   0.3478544  71.2570426
  77.8098403  -0.3150751  70.9572654  79.1023261   0.3739676  70.5744074
  71.6645466  -1.0861598  70.1461686  70.8277374  -1.5139423  69.9645688
  71.6369111  -0.8929154  71.0832478  77.9931901  -1.1017532  64.7328887
  78.1420021  -0.4182068  64.0795560  78.7998345  -1.1212442  65.2478343
  81.4927307   1.3930598  62.2040634  80.9201274   2.0120785  61.7511106
  82.0660100   1.9429960  62.7380556  84.7124566   1.6767748  63.3349217
  85.6455240   1.6113310  63.5382092  84.6247779   2.5124015  62.8763749
  73.7757572   3.1264690  70.9086567  73.6412040   2.3665091  70.3424565
  73.3589634   3.8505590  70.4415356  76.9326698   4.0234007  71.1205010
  76.8159082   4.9679440  71.0183700  76.1119144   3.7207569  71.5090809
  77.9581212   4.6762269  74.3360938  78.8608459   4.7085880  74.6527433
  77.7318582   3.7462720  74.3507274  79.7134814   3.4293256  70.9971017
  78.7630445   3.4295117  70.8835389  80.0167300   2.6825990  70.4807052
  95.4487507   9.2653794  72.0616779  96.0865917   9.1460542  71.3580119
  95.3308350  10.2134638  72.1204732  92.2577214   9.2181222  71.9978304
  91.9195725   9.1022287  71.1098839  93.1266982   8.8172387  71.9779310
  88.1164029  11.0716699  67.9875195  87.5528894  10.9806636  67.2191483
  88.0016424  10.2516603  68.4677688  92.7396997  10.3716074  77.9564510
  92.7285637   9.9768872  77.0845013  92.9017636   9.6382147  78.5498281
  85.6628461  12.5667890  70.8259415  86.4549753  12.2258715  70.4105715
  85.9025111  12.6762865  71.7461569  93.6963588  14.7387666  63.2989660
  93.0451568  15.3241747  62.9123674  94.4907951  15.2693861  63.3584697
  87.6219215  11.8276804  63.6976794  88.3950091  11.2805791  63.5589670
  87.9744614  12.6921053  63.9091256  89.4604258  13.1553186  76.9043694
  89.1694124  14.0598817  76.7890360  90.0961242  13.1969713  77.6187763
  90.3860465  10.5330034  73.4945053  90.9824037  10.3086057  72.7802016
  90.4435436   9.7914780  74.0970501  89.9585493   7.9869470  61.3295244
  90.2111014   7.4650991  60.5678707  89.0210052   7.8235615  61.4321928
  95.0028776   6.9905248  69.1369987  95.7891865   6.5724671  68.7860404
  95.2667480   7.8951340  69.3051636  95.1738853  12.4278098  63.8358644
  94.5384686  12.5012725  64.5479549  94.8436260  13.0171697  63.1577723
  89.6781782   9.8897576  63.5319619  89.5618040   9.2142479  64.2000703
  89.7884042   9.4029950  62.7151772  92.0213323   9.3507723  67.2366308
  91.6571530   8.8238344  67.9479230  92.8780439   8.9606192  67.0632794
  91.6618810   4.3797622  62.2327657  91.8293212   5.2477859  62.5998128
  91.4715979   4.5424904  61.3088946  94.4194143  12.8414601  73.8993487
  94.1194866  13.7439640  73.7909294  94.0745202  12.5746785  74.7514640
  87.8706624   9.2928398  69.9330192  86.9457121   9.1604612  70.1407883
  88.1191038  10.0722617  70.4300134  91.6408031   6.8355280  63.2174324
  91.5207656   7.2812331  64.0559804  90.9460619   7.1840598  62.6587862
  85.2315435   8.9361672  70.7673981  85.3607817   9.1896151  71.6813392
  84.5512887   9.5289380  70.4478636  89.4014923  19.6058922  66.8664455
  89.3238952  20.5566747  66.9452936  88.7976566  19.2604794  67.5239381
  91.8932152   6.7786787  79.5225822  91.1165486   7.3380707  79.5128686
  92.5322715   7.2643570  80.0440692  97.3393097   7.3076753  64.0454658
  98.2510953   7.5404140  63.8702355  96.8302744   7.8913797  63.4829736
  90.1478525   9.5872240  79.0843789  90.8893209  10.1257284  78.8078612
  89.4415510  10.2138529  79.2415341  95.6233864  11.7301381  77.6815950
  96.0317220  11.2883791  76.9370583  94.9011126  11.1554008  77.9350143
  91.9764934   6.6673988  75.0549507  92.8226130   7.0913401  75.1984156
  91.9163572   6.0107612  75.7488070  95.9462679  12.2902572  71.4368239
  95.3171541  12.4548286  70.7344307  95.5588341  12.7044181  72.2079203
  99.8251911  13.2257009  68.7912603  99.1402949  13.6055911  68.2409636
  99.9095760  13.8352336  69.5244551  97.0802842  10.8716968  75.3907947
  97.2919738  11.5148728  74.7142328  97.0332591  10.0379285  74.9229877
  91.4990641  12.0276980  68.7018324  91.9628986  12.3064683  67.9122947
  91.2347439  11.1260424  68.5191415  88.3914722  11.5748461  71.6398088
  88.9616079  12.0035730  71.0015572  88.9822834  11.2931046  72.3382273
  90.4359527   8.1500132  65.5107889  91.1383570   8.6021176  65.9781816
  90.1040155   7.5083951  66.1387783  88.8839888   6.7411889  79.8859099
  88.2538549   7.4228170  80.1194496  88.7775976   6.6294970  78.9412237
  84.1784861   6.4083685  70.8125023  83.3883915   6.6641213  70.3365134
  84.6696108   7.2232023  70.9177064  98.1948670  13.7488924  73.5630304
  99.0166114  13.3469111  73.2812985  98.1911073  13.6457158  74.5146420
  86.1299606   6.7728264  67.7708500  85.3330770   6.8846958  68.2891995
  85.9025198   7.1114916  66.9049390  91.9605274  13.2972967  75.7191014
  92.0249706  13.7593374  76.5549186  91.2516198  12.6670332  75.8473324
  82.4622564   6.6614175  73.2440014  82.7130602   7.5461185  73.5097590
  82.9982112   6.4818777  72.4715106 106.2854663  10.0927672  69.9115275
 105.5318372   9.5235070  69.7559280 106.4202205  10.0590337  70.8585910
  91.6753292  14.9641075  65.5869995  91.5398966  15.8092610  66.0154842
  92.2163104  15.1660352  64.8235928  85.1282689  12.4816513  66.1597920
  85.6407209  13.2759763  66.3103484  85.7805402  11.7842803  66.0931521
  86.9377574  15.5982269  68.2420673  87.1144202  16.5200234  68.0541657
  87.7334407  15.2840688  68.6715053  86.2229930   7.6446901  78.1182836
  86.1083445   6.7432158  78.4189935  85.3674448   7.8910598  77.7667653
  93.3021768  15.5864641  79.7170337  92.8585622  14.8001020  79.3991241
  93.9638981  15.7743792  79.0514228  88.0608889  17.1160443  74.2431015
  88.6116314  16.9877506  73.4708009  87.2220365  17.4155332  73.8925908
  95.4003006  15.8667441  77.7451738  95.3821481  16.6876322  77.2532007
  96.3222926  15.7421516  77.9701879  91.8576060  13.3811571  78.5875246
  92.3904397  12.6199859  78.3574554  91.3290141  13.0885222  79.3299401
  83.0931606  10.8105167  66.9357490  83.9306828  11.2202175  66.7191198
  83.2709873   9.8704609  66.9057684  94.9896038   8.4780248  62.6241323
  94.4742661   9.2484852  62.8629711  94.7173346   7.8045384  63.2474385
  99.9630312  11.2312602  64.5594497  99.1859755  10.8923762  64.1149659
 100.6421793  11.2365225  63.8849462  94.7782341   6.3507340  64.4501104
  94.4732477   6.6653489  65.3011248  95.7312783   6.4288760  64.4928437
  93.2228773  12.5097563  66.0994058  92.6950134  11.7750323  65.7867296
  92.7216276  13.2872239  65.8534027  98.2021619  10.7046584  71.2161105
  97.5445293  11.3945845  71.3041233  99.0062018  11.0943015  71.5595091
  87.9547500   3.1717229  68.4600670  88.5291252   2.9492411  67.7273863
  88.5418483   3.2405924  69.2129271  97.0127078   9.0590956  69.2665046
  97.5258959   9.6920948  69.7686756  97.6628302   8.4592152  68.9008406
  88.2817088   5.2021690  62.4796555  87.4454400   5.5396377  62.8005830
  88.1421857   5.0670670  61.5423692  91.3681373  10.3277773  59.1029031
  90.4608435  10.0967027  59.3020180  91.8652405   9.5315393  59.2903013
  94.2749452  19.0375281  62.0225718  93.6011151  19.3406977  62.6310675
  94.6615274  19.8404361  61.6731175  93.4907909   6.5340412  71.5123387
  92.5730470   6.7555359  71.3545075  93.9068052   6.6086722  70.6535094
  94.2742956   7.9331827  66.6426067  95.0214775   8.4453225  66.3333189
  94.5434546   7.6115880  67.5030461  92.5469606  10.4290368  63.6253022
  91.6380826  10.1449401  63.7225491  92.5764690  10.8489447  62.7656328
  97.7788874  14.0396958  67.3944189  97.3251201  13.1987868  67.4509380
  97.1482841  14.6758356  67.7318969  96.2221813  15.8773454  68.3294007
  96.5144787  16.4378511  67.6106373  96.7320434  16.1702015  69.0847166
  83.1157777   8.1495882  67.6068224  82.9182177   7.5565243  66.8819290
  82.5604441   7.8448092  68.3244163  91.0954501   8.0418989  69.7262817
  91.1503110   7.0892825  69.6505293  90.2845703   8.1978428  70.2104115
  92.2445694  11.9699112  60.9641100  91.8065124  11.2534971  60.5046737
  92.9856135  12.1975227  60.4026192  89.0346860   6.6596049  67.4853196
  88.2214726   6.9590219  67.8918388  89.5305855   6.2651737  68.2027678
  91.1855438  16.6553805  69.4187460  91.1431617  16.8814652  68.4895992
  92.1018137  16.4217180  69.5673262  94.6321072   7.1237873  76.3168090
  94.9870460   7.3509346  77.1762555  95.2793203   7.4556250  75.6945345
 100.3618809  10.2456309  67.0217419 100.2236708  10.4357905  66.0938608
 100.0055028  11.0075692  67.4785470  88.5260935   4.2314404  73.1014431
  89.1660315   4.0903163  72.4037394  87.6938466   3.9448917  72.7253033
 100.3888189  12.3132836  72.0328690 100.8224695  12.2208125  72.8811744
 101.1019769  12.2890336  71.3948706  89.3021239  13.5316834  69.2149423
  90.0961838  13.0367155  69.0131998  88.5912931  13.0034698  68.8517129
  94.1216084  15.9134930  73.5661791  94.1753106  16.4825866  74.3339507
  93.2530865  16.0836815  73.2015828  85.6104003   7.6759916  65.2909176
  84.6801591   7.6144372  65.5079138  85.7061475   7.1535869  64.4945817
  85.5289552   4.2014729  67.8787418  85.7896369   5.1160062  67.7696578
  86.3506724   3.7339172  68.0284030  87.0014477   5.6152486  75.0486242
  87.6737530   5.4069848  74.3998891  86.1744263   5.4174572  74.6091474
 101.2503738  12.3556537  74.5661576 101.4439628  13.2602347  74.8120851
 101.1504356  11.8963956  75.4000161  96.3118847  12.5063279  80.1402456
  96.1604353  12.2773831  79.2232540  96.3023526  13.4633881  80.1533801
  93.0804183  10.0795192  75.1248723  94.0096243  10.2306352  74.9517690
  92.6595213  10.1679213  74.2697369  91.8792515  14.1045856  72.8947260
  91.7403601  13.7364641  73.7673198  91.0907111  14.6193496  72.7231218
  92.4740667  19.2054953  64.2372797  92.6492423  18.7342996  65.0518419
  91.7873455  19.8320719  64.4654058  93.4297730  13.4827459  70.2836098
  93.0947563  13.4428229  71.1793748  92.9301676  12.8172175  69.8106508
  87.4041974   8.8895089  75.8088679  87.2661772   8.1575328  76.4100218
  88.3146898   8.8003989  75.5272867  96.3656922  10.8283493  60.5573158
  95.7486093  10.1030322  60.4606210  95.8973410  11.5892854  60.2140232
  90.0324275   8.6015049  75.2972359  90.7423893   7.9608241  75.2558977
  89.9893583   8.8527943  76.2198540  98.0211054  15.5382402  78.2178938
  97.9623600  14.8541622  77.5509521  98.4230572  16.2801392  77.7659564
  88.7453209   5.5880266  77.1167998  88.2090566   5.1371005  77.7689595
  88.1569917   5.7226175  76.3738463  87.0401752  22.3544316  71.0112657
  87.2798351  22.9862840  71.6891676  86.1970949  22.0032356  71.2978016
  88.1555468   5.0468918  59.6794462  87.2784934   4.9257719  59.3156709
  88.6313221   4.2554996  59.4273351  98.0228461  13.5021986  76.4492918
  97.1355240  13.1647908  76.5719317  98.5927012  12.7705017  76.6861683
  79.6757608   9.8346078  69.7735969  80.3628648   9.5207808  69.1856984
  79.5205737  10.7387442  69.5003221  84.4792330   4.7236274  74.2020993
  84.3950519   4.1161944  73.4671403  83.6575036   5.2145292  74.2030489
  91.5529614  18.1623438  73.4154161  91.4799786  18.9678410  73.9273465
  91.1107007  18.3615404  72.5902182  91.3419394  17.3995208  66.9256982
  90.5586916  17.9416888  67.0195207  92.0412139  17.9169188  67.3251224
 102.5045801   8.9130203  71.2109479 102.4935678   9.7954919  70.8403412
 101.6363181   8.5601754  71.0164016  94.0128298  18.0610272  75.5712320
  94.7256270  18.6957737  75.4988221  93.5218326  18.1574138  74.7552321
  95.7345825  11.9661525  67.1429611  94.8002103  12.0862987  66.9734316
  95.9122493  11.0633992  66.8789621  91.2351013   5.3507221  69.2962872
  90.8648800   4.7978261  69.9843778  91.7310105   4.7465354  68.7437873
  99.1218376   7.8078844  67.6779645  99.5878828   8.6406836  67.6039948
  99.5725876   7.3423826  68.3824904  89.0640211  15.8104716  76.3917890
  89.7649671  16.4441199  76.5447285  88.5935326  16.1519447  75.6313530
  97.1894607  14.1522665  64.6765797  97.4654451  14.0379260  65.5859672
  96.3199106  13.7540150  64.6377971  96.8641497   8.3649323  74.2170441
  96.2112947   8.6125231  73.5622894  97.2421877   7.5513461  73.8832918
  93.8248671  18.4009016  68.3198611  94.0071066  17.5830672  68.7826363
  94.6481657  18.6176709  67.8823501  94.1590837  17.3277201  65.5813660
  94.6878603  16.8169656  64.9683822  94.4219056  17.0119732  66.4459193
  92.9129070   9.1069134  80.7036478  92.2369707   9.0063263  81.3738853
  93.7356704   8.9508348  81.1672475  84.6607929  15.3441071  73.3248993
  85.2461366  14.5984759  73.4576897  84.4632768  15.6545027  74.2085657
  87.5146585  18.3792318  68.3411435  86.8456960  18.8638446  67.8575476
  87.3759454  18.6261539  69.2554814  79.2525584   7.9146671  72.0453436
  79.2909684   7.3810262  72.8390554  78.7465877   7.3881876  71.4264413
  91.6551853  20.4136062  74.9394094  92.2070161  20.5767683  75.7043179
  91.9958047  21.0040499  74.2674119  86.6316346   2.7611211  75.5415979
  86.6957673   3.6226042  75.1293376  86.5683467   2.1485213  74.8088337
  86.1068619   4.8334344  79.1889013  86.7340658   4.4511421  79.8026537
  85.2496538   4.6148546  79.5544705  96.5062727  15.2397319  80.7942748
  97.0502631  15.8527277  80.2997703  95.9249572  15.7976898  81.3109761
  82.8834162   6.6410773  65.1207368  83.1787603   5.7321451  65.0674421
  81.9822197   6.6198512  64.7988370  94.7920240  18.3618037  71.9257776
  94.6671380  17.5607777  71.4168721  95.4499332  18.8564230  71.4371746
  86.4128409   4.7166770  71.1034916  85.6914994   5.3302737  70.9642390
  87.2021664   5.2524534  71.0251562  96.8555149  16.1627057  73.5537326
  95.9085484  16.0432408  73.4815653  97.2037922  15.2749555  73.6363588
  84.6122003   4.3224871  65.2446693  84.2834709   3.4422250  65.0621799
  84.9661374   4.2672539  66.1323082  93.8601582  15.9579773  69.7541678
  93.7126545  15.0296481  69.9349248  94.6855076  15.9799864  69.2698754
  87.7263826   4.6097840  65.6122170  88.0659899   5.1383762  64.8900779
  88.1735947   4.9478247  66.3880737  97.4635704  16.7808332  70.8406551
  98.3882251  16.5751193  70.7031002  97.2951007  16.5324733  71.7495893
  89.7131974   3.1072462  63.8115463  90.4340336   3.4853715  63.3079180
  89.0897278   3.8261339  63.9150441  88.5962318   6.7703324  71.3244540
  88.4506899   7.0843627  72.2168822  88.1187521   7.3888225  70.7715439
  92.3084831   4.1943212  73.4178557  92.0502609   5.1160283  73.4162888
  91.7769872   3.7973647  74.1079021  97.2531020  17.2994000  66.1968643
  97.4267898  16.7340422  65.4442495  97.7459911  18.0994894  66.0148132
  83.0707980   9.3108669  74.2632201  82.5261448  10.0868477  74.3952476
  83.9487330   9.6579473  74.1051323 103.1070411  10.0630423  67.8158942
 103.5501557   9.3137748  67.4178066 102.2296922  10.0540559  67.4332674
  98.2406193  16.6160764  63.2965541  98.9357097  17.2367457  63.5152855
  98.5829343  15.7656115  63.5717919  83.8574002   8.4378565  77.1562358
  83.1155738   8.5861200  77.7426989  83.5366746   8.6986831  76.2929108
 100.1397616  14.0660470  64.8252872 100.6648940  14.4047742  64.1002192
 100.0519968  13.1307485  64.6416006  91.8017664  17.9794543  76.9542748
  92.1104791  17.7343690  77.8265448  92.5993146  18.1841182  76.4661618
  91.8238276  20.1332453  69.1848125  91.3843267  19.6408832  69.8780981
  92.5746393  19.5905420  68.9440200  84.3030615  16.3243994  69.1872753
  85.1288635  16.0247766  68.8071396  83.9524667  15.5551616  69.6362542
  89.2712149  15.6770462  71.2570426  88.6492158  15.0141167  70.9572654
  89.9417016  15.7031594  70.5744074  82.5039221  14.2430320  70.1461686
  81.6671129  13.8152494  69.9645688  82.4762866  14.4362763  71.0832478
  89.3436676   4.1552250  80.8502932  89.3924832   5.0314373  80.4680702
  89.8859190   3.6129643  80.2774576  99.8291522  14.6993373  80.1304070
  99.0387066  14.6817512  79.5908569  99.5924876  15.2381667  80.8853106
  99.9489397  11.5485840  77.4436798  99.9987402  11.3835847  78.3852321
  99.8403320  10.6813099  77.0534679  88.8325656  14.2274385  64.7328887
  88.9813776  14.9109850  64.0795560  89.6392099  14.2079475  65.2478343
  97.2393159   7.5316768  78.7596105  98.1403022   7.3923232  78.4680103
  97.3141134   7.6971222  79.6994282  91.5735965   4.9083622  77.6049291
  90.7039274   5.2017188  77.3331880  91.8095445   5.4924067  78.3256555
 101.4507594  13.9682781  77.6878820 101.1592402  14.3312762  78.5242281
 100.8379725  13.2549789  77.5092152 102.6503276  11.5335661  70.2081390
 103.4850167  11.9725465  70.3718950 102.7862405  11.0574314  69.3889636
  99.6994782   9.0915396  76.1558878 100.1748904   9.2843042  75.3477729
  98.7760347   9.1474582  75.9102261  86.5878289  10.2539563  65.7389956
  86.3424330   9.3501893  65.9370166  86.7574203  10.2556713  64.7969434
  85.8573936   5.9867920  63.2376117  85.1643181   6.0612275  62.5816153
  85.6125688   5.2228264  63.7597634  92.3321061  16.7222516  62.2040634
  91.7595028  17.3412703  61.7511106  92.9053855  17.2721877  62.7380556
  95.5518321  17.0059666  63.3349217  96.4848994  16.9405227  63.5382092
  95.4641534  17.8415933  62.8763749  98.1806338  16.3225536  60.2953164
  98.1019969  15.9885400  61.1888922  99.0016004  16.8147304  60.2944637
 100.8784529   9.1887275  73.5029483 100.8460849   8.2503276  73.6889167
 101.4885152   9.2671312  72.7695308  92.7167860   8.0583328  59.5456687
  93.6626964   7.9289537  59.6145105  92.3382105   7.3197990  60.0226115
 106.6961079  10.2503282  72.6435520 107.4264467   9.9888570  73.2043223
 106.0868024   9.5132004  72.6837588 104.7776376   8.3911145  73.2409971
 104.0509539   8.2567110  72.6326462 104.3623663   8.6987974  74.0466689
  92.6006552  12.1101075  81.0057344  93.5209562  12.2879674  81.1997390
  92.5656135  11.1657120  80.8537043  90.9010777   5.9833305  59.4811572
  89.9942232   5.6866418  59.5574286  91.1786758   5.6863123  58.6145858
  81.8188717   7.3039668  69.9310619  81.4991501   6.4504976  69.6384993
  81.2722145   7.5188246  70.6868586  85.5968625  10.0202109  73.6480125
  85.8154634  10.9519217  73.6668159  86.0094398   9.6610084  74.4334929
  90.4696490   5.5935315  83.0382874  90.3693217   6.5429672  82.9694965
  90.2518032   5.2653554  82.1658944  81.6876977  10.9242580  71.9003740
  80.9940449  10.5096533  71.3873695  82.4349968  10.9663116  71.3037159
  90.3327760   9.0232454  81.8547936  89.8494842   9.8232814  82.0611825
  90.4188699   9.0340399  80.9015380  83.6013720  10.8560834  69.7769755
  83.5784408  10.9548521  68.8251638  83.9114356  11.7025984  70.0986921
  86.2601098  12.9136989  73.8916369  87.2144351  12.8820931  73.8246301
  86.0613621  12.4527612  74.7066595  86.8500480  11.4838105  76.4587167
  87.6693369  11.9782183  76.4822004  87.1237287  10.5670073  76.4304735
  84.6151326  18.4556608  70.9086567  84.4805794  17.6957009  70.3424565
  84.1983389  19.1797508  70.4415356  95.7510289  13.6393532  59.9163143
  96.4546139  13.8443534  60.5320798  95.0272938  14.2070293  60.1812226
  96.5808100   9.3903393  66.0365413  96.5243301   9.8471944  65.1973045
  97.1336442   8.6294077  65.8588255  87.7720452  19.3525925  71.1205010
  87.6552836  20.2971358  71.0183700  86.9512898  19.0499487  71.5090809
  97.6596987  14.0776061  61.9661603  98.4942591  13.6457259  61.7839077
  97.4981330  13.9058074  62.8938497  97.3142879  10.5808174  63.3317942
  97.2591683  10.4152445  62.3906386  96.6888934  11.2884207  63.4880132
  82.1035394   5.8176238  77.1579364  82.7494257   5.3075192  77.6466589
  81.8952545   6.5544920  77.7322789  94.6288786  12.8857086  82.6571505
  95.4979946  13.0597738  82.2958140  94.1495538  13.7051503  82.5347234
  88.7974966  20.0054187  74.3360938  89.7002213  20.0377797  74.6527433
  88.5712336  19.0754638  74.3507274  90.5528568  18.7585173  70.9971017
  89.6024199  18.7587035  70.8835389  90.8561054  18.0117908  70.4807052
  86.4432885   2.9643856  81.2554378  87.3064346   2.6080660  81.4657703
  85.8698296   2.6257750  81.9429783 106.2881262  24.5945712  72.0616779
 106.9259672  24.4752459  71.3580119 106.1702105  25.5426556  72.1204732
 103.0970968  24.5473140  71.9978304 102.7589480  24.4314205  71.1098839
 103.9660736  24.1464305  71.9779310  98.9557784  26.4008616  67.9875195
  98.3922649  26.3098553  67.2191483  98.8410179  25.5808521  68.4677688
 103.5790751  25.7007992  77.9564510 103.5679392  25.3060790  77.0845013
 103.7411391  24.9674064  78.5498281  96.5022216  27.8959808  70.8259415
  97.2943508  27.5550633  70.4105715  96.7418866  28.0054783  71.7461569
 104.5357343  30.0679584  63.2989660 103.8845322  30.6533665  62.9123674
 105.3301705  30.5985779  63.3584697  98.4612970  27.1568721  63.6976794
  99.2343846  26.6097708  63.5589670  98.8138369  28.0212971  63.9091256
 100.2998012  28.4845104  76.9043694 100.0087878  29.3890734  76.7890360
 100.9354997  28.5261631  77.6187763 101.2254219  25.8621952  73.4945053
 101.8217791  25.6377974  72.7802016 101.2829191  25.1206698  74.0970501
 100.7979247  23.3161387  61.3295244 101.0504768  22.7942909  60.5678707
  99.8603807  23.1527533  61.4321928 105.8422530  22.3197166  69.1369987
 106.6285620  21.9016589  68.7860404 106.1061235  23.2243258  69.3051636
 106.0132608  27.7570016  63.8358644 105.3778441  27.8304643  64.5479549
 105.6830014  28.3463615  63.1577723 111.2430957  22.2572399  70.0402966
 111.9756129  21.6871616  70.2740795 110.4870313  21.8693999  70.4809471
 100.5175536  25.2189493  63.5319619 100.4011794  24.5434397  64.2000703
 100.6277796  24.7321867  62.7151772 102.8607077  24.6799640  67.2366308
 102.4965284  24.1530261  67.9479230 103.7174193  24.2898109  67.0632794
 108.7656378  15.9693973  74.4997575 108.4339703  16.8389384  74.2758789
 108.1701991  15.6530257  75.1791605 102.5012564  19.7089540  62.2327657
 102.6686966  20.5769777  62.5998128 102.3109733  19.8716822  61.3088946
 105.2587897  28.1706519  73.8993487 104.9588620  29.0731558  73.7909294
 104.9138957  27.9038702  74.7514640  98.7100379  24.6220316  69.9330192
  97.7850875  24.4896530  70.1407883  98.9584792  25.4014535  70.4300134
 108.6585041  20.6889059  71.5790925 107.7501918  20.6204468  71.2849686
 108.6072637  21.1661004  72.4072750 102.4801785  22.1647198  63.2174324
 102.3601410  22.6104248  64.0559804 101.7854373  22.5132515  62.6587862
  96.0709190  24.2653589  70.7673981  96.2001571  24.5188068  71.6813392
  95.3906641  24.8581297  70.4478636 100.2408677  34.9350839  66.8664455
 100.1632707  35.8858664  66.9452936  99.6370321  34.5896712  67.5239381
 102.7325907  22.1078705  79.5225822 101.9559241  22.6672625  79.5128686
 103.3716470  22.5935488  80.0440692 110.5246688  18.8905498  73.3568798
 109.8821068  19.1838031  72.7108593 110.0201616  18.7758418  74.1621995
 108.1786851  22.6368671  64.0454658 109.0904707  22.8696058  63.8702355
 107.6696498  23.2205715  63.4829736 100.9872279  24.9164158  79.0843789
 101.7286964  25.4549202  78.8078612 100.2809265  25.5430447  79.2415341
 106.4627619  27.0593299  77.6815950 106.8710975  26.6175709  76.9370583
 105.7404880  26.4845926  77.9350143 102.8158689  21.9965905  75.0549507
 103.6619884  22.4205319  75.1984156 102.7557327  21.3399530  75.7488070
 106.7856433  27.6194489  71.4368239 106.1565296  27.7840203  70.7344307
 106.3982096  28.0336099  72.2079203 110.6645665  28.5548927  68.7912603
 109.9796704  28.9347828  68.2409636 110.7489515  29.1644254  69.5244551
 105.9658134  19.6570274  76.7130681 105.7219066  20.4112334  76.1764957
 106.2418065  20.0355621  77.5477928 107.9196597  26.2008886  75.3907947
 108.1313492  26.8440646  74.7142328 107.8726345  25.3671203  74.9229877
 105.5222826  18.8126707  72.2944519 104.6607305  19.1107960  72.5861256
 105.5485261  19.0297106  71.3625551 102.3384395  27.3568897  68.7018324
 102.8022741  27.6356600  67.9122947 102.0741193  26.4552342  68.5191415
  99.2308476  26.9040379  71.6398088  99.8009833  27.3327647  71.0015572
  99.8216588  26.6222964  72.3382273 101.2753281  23.4792050  65.5107889
 101.9777325  23.9313093  65.9781816 100.9433910  22.8375869  66.1387783
  99.7233643  22.0703806  79.8859099  99.0932304  22.7520087  80.1194496
  99.6169731  21.9586888  78.9412237  95.0178615  21.7375602  70.8125023
  94.2277669  21.9933131  70.3365134  95.5089863  22.5523940  70.9177064
 109.0342425  29.0780842  73.5630304 109.8559869  28.6761029  73.2812985
 109.0304828  28.9749076  74.5146420  96.9693361  22.1020182  67.7708500
  96.1724524  22.2138876  68.2891995  96.7418953  22.4406834  66.9049390
 102.7999028  28.6264885  75.7191014 102.8643461  29.0885292  76.5549186
 102.0909952  27.9962250  75.8473324  93.3016318  21.9906093  73.2440014
  93.5524357  22.8753103  73.5097590  93.8375867  21.8110694  72.4715106
 117.1248418  25.4219590  69.9115275 116.3712126  24.8526988  69.7559280
 117.2595959  25.3882255  70.8585910 102.5147046  30.2932992  65.5869995
 102.3792721  31.1384528  66.0154842 103.0556859  30.4952270  64.8235928
  99.0014386  16.3724572  82.2484350  98.6081331  15.8190771  82.9231994
  99.8180526  16.6835151  82.6390867  95.9676443  27.8108430  66.1597920
  96.4800964  28.6051681  66.3103484  96.6199156  27.1134721  66.0931521
  97.7771328  30.9274187  68.2420673  97.9537956  31.8492151  68.0541657
  98.5728162  30.6132606  68.6715053 101.9182347  17.7882451  79.8404606
 102.6592060  18.3889604  79.7609069 102.1500269  17.0460089  79.2822649
  97.0623685  22.9738819  78.1182836  96.9477200  22.0724076  78.4189935
  96.2068202  23.2202515  77.7667653 104.1415522  30.9156559  79.7170337
 103.6979377  30.1292937  79.3991241 104.8032736  31.1035709  79.0514228
  98.9002644  32.4452360  74.2431015  99.4510069  32.3169424  73.4708009
  98.0614119  32.7447249  73.8925908 106.2396760  31.1959359  77.7451738
 106.2215236  32.0168240  77.2532007 107.1616681  31.0713434  77.9701879
 102.6969815  28.7103488  78.5875246 103.2298151  27.9491776  78.3574554
 102.1683896  28.4177140  79.3299401 105.8639510  13.8163554  74.1168888
 105.5203779  14.7065196  74.0407999 106.2318472  13.6265212  73.2538473
  93.9325360  26.1397085  66.9357490  94.7700582  26.5494093  66.7191198
  94.1103628  25.1996527  66.9057684 105.8289792  23.8072165  62.6241323
 105.3136416  24.5776770  62.8629711 105.5567101  23.1337301  63.2474385
 103.4136903  18.6521866  67.6826562 102.5578500  18.2628716  67.5032200
 103.8263855  18.7313827  66.8226347 104.9436050  16.1868209  72.0818121
 104.4400846  16.1498345  71.2685927 105.2366657  17.0960952  72.1414778
 101.1878936  16.2706939  71.0884303 102.0531933  16.0749748  70.7290193
 101.2556445  16.0417291  72.0153660 110.8024066  26.5604520  64.5594497
 110.0253509  26.2215679  64.1149659 111.4815547  26.5657143  63.8849462
 105.6176095  21.6799257  64.4501104 105.3126231  21.9945407  65.3011248
 106.5706538  21.7580677  64.4928437 104.0622527  27.8389481  66.0994058
 103.5343889  27.1042240  65.7867296 103.5610030  28.6164157  65.8534027
 109.0415373  26.0338501  71.2161105 108.3839048  26.7237763  71.3041233
 109.8455773  26.4234933  71.5595091  98.7941255  18.5009147  68.4600670
  99.3685007  18.2784329  67.7273863  99.3812237  18.5697842  69.2129271
 107.8520832  24.3882874  69.2665046 108.3652714  25.0212866  69.7686756
 108.5022056  23.7884069  68.9008406  99.1210842  20.5313608  62.4796555
  98.2848154  20.8688295  62.8005830  98.9815612  20.3962588  61.5423692
 101.0963923  15.3750396  67.1875739 100.4428335  15.0599413  66.5632354
 101.0544397  14.7526136  67.9135562 102.2075128  25.6569691  59.1029031
 101.3002189  25.4258944  59.3020180 102.7046159  24.8607310  59.2903013
 105.1143206  34.3667198  62.0225718 104.4404905  34.6698895  62.6310675
 105.5009028  35.1696279  61.6731175 104.3301663  21.8632329  71.5123387
 103.4124224  22.0847276  71.3545075 104.7461807  21.9378640  70.6535094
 105.1136711  23.2623745  66.6426067 105.8608530  23.7745142  66.3333189
 105.3828300  22.9407798  67.5030461 103.3863361  25.7582286  63.6253022
 102.4774580  25.4741319  63.7225491 103.4158445  26.1781364  62.7656328
 108.6182628  29.3688875  67.3944189 108.1644955  28.5279785  67.4509380
 107.9876595  30.0050274  67.7318969 107.5615548  20.2980861  68.6244857
 106.8238305  19.7858248  68.9555099 107.8142321  19.8581243  67.8128133
 107.0615568  31.2065372  68.3294007 107.3538542  31.7670429  67.6106373
 107.5714188  31.4993933  69.0847166 107.6627175  13.0757113  69.2186626
 107.9686052  12.2154477  68.9312541 108.3879780  13.6674734  69.0185620
  93.9551531  23.4787800  67.6068224  93.7575931  22.8857161  66.8819290
  93.3998195  23.1740010  68.3244163 101.9348255  23.3710906  69.7262817
 101.9896865  22.4184743  69.6505293 101.1239457  23.5270346  70.2104115
 103.0839449  27.2991030  60.9641100 102.6458879  26.5826888  60.5046737
 103.8249890  27.5267144  60.4026192  99.8740615  21.9887966  67.4853196
  99.0608480  22.2882137  67.8918388 100.3699609  21.5943655  68.2027678
 102.0249193  31.9845723  69.4187460 101.9825372  32.2106569  68.4895992
 102.9411892  31.7509098  69.5673262 105.4714827  22.4529791  76.3168090
 105.8264214  22.6801264  77.1762555 106.1186958  22.7848167  75.6945345
 111.2012564  25.5748227  67.0217419 111.0630462  25.7649823  66.0938608
 110.8448782  26.3367609  67.4785470  99.3654690  19.5606322  73.1014431
 100.0054069  19.4195081  72.4037394  98.5332220  19.2740835  72.7253033
 111.2281943  27.6424754  72.0328690 111.6618450  27.5500043  72.8811744
 111.9413524  27.6182254  71.3948706 100.1414994  28.8608752  69.2149423
 100.9355592  28.3659072  69.0131998  99.4306686  28.3326615  68.8517129
 104.9609838  31.2426848  73.5661791 105.0146860  31.8117784  74.3339507
 104.0924619  31.4128733  73.2015828  96.4497757  23.0051834  65.2909176
  95.5195345  22.9436289  65.5079138  96.5455229  22.4827787  64.4945817
  96.3683306  19.5306647  67.8787418  96.6290123  20.4451980  67.7696578
  97.1900478  19.0631089  68.0284030  97.8408231  20.9444404  75.0486242
  98.5131285  20.7361766  74.3998891  97.0138018  20.7466490  74.6091474
 112.0897493  27.6848454  74.5661576 112.2833383  28.5894265  74.8120851
 111.9898111  27.2255873  75.4000161 103.7433803  17.5706345  77.0651903
 103.0961718  18.2696294  76.9716379 104.5134819  18.0042489  77.4328151
 107.1512601  27.8355197  80.1402456 106.9998108  27.6065749  79.2232540
 107.1417281  28.7925798  80.1533801 103.9197938  25.4087110  75.1248723
 104.8489998  25.5598269  74.9517690 103.4988968  25.4971131  74.2697369
 102.7186270  29.4337774  72.8947260 102.5797355  29.0656559  73.7673198
 101.9300866  29.9485414  72.7231218 103.3134422  34.5346871  64.2372797
 103.4886177  34.0634914  65.0518419 102.6267210  35.1612637  64.4654058
 104.2691485  28.8119377  70.2836098 103.9341317  28.7720147  71.1793748
 103.7695430  28.1464093  69.8106508  98.2435729  24.2187007  75.8088679
  98.1055527  23.4867246  76.4100218  99.1540652  24.1295907  75.5272867
 107.2050676  26.1575411  60.5573158 106.5879847  25.4322239  60.4606210
 106.7367165  26.9184771  60.2140232 100.8718029  23.9306966  75.2972359
 101.5817648  23.2900158  75.2558977 100.8287338  24.1819861  76.2198540
 108.8604808  30.8674320  78.2178938 108.8017354  30.1833540  77.5509521
 109.2624326  31.6093310  77.7659564  99.5846963  20.9172184  77.1167998
  99.0484320  20.4662923  77.7689595  98.9963672  21.0518093  76.3738463
  97.8795507  37.6836233  71.0112657  98.1192105  38.3154758  71.6891676
  97.0364703  37.3324273  71.2978016  98.9949222  20.3760835  59.6794462
  98.1178689  20.2549636  59.3156709  99.4706975  19.5846914  59.4273351
 108.8622215  28.8313903  76.4492918 107.9748994  28.4939825  76.5719317
 109.4320766  28.0996935  76.6861683  90.5151362  25.1637995  69.7735969
  91.2022402  24.8499725  69.1856984  90.3599491  26.0679360  69.5003221
  95.3186085  20.0528192  74.2020993  95.2344273  19.4453861  73.4671403
  94.4968791  20.5437210  74.2030489 102.3923369  33.4915356  73.4154161
 102.3193540  34.2970327  73.9273465 101.9500762  33.6907322  72.5902182
 102.1813148  32.7287126  66.9256982 101.3980670  33.2708806  67.0195207
 102.8805893  33.2461105  67.3251224 105.4909798  18.5381755  69.5691188
 105.9878498  17.7851718  69.2492258 104.7196780  18.5746072  69.0034397
 113.3439556  24.2422121  71.2109479 113.3329432  25.1246836  70.8403412
 112.4756935  23.8893672  71.0164016 104.8522052  33.3902190  75.5712320
 105.5650024  34.0249655  75.4988221 104.3612081  33.4866056  74.7552321
 106.5739579  27.2953443  67.1429611 105.6395858  27.4154905  66.9734316
 106.7516248  26.3925909  66.8789621 102.0744767  20.6799138  69.2962872
 101.7042555  20.1270179  69.9843778 102.5703860  20.0757272  68.7437873
 109.9612130  23.1370762  67.6779645 110.4272583  23.9698753  67.6039948
 110.4119631  22.6715743  68.3824904  99.9033966  31.1396633  76.3917890
 100.6043425  31.7733116  76.5447285  99.4329081  31.4811365  75.6313530
 108.0288362  29.4814583  64.6765797 108.3048205  29.3671178  65.5859672
 107.1592860  29.0832068  64.6377971 107.9328793  15.5051349  71.7170547
 107.0191873  15.7355576  71.8852754 108.3621895  15.5889793  72.5684579
 107.7035252  23.6941241  74.2170441 107.0506702  23.9417148  73.5622894
 108.0815632  22.8805379  73.8832918 104.6642426  33.7300934  68.3198611
 104.8464820  32.9122590  68.7826363 105.4875412  33.9468626  67.8823501
 104.9984591  32.6569119  65.5813660 105.5272358  32.1461574  64.9683822
 105.2612811  32.3411649  66.4459193 103.7522825  24.4361052  80.7036478
 103.0763462  24.3355181  81.3738853 104.5750459  24.2800266  81.1672475
  95.5001684  30.6732988  73.3248993  96.0855121  29.9276676  73.4576897
  95.3026522  30.9836945  74.2085657  98.3540339  33.7084236  68.3411435
  97.6850714  34.1930363  67.8575476  98.2153209  33.9553456  69.2554814
  90.0919339  23.2438589  72.0453436  90.1303438  22.7102179  72.8390554
  89.5859631  22.7173794  71.4264413 102.4945608  35.7427979  74.9394094
 103.0463916  35.9059601  75.7043179 102.8351801  36.3332417  74.2674119
  97.4710101  18.0903129  75.5415979  97.5351427  18.9517960  75.1293376
  97.4077221  17.4777131  74.8088337  96.9462373  20.1626262  79.1889013
  97.5734412  19.7803339  79.8026537  96.0890292  19.9440464  79.5544705
 107.3456482  30.5689237  80.7942748 107.8896386  31.1819195  80.2997703
 106.7643327  31.1268815  81.3109761  93.7227916  21.9702691  65.1207368
  94.0181357  21.0613369  65.0674421  92.8215952  21.9490430  64.7988370
 105.6313995  33.6909955  71.9257776 105.5065134  32.8899695  71.4168721
 106.2893086  34.1856148  71.4371746  97.2522163  20.0458687  71.1034916
  96.5308749  20.6594655  70.9642390  98.0415419  20.5816452  71.0251562
 107.6948903  31.4918975  73.5537326 106.7479239  31.3724326  73.4815653
 108.0431676  30.6041473  73.6363588 100.0548477  17.3813114  77.3775568
 100.5782878  17.6275410  78.1401877  99.8360810  18.2133149  76.9578705
  95.4515758  19.6516788  65.2446693  95.1228464  18.7714167  65.0621799
  95.8055128  19.5964457  66.1323082 104.6995337  31.2871691  69.7541678
 104.5520299  30.3588399  69.9349248 105.5248830  31.3091782  69.2698754
  98.5657581  19.9389758  65.6122170  98.9053653  20.4675679  64.8900779
  99.0129701  20.2770164  66.3880737 108.3029458  32.1100250  70.8406551
 109.2276006  31.9043111  70.7031002 108.1344762  31.8616651  71.7495893
 101.2601022  18.3226809  75.0625239 100.9197842  17.5234622  75.4645918
 100.5540028  18.6228520  74.4902072 101.9117494  15.4076121  73.5152562
 102.7343563  14.9336600  73.3931452 102.1555557  16.1866605  74.0151248
 100.5525728  18.4364380  63.8115463 101.2734091  18.8145633  63.3079180
  99.9291032  19.1553257  63.9150441 104.6956851  19.1409529  64.7473796
 104.9120465  20.0234167  64.4462624 104.2150918  18.7495742  64.0179438
  99.4356072  22.0995242  71.3244540  99.2900653  22.4135545  72.2168822
  98.9581276  22.7180142  70.7715439 101.2952455  19.0897790  71.3725430
 101.2814024  18.1938883  71.0357728 102.0124883  19.0968454  72.0063716
 103.1478586  19.5235130  73.4178557 102.8896364  20.4452201  73.4162888
 102.6163626  19.1265565  74.1079021 108.0924775  32.6285917  66.1968643
 108.2661652  32.0632340  65.4442495 108.5853666  33.4286812  66.0148132
  93.9101734  24.6400586  74.2632201  93.3655203  25.4160394  74.3952476
  94.7881084  24.9871391  74.1051323 100.6989351  17.9712170  66.6413000
 100.8205262  17.0428816  66.8403887 100.4091393  17.9850856  65.7291315
 103.5680541  15.6567081  69.7779720 103.5902238  15.7206414  68.8231699
 103.9848600  14.8171589  69.9720226 113.9464166  25.3922340  67.8158942
 114.3895312  24.6429665  67.4178066 113.0690676  25.3832477  67.4332674
 109.0799947  31.9452682  63.2965541 109.7750852  32.5659374  63.5152855
 109.4223097  31.0948033  63.5717919  94.6967756  23.7670483  77.1562358
  93.9549492  23.9153118  77.7426989  94.3760501  24.0278748  76.2929108
 110.9791370  29.3952387  64.8252872 111.5042694  29.7339660  64.1002192
 110.8913723  28.4599403  64.6416006 102.6411419  33.3086461  76.9542748
 102.9498545  33.0635608  77.8265448 103.4386901  33.5133099  76.4661618
 102.6632031  35.4624370  69.1848125 102.2237021  34.9700749  69.8780981
 103.4140148  34.9197338  68.9440200  95.1424370  31.6535911  69.1872753
  95.9682390  31.3539683  68.8071396  94.7918422  30.8843534  69.6362542
 100.1105903  31.0062380  71.2570426  99.4885912  30.3433085  70.9572654
 100.7810770  31.0323511  70.5744074  93.3432975  29.5722238  70.1461686
  92.5064883  29.1444412  69.9645688  93.3156620  29.7654681  71.0832478
 100.1830431  19.4844168  80.8502932 100.2318586  20.3606290  80.4680702
 100.7252945  18.9421561  80.2774576 110.6685276  30.0285291  80.1304070
 109.8780820  30.0109430  79.5908569 110.4318631  30.5673585  80.8853106
 110.7883151  26.8777757  77.4436798 110.8381156  26.7127765  78.3852321
 110.6797075  26.0105016  77.0534679  99.6719410  29.5566303  64.7328887
  99.8207530  30.2401767  64.0795560 100.4785854  29.5371393  65.2478343
 108.0786914  22.8608685  78.7596105 108.9796776  22.7215150  78.4680103
 108.1534888  23.0263140  79.6994282 102.4129719  20.2375540  77.6049291
 101.5433028  20.5309106  77.3331880 102.6489199  20.8215985  78.3256555
 112.2901348  29.2974699  77.6878820 111.9986156  29.6604679  78.5242281
 111.6773479  28.5841707  77.5092152 113.4897030  26.8627579  70.2081390
 114.3243922  27.3017383  70.3718950 113.6256159  26.3866232  69.3889636
 110.5388536  24.4207313  76.1558878 111.0142658  24.6134960  75.3477729
 109.6154102  24.4766499  75.9102261  97.4272043  25.5831481  65.7389956
  97.1818085  24.6793811  65.9370166  97.5967958  25.5848631  64.7969434
 105.1168753  16.4555157  75.1214712 105.6350697  17.1916184  74.7961200
 104.7623886  16.7619150  75.9561471  96.6967691  21.3159838  63.2376117
  96.0036935  21.3904193  62.5816153  96.4519442  20.5520182  63.7597634
 105.3681347  12.8755439  70.6415608 105.6483101  12.2078629  71.2676035
 106.1531954  13.0684535  70.1290272 103.1714816  32.0514433  62.2040634
 102.5988783  32.6704620  61.7511106 103.7447609  32.6013795  62.7380556
 109.2390205  21.2973073  74.3887183 110.1907628  21.3971171  74.4099407
 109.0693656  20.5051342  74.8985268 107.2604585  18.3828657  74.5746584
 106.6654517  18.6633669  73.8793073 106.9754282  18.8722558  75.3463325
 106.3912075  32.3351583  63.3349217 107.3242749  32.2697145  63.5382092
 106.3035288  33.1707850  62.8763749 109.0200092  31.6517454  60.2953164
 108.9413724  31.3177317  61.1888922 109.8409759  32.1439222  60.2944637
 111.7178283  24.5179193  73.5029483 111.6854603  23.5795194  73.6889167
 112.3278907  24.5963230  72.7695308 103.5561614  23.3875246  59.5456687
 104.5020719  23.2581454  59.6145105 103.1775859  22.6489908  60.0226115
 111.8672772  21.3090237  73.5487766 111.3511820  20.5248693  73.3617695
 112.7512720  20.9808953  73.7134286 109.5283499  15.0531252  69.5083579
 109.3308320  14.7446340  70.3926911 110.1383204  15.7792891  69.6381509
 117.5354833  25.5795200  72.6435520 118.2658222  25.3180488  73.2043223
 116.9261779  24.8423922  72.6837588 115.6170130  23.7203063  73.2409971
 114.8903294  23.5859028  72.6326462 115.2017417  24.0279891  74.0466689
 103.4400307  27.4392992  81.0057344 104.3603316  27.6171591  81.1997390
 103.4049890  26.4949038  80.8537043 101.7404531  21.3125223  59.4811572
 100.8335987  21.0158335  59.5574286 102.0180512  21.0155041  58.6145858
  92.6582472  22.6331586  69.9310619  92.3385256  21.7796894  69.6384993
  92.1115900  22.8480164  70.6868586  96.4362379  25.3494027  73.6480125
  96.6548389  26.2811135  73.6668159  96.8488153  24.9902001  74.4334929
 103.3566597  15.8562112  65.6355813 102.5467325  15.5109197  66.0111059
 104.0451014  15.5469656  66.2243425 105.2857145  14.9340159  67.2580110
 105.8388184  15.3535612  67.9170133 105.5227232  14.0075907  67.3003066
 101.3090244  20.9227233  83.0382874 101.2086971  21.8721590  82.9694965
 101.0911787  20.5945472  82.1658944 100.5103316  18.1712158  59.6223551
 101.3722480  18.4967056  59.8819369 100.6953660  17.3843654  59.1096617
  92.5270732  26.2534497  71.9003740  91.8334203  25.8388450  71.3873695
  93.2743723  26.2955034  71.3037159 108.6635952  17.0440684  66.7658774
 108.0834621  17.7025488  66.3836827 108.3971885  16.2218029  66.3546192
 107.1139519  16.4445742  68.9680095 107.6139297  16.5562276  68.1594413
 107.7575127  16.1406795  69.6080903 101.1721515  24.3524372  81.8547936
 100.6888596  25.1524732  82.0611825 101.2582454  24.3632316  80.9015380
  94.4407474  26.1852751  69.7769755  94.4178162  26.2840438  68.8251638
  94.7508111  27.0317902  70.0986921  97.0994852  28.2428906  73.8916369
  98.0538106  28.2112849  73.8246301  96.9007376  27.7819530  74.7066595
  97.6894234  26.8130022  76.4587167  98.5087123  27.3074101  76.4822004
  97.9631042  25.8961990  76.4304735 107.4460830  19.2040775  65.8215123
 106.5586685  19.4890425  65.6035317 107.8614819  19.0434538  64.9742399
 110.7975366  19.2287296  69.5369462 111.5735757  19.7183748  69.8094079
 110.0723501  19.6545350  69.9941331 113.2347925  19.9414915  70.5943402
 113.8292416  19.7010651  69.8836711 113.3074509  19.2222045  71.2216939
  95.4545081  33.7848526  70.9086567  95.3199549  33.0248927  70.3424565
  95.0377143  34.5089426  70.4415356 106.5904044  28.9685449  59.9163143
 107.2939894  29.1735452  60.5320798 105.8666693  29.5362211  60.1812226
 107.4201854  24.7195311  66.0365413 107.3637055  25.1763862  65.1973045
 107.9730197  23.9585995  65.8588255 111.2306660  20.5085042  66.8615532
 110.9743594  20.1081678  67.6923740 110.6059528  21.2228836  66.7365671
 115.5418998  23.2481116  69.3686824 114.9818556  23.3174305  70.1418386
 114.9362501  23.0722100  68.6486320  98.6114207  34.6817843  71.1205010
  98.4946591  35.6263275  71.0183700  97.7906653  34.3791404  71.5090809
 108.4990741  29.4067978  61.9661603 109.3336345  28.9749177  61.7839077
 108.3375084  29.2349992  62.8938497 108.1536633  25.9100092  63.3317942
 108.0985437  25.7444363  62.3906386 107.5282689  26.6176125  63.4880132
  92.9429148  21.1468156  77.1579364  93.5888012  20.6367110  77.6466589
  92.7346299  21.8836838  77.7322789 105.4682541  28.2149004  82.6571505
 106.3373700  28.3889656  82.2958140 104.9889292  29.0343420  82.5347234
 101.4632759  15.4108201  62.9103260 101.4511429  16.3550041  63.0671531
 102.3556181  15.2278346  62.6162722  99.6368721  35.3346105  74.3360938
 100.5395968  35.3669715  74.6527433  99.4106091  34.4046556  74.3507274
 101.3922323  34.0877091  70.9971017 100.4417954  34.0878953  70.8835389
 101.6954809  33.3409826  70.4807052 105.2784878  12.0050977  67.1649197
 104.5117274  11.4509464  67.3105879 105.6895583  12.0772846  68.0263349
  97.2826639  18.2935773  81.2554378  98.1458101  17.9372578  81.4657703
  96.7092050  17.9549668  81.9429783 117.1275016  39.9237630  72.0616779
 117.7653426  39.8044377  71.3580119 117.0095859  40.8718474  72.1204732
 113.9364723  39.8765058  71.9978304 113.5983234  39.7606122  71.1098839
 114.8054491  39.4756223  71.9779310 109.7951538  41.7300534  67.9875195
 109.2316403  41.6390471  67.2191483 109.6803933  40.9100439  68.4677688
 114.4184506  41.0299909  77.9564510 114.4073146  40.6352708  77.0845013
 114.5805145  40.2965982  78.5498281 107.3415970  43.2251726  70.8259415
 108.1337262  42.8842550  70.4105715 107.5812620  43.3346701  71.7461569
 115.3751097  45.3971502  63.2989660 114.7239077  45.9825582  62.9123674
 116.1695460  45.9277697  63.3584697 109.3006724  42.4860639  63.6976794
 110.0737600  41.9389626  63.5589670 109.6532123  43.3504888  63.9091256
 111.1391767  43.8137021  76.9043694 110.8481633  44.7182652  76.7890360
 111.7748751  43.8553549  77.6187763 112.0647974  41.1913870  73.4945053
 112.6611546  40.9669892  72.7802016 112.1222945  40.4498615  74.0970501
 111.6373002  38.6453305  61.3295244 111.8898523  38.1234826  60.5678707
 110.6997561  38.4819450  61.4321928 116.6816285  37.6489083  69.1369987
 117.4679374  37.2308507  68.7860404 116.9454989  38.5535176  69.3051636
 116.8526362  43.0861934  63.8358644 116.2172195  43.1596560  64.5479549
 116.5223769  43.6755533  63.1577723 122.0824712  37.5864317  70.0402966
 122.8149884  37.0163533  70.2740795 121.3264068  37.1985917  70.4809471
 111.3569291  40.5481411  63.5319619 111.2405549  39.8726314  64.2000703
 111.4671551  40.0613785  62.7151772 113.7000832  40.0091558  67.2366308
 113.3359039  39.4822179  67.9479230 114.5567948  39.6190027  67.0632794
 119.6050132  31.2985891  74.4997575 119.2733457  32.1681302  74.2758789
 119.0095746  30.9822175  75.1791605 113.3406319  35.0381458  62.2327657
 113.5080721  35.9061694  62.5998128 113.1503488  35.2008739  61.3088946
 116.0981652  43.4998437  73.8993487 115.7982375  44.4023476  73.7909294
 115.7532711  43.2330620  74.7514640 109.5494133  39.9512234  69.9330192
 108.6244630  39.8188448  70.1407883 109.7978546  40.7306453  70.4300134
 119.4978796  36.0180977  71.5790925 118.5895673  35.9496385  71.2849686
 119.4466391  36.4952922  72.4072750 113.3195539  37.4939115  63.2174324
 113.1995165  37.9396166  64.0559804 112.6248128  37.8424433  62.6587862
 106.9102944  39.5945507  70.7673981 107.0395325  39.8479986  71.6813392
 106.2300396  40.1873215  70.4478636 111.0802432  50.2642757  66.8664455
 111.0026461  51.2150582  66.9452936 110.4764075  49.9188630  67.5239381
 113.5719661  37.4370622  79.5225822 112.7952995  37.9964543  79.5128686
 114.2110224  37.9227405  80.0440692 121.3640442  34.2197415  73.3568798
 120.7214822  34.5129948  72.7108593 120.8595371  34.1050336  74.1621995
 119.0180606  37.9660588  64.0454658 119.9298462  38.1987975  63.8702355
 118.5090253  38.5497633  63.4829736 111.8266034  40.2456076  79.0843789
 112.5680718  40.7841120  78.8078612 111.1203019  40.8722365  79.2415341
 117.3021373  42.3885216  77.6815950 117.7104729  41.9467627  76.9370583
 116.5798635  41.8137844  77.9350143 113.6552443  37.3257823  75.0549507
 114.5013639  37.7497237  75.1984156 113.5951081  36.6691447  75.7488070
 117.6250188  42.9486407  71.4368239 116.9959050  43.1132121  70.7344307
 117.2375850  43.3628016  72.2079203 121.5039420  43.8840845  68.7912603
 120.8190458  44.2639746  68.2409636 121.5883269  44.4936171  69.5244551
 116.8051889  34.9862191  76.7130681 116.5612821  35.7404252  76.1764957
 117.0811819  35.3647539  77.5477928 118.7590351  41.5300804  75.3907947
 118.9707247  42.1732564  74.7142328 118.7120100  40.6963120  74.9229877
 116.3616580  34.1418624  72.2944519 115.5001059  34.4399878  72.5861256
 116.3879015  34.3589023  71.3625551 113.1778150  42.6860815  68.7018324
 113.6416495  42.9648518  67.9122947 112.9134948  41.7844260  68.5191415
 110.0702231  42.2332297  71.6398088 110.6403588  42.6619565  71.0015572
 110.6610343  41.9514881  72.3382273 112.1147036  38.8083967  65.5107889
 112.8171079  39.2605011  65.9781816 111.7827664  38.1667786  66.1387783
 110.5627397  37.3995724  79.8859099 109.9326058  38.0812005  80.1194496
 110.4563485  37.2878806  78.9412237 105.8572370  37.0667520  70.8125023
 105.0671424  37.3225049  70.3365134 106.3483617  37.8815858  70.9177064
 119.8736179  44.4072759  73.5630304 120.6953623  44.0052946  73.2812985
 119.8698582  44.3040993  74.5146420 107.8087115  37.4312099  67.7708500
 107.0118279  37.5430794  68.2891995 107.5812707  37.7698752  66.9049390
 113.6392783  43.9556803  75.7191014 113.7037215  44.4177210  76.5549186
 112.9303707  43.3254167  75.8473324 104.1410073  37.3198010  73.2440014
 104.3918111  38.2045020  73.5097590 104.6769621  37.1402612  72.4715106
 127.9642172  40.7511508  69.9115275 127.2105881  40.1818906  69.7559280
 128.0989714  40.7174172  70.8585910 113.3540801  45.6224910  65.5869995
 113.2186475  46.4676446  66.0154842 113.8950613  45.8244188  64.8235928
 109.8408140  31.7016490  82.2484350 109.4475086  31.1482688  82.9231994
 110.6574280  32.0127068  82.6390867 106.8070198  43.1400348  66.1597920
 107.3194718  43.9343598  66.3103484 107.4592911  42.4426638  66.0931521
 108.6165083  46.2566104  68.2420673 108.7931711  47.1784069  68.0541657
 109.4121916  45.9424524  68.6715053 112.7576101  33.1174369  79.8404606
 113.4985815  33.7181522  79.7609069 112.9894024  32.3752007  79.2822649
 107.9017439  38.3030736  78.1182836 107.7870954  37.4015993  78.4189935
 107.0461957  38.5494433  77.7667653 114.9809277  46.2448477  79.7170337
 114.5373131  45.4584855  79.3991241 115.6426490  46.4327627  79.0514228
 109.7396398  47.7744278  74.2431015 110.2903823  47.6461341  73.4708009
 108.9007874  48.0739167  73.8925908 117.0790515  46.5251276  77.7451738
 117.0608990  47.3460157  77.2532007 118.0010435  46.4005352  77.9701879
 113.5363569  44.0395406  78.5875246 114.0691906  43.2783694  78.3574554
 113.0077650  43.7469058  79.3299401 116.7033264  29.1455472  74.1168888
 116.3597533  30.0357114  74.0407999 117.0712227  28.9557130  73.2538473
 104.7719115  41.4689002  66.9357490 105.6094337  41.8786011  66.7191198
 104.9497382  40.5288445  66.9057684 116.6683547  39.1364083  62.6241323
 116.1530170  39.9068688  62.8629711 116.3960855  38.4629219  63.2474385
 114.2530658  33.9813784  67.6826562 113.3972254  33.5920634  67.5032200
 114.6657610  34.0605745  66.8226347 115.7829804  31.5160127  72.0818121
 115.2794600  31.4790262  71.2685927 116.0760411  32.4252870  72.1414778
 112.0272690  31.5998857  71.0884303 112.8925687  31.4041665  70.7290193
 112.0950199  31.3709209  72.0153660 121.6417821  41.8896438  64.5594497
 120.8647264  41.5507597  64.1149659 122.3209302  41.8949061  63.8849462
 116.4569850  37.0091175  64.4501104 116.1519986  37.3237324  65.3011248
 117.4100292  37.0872595  64.4928437 114.9016282  43.1681398  66.0994058
 114.3737643  42.4334158  65.7867296 114.4003785  43.9456075  65.8534027
 119.8809128  41.3630419  71.2161105 119.2232802  42.0529680  71.3041233
 120.6849527  41.7526851  71.5595091 109.6335009  33.8301065  68.4600670
 110.2078761  33.6076246  67.7273863 110.2205992  33.8989759  69.2129271
 118.6914587  39.7174792  69.2665046 119.2046468  40.3504783  69.7686756
 119.3415811  39.1175987  68.9008406 109.9604597  35.8605526  62.4796555
 109.1241909  36.1980212  62.8005830 109.8209366  35.7254506  61.5423692
 111.9357677  30.7042314  67.1875739 111.2822089  30.3891331  66.5632354
 111.8938151  30.0818054  67.9135562 113.0468882  40.9861609  59.1029031
 112.1395944  40.7550862  59.3020180 113.5439914  40.1899228  59.2903013
 115.9536961  49.6959116  62.0225718 115.2798660  49.9990813  62.6310675
 116.3402783  50.4988196  61.6731175 115.1695418  37.1924247  71.5123387
 114.2517979  37.4139194  71.3545075 115.5855561  37.2670558  70.6535094
 115.9530465  38.5915663  66.6426067 116.7002284  39.1037060  66.3333189
 116.2222055  38.2699716  67.5030461 114.2257115  41.0874204  63.6253022
 113.3168335  40.8033236  63.7225491 114.2552199  41.5073282  62.7656328
 119.4576383  44.6980793  67.3944189 119.0038710  43.8571703  67.4509380
 118.8270350  45.3342191  67.7318969 118.4009302  35.6272779  68.6244857
 117.6632059  35.1150165  68.9555099 118.6536076  35.1873161  67.8128133
 117.9009322  46.5357290  68.3294007 118.1932296  47.0962347  67.6106373
 118.4107943  46.8285851  69.0847166 118.5020930  28.4049031  69.2186626
 118.8079807  27.5446394  68.9312541 119.2273535  28.9966651  69.0185620
 104.7945286  38.8079718  67.6068224 104.5969686  38.2149078  66.8819290
 104.2391950  38.5031928  68.3244163 112.7742009  38.7002824  69.7262817
 112.8290619  37.7476661  69.6505293 111.9633212  38.8562263  70.2104115
 113.9233203  42.6282947  60.9641100 113.4852633  41.9118806  60.5046737
 114.6643644  42.8559062  60.4026192 110.7134369  37.3179884  67.4853196
 109.9002235  37.6174054  67.8918388 111.2093364  36.9235573  68.2027678
 112.8642947  47.3137641  69.4187460 112.8219126  47.5398487  68.4895992
 113.7805646  47.0801015  69.5673262 116.3108581  37.7821708  76.3168090
 116.6657969  38.0093181  77.1762555 116.9580712  38.1140085  75.6945345
 122.0406318  40.9040144  67.0217419 121.9024217  41.0941740  66.0938608
 121.6842537  41.6659527  67.4785470 110.2048444  34.8898239  73.1014431
 110.8447823  34.7486999  72.4037394 109.3725975  34.6032753  72.7253033
 122.0675698  42.9716671  72.0328690 122.5012204  42.8791960  72.8811744
 122.7807278  42.9474172  71.3948706 110.9808748  44.1900670  69.2149423
 111.7749347  43.6950990  69.0131998 110.2700440  43.6618533  68.8517129
 115.8003593  46.5718765  73.5661791 115.8540615  47.1409702  74.3339507
 114.9318374  46.7420650  73.2015828 107.2891512  38.3343752  65.2909176
 106.3589100  38.2728207  65.5079138 107.3848984  37.8119704  64.4945817
 107.2077061  34.8598564  67.8787418 107.4683878  35.7743898  67.7696578
 108.0294233  34.3923007  68.0284030 108.6801986  36.2736322  75.0486242
 109.3525039  36.0653684  74.3998891 107.8531772  36.0758408  74.6091474
 122.9291247  43.0140372  74.5661576 123.1227137  43.9186182  74.8120851
 122.8291865  42.5547791  75.4000161 114.5827558  32.8998262  77.0651903
 113.9355473  33.5988212  76.9716379 115.3528573  33.3334406  77.4328151
 117.9906356  43.1647115  80.1402456 117.8391862  42.9357666  79.2232540
 117.9811035  44.1217716  80.1533801 114.7591692  40.7379027  75.1248723
 115.6883752  40.8890187  74.9517690 114.3382722  40.8263048  74.2697369
 113.5580024  44.7629692  72.8947260 113.4191110  44.3948476  73.7673198
 112.7694620  45.2777331  72.7231218 114.1528176  49.8638788  64.2372797
 114.3279932  49.3926831  65.0518419 113.4660964  50.4904554  64.4654058
 115.1085239  44.1411295  70.2836098 114.7735072  44.1012064  71.1793748
 114.6089185  43.4756010  69.8106508 109.0829483  39.5478925  75.8088679
 108.9449281  38.8159163  76.4100218 109.9934407  39.4587825  75.5272867
 118.0444431  41.4867329  60.5573158 117.4273601  40.7614157  60.4606210
 117.5760919  42.2476689  60.2140232 111.7111784  39.2598884  75.2972359
 112.4211402  38.6192076  75.2558977 111.6681092  39.5111779  76.2198540
 119.6998563  46.1966237  78.2178938 119.6411109  45.5125457  77.5509521
 120.1018081  46.9385227  77.7659564 110.4240718  36.2464102  77.1167998
 109.8878075  35.7954840  77.7689595 109.8357426  36.3810011  76.3738463
 108.7189261  53.0128151  71.0112657 108.9585860  53.6446675  71.6891676
 107.8758458  52.6616191  71.2978016 109.8342977  35.7052753  59.6794462
 108.9572443  35.5841554  59.3156709 110.3100730  34.9138831  59.4273351
 119.7015970  44.1605821  76.4492918 118.8142749  43.8231743  76.5719317
 120.2714521  43.4288852  76.6861683 101.3545117  40.4929913  69.7735969
 102.0416157  40.1791643  69.1856984 101.1993246  41.3971278  69.5003221
 106.1579839  35.3820109  74.2020993 106.0738028  34.7745779  73.4671403
 105.3362545  35.8729128  74.2030489 113.2317123  48.8207273  73.4154161
 113.1587295  49.6262245  73.9273465 112.7894516  49.0199239  72.5902182
 113.0206903  48.0579044  66.9256982 112.2374425  48.6000724  67.0195207
 113.7199648  48.5753023  67.3251224 116.3303553  33.8673673  69.5691188
 116.8272252  33.1143635  69.2492258 115.5590534  33.9037990  69.0034397
 124.1833310  39.5714039  71.2109479 124.1723187  40.4538754  70.8403412
 123.3150690  39.2185589  71.0164016 115.6915807  48.7194108  75.5712320
 116.4043779  49.3541572  75.4988221 115.2005835  48.8157974  74.7552321
 117.4133334  42.6245360  67.1429611 116.4789612  42.7446823  66.9734316
 117.5910002  41.7217827  66.8789621 112.9138522  36.0091056  69.2962872
 112.5436309  35.4562096  69.9843778 113.4097614  35.4049189  68.7437873
 120.8005885  38.4662679  67.6779645 121.2666337  39.2990671  67.6039948
 121.2513385  38.0007661  68.3824904 110.7427720  46.4688551  76.3917890
 111.4437180  47.1025034  76.5447285 110.2722835  46.8103283  75.6313530
 118.8682116  44.8106501  64.6765797 119.1441960  44.6963095  65.5859672
 117.9986615  44.4123986  64.6377971 118.7722548  30.8343266  71.7170547
 117.8585628  31.0647493  71.8852754 119.2015649  30.9181711  72.5684579
 118.5429006  39.0233158  74.2170441 117.8900456  39.2709066  73.5622894
 118.9209386  38.2097297  73.8832918 115.5036180  49.0592852  68.3198611
 115.6858575  48.2414508  68.7826363 116.3269166  49.2760544  67.8823501
 115.8378346  47.9861037  65.5813660 116.3666112  47.4753491  64.9683822
 116.1006565  47.6703567  66.4459193 114.5916579  39.7652969  80.7036478
 113.9157216  39.6647099  81.3738853 115.4144213  39.6092183  81.1672475
 106.3395438  46.0024906  73.3248993 106.9248875  45.2568594  73.4576897
 106.1420277  46.3128863  74.2085657 109.1934094  49.0376153  68.3411435
 108.5244469  49.5222281  67.8575476 109.0546963  49.2845374  69.2554814
 100.9313093  38.5730506  72.0453436 100.9697193  38.0394097  72.8390554
 100.4253386  38.0465712  71.4264413 113.3339362  51.0719897  74.9394094
 113.8857670  51.2351518  75.7043179 113.6745556  51.6624335  74.2674119
 108.3103855  33.4195047  75.5415979 108.3745182  34.2809878  75.1293376
 108.2470976  32.8069048  74.8088337 107.7856128  35.4918179  79.1889013
 108.4128167  35.1095257  79.8026537 106.9284047  35.2732381  79.5544705
 118.1850236  45.8981154  80.7942748 118.7290140  46.5111113  80.2997703
 117.6037081  46.4560733  81.3109761 104.5621671  37.2994608  65.1207368
 104.8575112  36.3905287  65.0674421 103.6609706  37.2782348  64.7988370
 116.4707749  49.0201872  71.9257776 116.3458889  48.2191612  71.4168721
 117.1286840  49.5148066  71.4371746 108.0915918  35.3750605  71.1034916
 107.3702503  35.9886573  70.9642390 108.8809173  35.9108370  71.0251562
 118.5342658  46.8210893  73.5537326 117.5872993  46.7016244  73.4815653
 118.8825431  45.9333391  73.6363588 110.8942231  32.7105031  77.3775568
 111.4176633  32.9567328  78.1401877 110.6754564  33.5425066  76.9578705
 106.2909512  34.9808706  65.2446693 105.9622218  34.1006085  65.0621799
 106.6448883  34.9256375  66.1323082 115.5389091  46.6163609  69.7541678
 115.3914053  45.6880316  69.9349248 116.3642585  46.6383699  69.2698754
 109.4051335  35.2681676  65.6122170 109.7447408  35.7967597  64.8900779
 109.8523456  35.6062082  66.3880737 119.1423213  47.4392167  70.8406551
 120.0669760  47.2335029  70.7031002 118.9738516  47.1908569  71.7495893
 112.0994776  33.6518727  75.0625239 111.7591597  32.8526540  75.4645918
 111.3933782  33.9520437  74.4902072 112.7511248  30.7368039  73.5152562
 113.5737317  30.2628517  73.3931452 112.9949312  31.5158523  74.0151248
 111.3919482  33.7656297  63.8115463 112.1127845  34.1437550  63.3079180
 110.7684787  34.4845174  63.9150441 115.5350605  34.4701446  64.7473796
 115.7514220  35.3526084  64.4462624 115.0544673  34.0787660  64.0179438
 110.2749827  37.4287160  71.3244540 110.1294407  37.7427463  72.2168822
 109.7975030  38.0472060  70.7715439 112.1346210  34.4189708  71.3725430
 112.1207778  33.5230801  71.0357728 112.8518638  34.4260371  72.0063716
 113.9872340  34.8527048  73.4178557 113.7290118  35.7744118  73.4162888
 113.4557381  34.4557482  74.1079021 118.9318529  47.9577835  66.1968643
 119.1055407  47.3924257  65.4442495 119.4247420  48.7578730  66.0148132
 104.7495489  39.9692504  74.2632201 104.2048957  40.7452312  74.3952476
 105.6274839  40.3163309  74.1051323 111.5383106  33.3004088  66.6413000
 111.6599017  32.3720734  66.8403887 111.2485148  33.3142774  65.7291315
 114.4074296  30.9858998  69.7779720 114.4295993  31.0498331  68.8231699
 114.8242355  30.1463507  69.9720226 124.7857920  40.7214258  67.8158942
 125.2289066  39.9721583  67.4178066 123.9084431  40.7124394  67.4332674
 119.9193702  47.2744599  63.2965541 120.6144606  47.8951292  63.5152855
 120.2616852  46.4239951  63.5717919 105.5361511  39.0962400  77.1562358
 104.7943247  39.2445036  77.7426989 105.2154255  39.3570666  76.2929108
 121.8185125  44.7244305  64.8252872 122.3436449  45.0631578  64.1002192
 121.7307477  43.7891320  64.6416006 113.4805173  48.6378379  76.9542748
 113.7892300  48.3927525  77.8265448 114.2780655  48.8425017  76.4661618
 113.5025785  50.7916288  69.1848125 113.0630776  50.2992667  69.8780981
 114.2533902  50.2489256  68.9440200 105.9818124  46.9827829  69.1872753
 106.8076144  46.6831601  68.8071396 105.6312176  46.2135451  69.6362542
 110.9499658  46.3354297  71.2570426 110.3279667  45.6725002  70.9572654
 111.6204525  46.3615429  70.5744074 104.1826730  44.9014155  70.1461686
 103.3458638  44.4736330  69.9645688 104.1550375  45.0946599  71.0832478
 111.0224185  34.8136085  80.8502932 111.0712341  35.6898208  80.4680702
 111.5646699  34.2713478  80.2774576 121.5079031  45.3577209  80.1304070
 120.7174574  45.3401347  79.5908569 121.2712385  45.8965502  80.8853106
 121.6276906  42.2069675  77.4436798 121.6774911  42.0419682  78.3852321
 121.5190829  41.3396934  77.0534679 110.5113165  44.8858221  64.7328887
 110.6601285  45.5693685  64.0795560 111.3179608  44.8663311  65.2478343
 118.9180668  38.1900603  78.7596105 119.8190531  38.0507068  78.4680103
 118.9928643  38.3555058  79.6994282 113.2523474  35.5667458  77.6049291
 112.3826783  35.8601024  77.3331880 113.4882954  36.1507903  78.3256555
 123.1295103  44.6266616  77.6878820 122.8379911  44.9896597  78.5242281
 122.5167234  43.9133625  77.5092152 124.3290785  42.1919496  70.2081390
 125.1637676  42.6309300  70.3718950 124.4649914  41.7158149  69.3889636
 121.3782291  39.7499231  76.1558878 121.8536413  39.9426877  75.3477729
 120.4547856  39.8058417  75.9102261 108.2665798  40.9123398  65.7389956
 108.0211839  40.0085728  65.9370166 108.4361712  40.9140549  64.7969434
 115.9562507  31.7847075  75.1214712 116.4744451  32.5208102  74.7961200
 115.6017640  32.0911068  75.9561471 107.5361445  36.6451756  63.2376117
 106.8430690  36.7196111  62.5816153 107.2913197  35.8812099  63.7597634
 116.2075102  28.2047357  70.6415608 116.4876855  27.5370546  71.2676035
 116.9925708  28.3976453  70.1290272 114.0108570  47.3806351  62.2040634
 113.4382537  47.9996538  61.7511106 114.5841364  47.9305713  62.7380556
 120.0783960  36.6264991  74.3887183 121.0301383  36.7263089  74.4099407
 119.9087410  35.8343260  74.8985268 118.0998339  33.7120574  74.5746584
 117.5048271  33.9925587  73.8793073 117.8148036  34.2014475  75.3463325
 117.2305830  47.6643501  63.3349217 118.1636503  47.5989063  63.5382092
 117.1429043  48.4999768  62.8763749 119.8593847  46.9809372  60.2953164
 119.7807478  46.6469235  61.1888922 120.6803513  47.4731139  60.2944637
 122.5572038  39.8471111  73.5029483 122.5248358  38.9087112  73.6889167
 123.1672661  39.9255148  72.7695308 114.3955369  38.7167164  59.5456687
 115.3414473  38.5873372  59.6145105 114.0169614  37.9781826  60.0226115
 122.7066526  36.6382154  73.5487766 122.1905575  35.8540611  73.3617695
 123.5906475  36.3100871  73.7134286 120.3677253  30.3823170  69.5083579
 120.1702074  30.0738258  70.3926911 120.9776959  31.1084809  69.6381509
 128.3748588  40.9087118  72.6435520 129.1051976  40.6472406  73.2043223
 127.7655533  40.1715840  72.6837588 126.4563885  39.0494980  73.2409971
 125.7297048  38.9150945  72.6326462 126.0411172  39.3571809  74.0466689
 114.2794061  42.7684910  81.0057344 115.1997071  42.9463509  81.1997390
 114.2443644  41.8240955  80.8537043 112.5798286  36.6417140  59.4811572
 111.6729741  36.3450253  59.5574286 112.8574267  36.3446958  58.6145858
 103.4976226  37.9623504  69.9310619 103.1779010  37.1088812  69.6384993
 102.9509654  38.1772082  70.6868586 107.2756134  40.6785945  73.6480125
 107.4942143  41.6103052  73.6668159 107.6881907  40.3193919  74.4334929
 114.1960351  31.1854030  65.6355813 113.3861080  30.8401115  66.0111059
 114.8844768  30.8761574  66.2243425 116.1250900  30.2632077  67.2580110
 116.6781938  30.6827530  67.9170133 116.3620986  29.3367825  67.3003066
 112.1483999  36.2519150  83.0382874 112.0480726  37.2013507  82.9694965
 111.9305541  35.9237389  82.1658944 111.3497070  33.5004075  59.6223551
 112.2116234  33.8258974  59.8819369 111.5347414  32.7135571  59.1096617
 103.3664486  41.5826415  71.9003740 102.6727958  41.1680368  71.3873695
 104.1137477  41.6246952  71.3037159 119.5029707  32.3732602  66.7658774
 118.9228376  33.0317406  66.3836827 119.2365639  31.5509946  66.3546192
 117.9533273  31.7737660  68.9680095 118.4533052  31.8854194  68.1594413
 118.5968881  31.4698712  69.6080903 112.0115269  39.6816289  81.8547936
 111.5282351  40.4816649  82.0611825 112.0976208  39.6924234  80.9015380
 105.2801229  41.5144669  69.7769755 105.2571917  41.6132356  68.8251638
 105.5901865  42.3609820  70.0986921 107.9388607  43.5720824  73.8916369
 108.8931860  43.5404766  73.8246301 107.7401130  43.1111448  74.7066595
 108.5287989  42.1421940  76.4587167 109.3480878  42.6366019  76.4822004
 108.8024796  41.2253908  76.4304735 118.2854585  34.5332692  65.8215123
 117.3980440  34.8182343  65.6035317 118.7008574  34.3726456  64.9742399
 121.6369121  34.5579213  69.5369462 122.4129511  35.0475666  69.8094079
 120.9117255  34.9837267  69.9941331 124.0741680  35.2706832  70.5943402
 124.6686170  35.0302568  69.8836711 124.1468263  34.5513963  71.2216939
 106.2938835  49.1140443  70.9086567 106.1593303  48.3540844  70.3424565
 105.8770898  49.8381343  70.4415356 117.4297798  44.2977367  59.9163143
 118.1333648  44.5027369  60.5320798 116.7060447  44.8654129  60.1812226
 118.2595609  40.0487228  66.0365413 118.2030810  40.5055780  65.1973045
 118.8123951  39.2877913  65.8588255 122.0700414  35.8376960  66.8615532
 121.8137349  35.4373596  67.6923740 121.4453283  36.5520754  66.7365671
 126.3812752  38.5773033  69.3686824 125.8212310  38.6466223  70.1418386
 125.7756256  38.4014018  68.6486320 109.4507961  50.0109760  71.1205010
 109.3340345  50.9555193  71.0183700 108.6300407  49.7083322  71.5090809
 119.3384496  44.7359896  61.9661603 120.1730100  44.3041095  61.7839077
 119.1768839  44.5641910  62.8938497 118.9930388  41.2392009  63.3317942
 118.9379192  41.0736281  62.3906386 118.3676443  41.9468042  63.4880132
 103.7822903  36.4760074  77.1579364 104.4281766  35.9659028  77.6466589
 103.5740054  37.2128755  77.7322789 116.3076295  43.5440921  82.6571505
 117.1767455  43.7181574  82.2958140 115.8283047  44.3635338  82.5347234
 112.3026513  30.7400118  62.9103260 112.2905183  31.6841958  63.0671531
 113.1949935  30.5570264  62.6162722 110.4762475  50.6638022  74.3360938
 111.3789722  50.6961633  74.6527433 110.2499845  49.7338473  74.3507274
 112.2316077  49.4169009  70.9971017 111.2811708  49.4170870  70.8835389
 112.5348563  48.6701743  70.4807052 116.1178633  27.3342895  67.1649197
 115.3511029  26.7801382  67.3105879 116.5289338  27.4064764  68.0263349
 108.1220394  33.6227691  81.2554378 108.9851855  33.2664496  81.4657703
 107.5485805  33.2841586  81.9429783 127.9668771  55.2529547  72.0616779
 128.6047181  55.1336295  71.3580119 127.8489614  56.2010391  72.1204732
 124.7758477  55.2056975  71.9978304 124.4376989  55.0898040  71.1098839
 125.6448245  54.8048140  71.9779310 120.6345293  57.0592452  67.9875195
 120.0710158  56.9682389  67.2191483 120.5197688  56.2392356  68.4677688
 125.2578260  56.3591827  77.9564510 125.2466901  55.9644625  77.0845013
 125.4198900  55.6257900  78.5498281 118.1809725  58.5543643  70.8259415
 118.9731017  58.2134468  70.4105715 118.4206375  58.6638618  71.7461569
 126.2144852  60.7263419  63.2989660 125.5632831  61.3117500  62.9123674
 127.0089214  61.2569614  63.3584697 120.1400479  57.8152557  63.6976794
 120.9131355  57.2681544  63.5589670 120.4925878  58.6796806  63.9091256
 121.9785521  59.1428939  76.9043694 121.6875387  60.0474570  76.7890360
 122.6142506  59.1845466  77.6187763 122.9041728  56.5205787  73.4945053
 123.5005300  56.2961810  72.7802016 122.9616700  55.7790533  74.0970501
 122.4766756  53.9745223  61.3295244 122.7292277  53.4526744  60.5678707
 121.5391316  53.8111368  61.4321928 127.5210039  52.9781001  69.1369987
 128.3073129  52.5600424  68.7860404 127.7848744  53.8827093  69.3051636
 127.6920117  58.4153851  63.8358644 127.0565950  58.4888478  64.5479549
 127.3617523  59.0047450  63.1577723 132.9218466  52.9156234  70.0402966
 133.6543638  52.3455451  70.2740795 132.1657822  52.5277835  70.4809471
 122.1963045  55.8773329  63.5319619 122.0799303  55.2018232  64.2000703
 122.3065305  55.3905703  62.7151772 124.5394586  55.3383476  67.2366308
 124.1752793  54.8114097  67.9479230 125.3961702  54.9481945  67.0632794
 130.4443887  46.6277808  74.4997575 130.1127212  47.4973219  74.2758789
 129.8489500  46.3114092  75.1791605 124.1800073  50.3673375  62.2327657
 124.3474475  51.2353612  62.5998128 123.9897242  50.5300657  61.3088946
 126.9375406  58.8290354  73.8993487 126.6376129  59.7315393  73.7909294
 126.5926466  58.5622538  74.7514640 120.3887888  55.2804151  69.9330192
 119.4638384  55.1480365  70.1407883 120.6372301  56.0598370  70.4300134
 130.3372550  51.3472895  71.5790925 129.4289427  51.2788303  71.2849686
 130.2860146  51.8244839  72.4072750 124.1589294  52.8231033  63.2174324
 124.0388919  53.2688084  64.0559804 123.4641882  53.1716351  62.6587862
 117.7496699  54.9237425  70.7673981 117.8789080  55.1771904  71.6813392
 117.0694150  55.5165133  70.4478636 121.9196186  65.5934675  66.8664455
 121.8420216  66.5442500  66.9452936 121.3157830  65.2480547  67.5239381
 124.4113416  52.7662540  79.5225822 123.6346750  53.3256460  79.5128686
 125.0503979  53.2519323  80.0440692 132.2034196  49.5489333  73.3568798
 131.5608577  49.8421866  72.7108593 131.6989125  49.4342253  74.1621995
 129.8574360  53.2952506  64.0454658 130.7692216  53.5279893  63.8702355
 129.3484007  53.8789550  63.4829736 122.6659788  55.5747994  79.0843789
 123.4074473  56.1133037  78.8078612 121.9596774  56.2014282  79.2415341
 128.1415128  57.7177134  77.6815950 128.5498484  57.2759544  76.9370583
 127.4192389  57.1429761  77.9350143 124.4946198  52.6549741  75.0549507
 125.3407393  53.0789154  75.1984156 124.4344836  51.9983365  75.7488070
 128.4643942  58.2778325  71.4368239 127.8352805  58.4424039  70.7344307
 128.0769605  58.6919934  72.2079203 132.3433174  59.2132762  68.7912603
 131.6584213  59.5931664  68.2409636 132.4277024  59.8228089  69.5244551
 127.6445643  50.3154109  76.7130681 127.4006575  51.0696170  76.1764957
 127.9205574  50.6939457  77.5477928 129.5984106  56.8592721  75.3907947
 129.8101001  57.5024481  74.7142328 129.5513854  56.0255038  74.9229877
 127.2010335  49.4710542  72.2944519 126.3394814  49.7691796  72.5861256
 127.2272770  49.6880941  71.3625551 124.0171904  58.0152733  68.7018324
 124.4810250  58.2940436  67.9122947 123.7528702  57.1136177  68.5191415
 120.9095985  57.5624214  71.6398088 121.4797342  57.9911483  71.0015572
 121.5004097  57.2806799  72.3382273 122.9540790  54.1375885  65.5107889
 123.6564834  54.5896929  65.9781816 122.6221419  53.4959704  66.1387783
 121.4021152  52.7287642  79.8859099 120.7719812  53.4103923  80.1194496
 121.2957240  52.6170723  78.9412237 116.6966124  52.3959438  70.8125023
 115.9065178  52.6516966  70.3365134 117.1877372  53.2107776  70.9177064
 130.7129934  59.7364677  73.5630304 131.5347378  59.3344864  73.2812985
 130.7092337  59.6332911  74.5146420 118.6480870  52.7604017  67.7708500
 117.8512033  52.8722711  68.2891995 118.4206462  53.0990669  66.9049390
 124.4786537  59.2848720  75.7191014 124.5430970  59.7469127  76.5549186
 123.7697461  58.6546085  75.8473324 114.9803827  52.6489928  73.2440014
 115.2311866  53.5336938  73.5097590 115.5163376  52.4694530  72.4715106
 138.8035927  56.0803425  69.9115275 138.0499635  55.5110823  69.7559280
 138.9383468  56.0466090  70.8585910 124.1934555  60.9516828  65.5869995
 124.0580230  61.7968363  66.0154842 124.7344368  61.1536105  64.8235928
 120.6801895  47.0308408  82.2484350 120.2868840  46.4774606  82.9231994
 121.4968035  47.3418986  82.6390867 117.6463952  58.4692266  66.1597920
 118.1588473  59.2635516  66.3103484 118.2986665  57.7718556  66.0931521
 119.4558837  61.5858022  68.2420673 119.6325465  62.5075987  68.0541657
 120.2515671  61.2716441  68.6715053 123.5969856  48.4466287  79.8404606
 124.3379569  49.0473440  79.7609069 123.8287778  47.7043924  79.2822649
 118.7411194  53.6322654  78.1182836 118.6264709  52.7307911  78.4189935
 117.8855711  53.8786351  77.7667653 125.8203031  61.5740394  79.7170337
 125.3766886  60.7876773  79.3991241 126.4820245  61.7619545  79.0514228
 120.5790153  63.1036196  74.2431015 121.1297578  62.9753259  73.4708009
 119.7401628  63.4031085  73.8925908 127.9184269  61.8543194  77.7451738
 127.9002745  62.6752075  77.2532007 128.8404190  61.7297269  77.9701879
 124.3757324  59.3687324  78.5875246 124.9085660  58.6075612  78.3574554
 123.8471405  59.0760975  79.3299401 127.5427019  44.4747390  74.1168888
 127.1991288  45.3649031  74.0407999 127.9105981  44.2849047  73.2538473
 115.6112869  56.7980920  66.9357490 116.4488091  57.2077928  66.7191198
 115.7891137  55.8580362  66.9057684 127.5077301  54.4656001  62.6241323
 126.9923925  55.2360605  62.8629711 127.2354610  53.7921137  63.2474385
 125.0924412  49.3105701  67.6826562 124.2366009  48.9212552  67.5032200
 125.5051364  49.3897662  66.8226347 126.6223559  46.8452045  72.0818121
 126.1188355  46.8082180  71.2685927 126.9154166  47.7544787  72.1414778
 122.8666445  46.9290774  71.0884303 123.7319442  46.7333583  70.7290193
 122.9343954  46.7001126  72.0153660 132.4811575  57.2188355  64.5594497
 131.7041018  56.8799515  64.1149659 133.1603056  57.2240978  63.8849462
 127.2963604  52.3383093  64.4501104 126.9913740  52.6529242  65.3011248
 128.2494047  52.4164513  64.4928437 125.7410036  58.4973316  66.0994058
 125.2131398  57.7626076  65.7867296 125.2397539  59.2747992  65.8534027
 130.7202882  56.6922337  71.2161105 130.0626557  57.3821598  71.3041233
 131.5243282  57.0818769  71.5595091 120.4728764  49.1592982  68.4600670
 121.0472516  48.9368164  67.7273863 121.0599746  49.2281677  69.2129271
 129.5308341  55.0466709  69.2665046 130.0440223  55.6796701  69.7686756
 130.1809565  54.4467905  68.9008406 120.7998351  51.1897443  62.4796555
 119.9635663  51.5272130  62.8005830 120.6603121  51.0546423  61.5423692
 122.7751432  46.0334231  67.1875739 122.1215844  45.7183248  66.5632354
 122.7331906  45.4109972  67.9135562 123.8862636  56.3153526  59.1029031
 122.9789698  56.0842780  59.3020180 124.3833668  55.5191146  59.2903013
 126.7930715  65.0251034  62.0225718 126.1192414  65.3282730  62.6310675
 127.1796537  65.8280114  61.6731175 126.0089172  52.5216165  71.5123387
 125.0911733  52.7431112  71.3545075 126.4249316  52.5962475  70.6535094
 126.7924220  53.9207580  66.6426067 127.5396039  54.4328978  66.3333189
 127.0615809  53.5991633  67.5030461 125.0650870  56.4166121  63.6253022
 124.1562089  56.1325154  63.7225491 125.0945954  56.8365200  62.7656328
 130.2970137  60.0272711  67.3944189 129.8432464  59.1863621  67.4509380
 129.6664104  60.6634109  67.7318969 129.2403057  50.9564697  68.6244857
 128.5025814  50.4442083  68.9555099 129.4929830  50.5165078  67.8128133
 128.7403077  61.8649207  68.3294007 129.0326051  62.4254265  67.6106373
 129.2501697  62.1577768  69.0847166 129.3414684  43.7340949  69.2186626
 129.6473561  42.8738312  68.9312541 130.0667289  44.3258569  69.0185620
 115.6339040  54.1371635  67.6068224 115.4363440  53.5440996  66.8819290
 115.0785704  53.8323846  68.3244163 123.6135764  54.0294742  69.7262817
 123.6684374  53.0768578  69.6505293 122.8026966  54.1854181  70.2104115
 124.7626958  57.9574865  60.9641100 124.3246388  57.2410724  60.5046737
 125.5037399  58.1850980  60.4026192 121.5528124  52.6471802  67.4853196
 120.7395989  52.9465972  67.8918388 122.0487118  52.2527490  68.2027678
 123.7036702  62.6429558  69.4187460 123.6612881  62.8690405  68.4895992
 124.6199401  62.4092933  69.5673262 127.1502336  53.1113626  76.3168090
 127.5051723  53.3385099  77.1762555 127.7974467  53.4432003  75.6945345
 132.8800073  56.2332062  67.0217419 132.7417971  56.4233658  66.0938608
 132.5236291  56.9951445  67.4785470 121.0442199  50.2190157  73.1014431
 121.6841578  50.0778916  72.4037394 120.2119729  49.9324670  72.7253033
 132.9069452  58.3008589  72.0328690 133.3405959  58.2083878  72.8811744
 133.6201033  58.2766089  71.3948706 121.8202503  59.5192587  69.2149423
 122.6143101  59.0242908  69.0131998 121.1094195  58.9910451  68.8517129
 126.6397347  61.9010683  73.5661791 126.6934369  62.4701619  74.3339507
 125.7712128  62.0712568  73.2015828 118.1285266  53.6635669  65.2909176
 117.1982854  53.6020125  65.5079138 118.2242738  53.1411622  64.4945817
 118.0470815  50.1890482  67.8787418 118.3077632  51.1035815  67.7696578
 118.8687987  49.7214925  68.0284030 119.5195740  51.6028239  75.0486242
 120.1918794  51.3945601  74.3998891 118.6925527  51.4050325  74.6091474
 133.7685002  58.3432290  74.5661576 133.9620892  59.2478100  74.8120851
 133.6685620  57.8839709  75.4000161 125.4221312  48.2290180  77.0651903
 124.7749227  48.9280130  76.9716379 126.1922328  48.6626324  77.4328151
 128.8300110  58.4939032  80.1402456 128.6785617  58.2649584  79.2232540
 128.8204790  59.4509634  80.1533801 125.5985447  56.0670945  75.1248723
 126.5277507  56.2182105  74.9517690 125.1776477  56.1554966  74.2697369
 124.3973779  60.0921609  72.8947260 124.2584864  59.7240394  73.7673198
 123.6088375  60.6069249  72.7231218 124.9921931  65.1930706  64.2372797
 125.1673686  64.7218749  65.0518419 124.3054719  65.8196472  64.4654058
 125.9478994  59.4703212  70.2836098 125.6128826  59.4303982  71.1793748
 125.4482939  58.8047928  69.8106508 119.9223238  54.8770842  75.8088679
 119.7843036  54.1451081  76.4100218 120.8328161  54.7879742  75.5272867
 128.8838185  56.8159247  60.5573158 128.2667356  56.0906075  60.4606210
 128.4154674  57.5768607  60.2140232 122.5505538  54.5890802  75.2972359
 123.2605157  53.9483994  75.2558977 122.5074846  54.8403696  76.2198540
 130.5392317  61.5258155  78.2178938 130.4804863  60.8417375  77.5509521
 130.9411835  62.2677145  77.7659564 121.2634472  51.5756019  77.1167998
 120.7271829  51.1246758  77.7689595 120.6751181  51.7101928  76.3738463
 119.5583016  68.3420069  71.0112657 119.7979614  68.9738593  71.6891676
 118.7152212  67.9908109  71.2978016 120.6736731  51.0344671  59.6794462
 119.7966198  50.9133472  59.3156709 121.1494484  50.2430749  59.4273351
 130.5409724  59.4897739  76.4492918 129.6536503  59.1523661  76.5719317
 131.1108275  58.7580770  76.6861683 112.1938871  55.8221831  69.7735969
 112.8809911  55.5083561  69.1856984 112.0387000  56.7263195  69.5003221
 116.9973594  50.7112027  74.2020993 116.9131782  50.1037697  73.4671403
 116.1756300  51.2021045  74.2030489 124.0710878  64.1499191  73.4154161
 123.9981049  64.9554163  73.9273465 123.6288271  64.3491157  72.5902182
 123.8600657  63.3870961  66.9256982 123.0768179  63.9292641  67.0195207
 124.5593402  63.9044941  67.3251224 127.1697307  49.1965591  69.5691188
 127.6666007  48.4435553  69.2492258 126.3984289  49.2329907  69.0034397
 135.0227065  54.9005956  71.2109479 135.0116941  55.7830672  70.8403412
 134.1544444  54.5477507  71.0164016 126.5309561  64.0486025  75.5712320
 127.2437533  64.6833490  75.4988221 126.0399590  64.1449891  74.7552321
 128.2527088  57.9537278  67.1429611 127.3183367  58.0738740  66.9734316
 128.4303757  57.0509745  66.8789621 123.7532276  51.3382974  69.2962872
 123.3830064  50.7854014  69.9843778 124.2491369  50.7341107  68.7437873
 131.6399639  53.7954597  67.6779645 132.1060092  54.6282589  67.6039948
 132.0907140  53.3299579  68.3824904 121.5821475  61.7980469  76.3917890
 122.2830934  62.4316952  76.5447285 121.1116590  62.1395200  75.6313530
 129.7075871  60.1398418  64.6765797 129.9835714  60.0255013  65.5859672
 128.8380369  59.7415903  64.6377971 129.6116302  46.1635184  71.7170547
 128.6979382  46.3939411  71.8852754 130.0409404  46.2473628  72.5684579
 129.3822761  54.3525076  74.2170441 128.7294211  54.6000984  73.5622894
 129.7603141  53.5389214  73.8832918 126.3429935  64.3884769  68.3198611
 126.5252329  63.5706425  68.7826363 127.1662921  64.6052462  67.8823501
 126.6772100  63.3152954  65.5813660 127.2059866  62.8045409  64.9683822
 126.9400320  62.9995485  66.4459193 125.4310334  55.0944887  80.7036478
 124.7550971  54.9939016  81.3738853 126.2537968  54.9384101  81.1672475
 117.1789193  61.3316824  73.3248993 117.7642630  60.5860512  73.4576897
 116.9814031  61.6420780  74.2085657 120.0327848  64.3668071  68.3411435
 119.3638223  64.8514199  67.8575476 119.8940718  64.6137292  69.2554814
 111.7706848  53.9022424  72.0453436 111.8090947  53.3686015  72.8390554
 111.2647140  53.3757629  71.4264413 124.1733117  66.4011815  74.9394094
 124.7251425  66.5643436  75.7043179 124.5139310  66.9916252  74.2674119
 119.1497610  48.7486964  75.5415979 119.2138936  49.6101795  75.1293376
 119.0864730  48.1360966  74.8088337 118.6249882  50.8210097  79.1889013
 119.2521921  50.4387174  79.8026537 117.7677801  50.6024299  79.5544705
 129.0243991  61.2273072  80.7942748 129.5683895  61.8403030  80.2997703
 128.4430836  61.7852651  81.3109761 115.4015425  52.6286526  65.1207368
 115.6968866  51.7197204  65.0674421 114.5003461  52.6074266  64.7988370
 127.3101504  64.3493790  71.9257776 127.1852643  63.5483530  71.4168721
 127.9680595  64.8439984  71.4371746 118.9309672  50.7042523  71.1034916
 118.2096258  51.3178490  70.9642390 119.7202928  51.2400287  71.0251562
 129.3736412  62.1502810  73.5537326 128.4266748  62.0308161  73.4815653
 129.7219185  61.2625308  73.6363588 121.7335986  48.0396949  77.3775568
 122.2570387  48.2859246  78.1401877 121.5148319  48.8716984  76.9578705
 117.1303267  50.3100624  65.2446693 116.8015973  49.4298003  65.0621799
 117.4842637  50.2548292  66.1323082 126.3782846  61.9455526  69.7541678
 126.2307808  61.0172234  69.9349248 127.2036339  61.9675617  69.2698754
 120.2445090  50.5973594  65.6122170 120.5841162  51.1259515  64.8900779
 120.6917210  50.9354000  66.3880737 129.9816967  62.7684085  70.8406551
 130.9063515  62.5626947  70.7031002 129.8132271  62.5200486  71.7495893
 122.9388531  48.9810644  75.0625239 122.5985351  48.1818457  75.4645918
 122.2327537  49.2812355  74.4902072 123.5905002  46.0659957  73.5152562
 124.4131072  45.5920435  73.3931452 123.8343066  46.8450440  74.0151248
 122.2313237  49.0948215  63.8115463 122.9521599  49.4729468  63.3079180
 121.6078541  49.8137092  63.9150441 126.3744360  49.7993364  64.7473796
 126.5907974  50.6818002  64.4462624 125.8938427  49.4079577  64.0179438
 121.1143581  52.7579077  71.3244540 120.9688162  53.0719380  72.2168822
 120.6368785  53.3763978  70.7715439 122.9739964  49.7481625  71.3725430
 122.9601533  48.8522719  71.0357728 123.6912392  49.7552289  72.0063716
 124.8266095  50.1818966  73.4178557 124.5683873  51.1036036  73.4162888
 124.2951135  49.7849400  74.1079021 129.7712284  63.2869753  66.1968643
 129.9449161  62.7216175  65.4442495 130.2641175  64.0870648  66.0148132
 115.5889243  55.2984422  74.2632201 115.0442711  56.0744230  74.3952476
 116.4668593  55.6455226  74.1051323 122.3776860  48.6296006  66.6413000
 122.4992771  47.7012652  66.8403887 122.0878902  48.6434692  65.7291315
 125.2468050  46.3150916  69.7779720 125.2689747  46.3790249  68.8231699
 125.6636109  45.4755425  69.9720226 135.6251675  56.0506176  67.8158942
 136.0682821  55.3013501  67.4178066 134.7478185  56.0416312  67.4332674
 130.7587456  62.6036517  63.2965541 131.4538361  63.2243210  63.5152855
 131.1010606  61.7531868  63.5717919 116.3755265  54.4254318  77.1562358
 115.6337001  54.5736953  77.7426989 116.0548010  54.6862584  76.2929108
 132.6578879  60.0536223  64.8252872 133.1830203  60.3923495  64.1002192
 132.5701232  59.1183238  64.6416006 124.3198928  63.9670296  76.9542748
 124.6286054  63.7219443  77.8265448 125.1174410  64.1716935  76.4661618
 124.3419540  66.1208206  69.1848125 123.9024530  65.6284585  69.8780981
 125.0927657  65.5781174  68.9440200 116.8211879  62.3119747  69.1872753
 117.6469899  62.0123519  68.8071396 116.4705931  61.5427369  69.6362542
 121.7893412  61.6646215  71.2570426 121.1673421  61.0016920  70.9572654
 122.4598279  61.6907347  70.5744074 115.0220484  60.2306073  70.1461686
 114.1852392  59.8028248  69.9645688 114.9944129  60.4238517  71.0832478
 121.8617940  50.1428003  80.8502932 121.9106095  51.0190126  80.4680702
 122.4040454  49.6005396  80.2774576 132.3472785  60.6869126  80.1304070
 131.5568329  60.6693265  79.5908569 132.1106140  61.2257420  80.8853106
 132.4670660  57.5361593  77.4436798 132.5168665  57.3711600  78.3852321
 132.3584584  56.6688852  77.0534679 121.3506919  60.2150138  64.7328887
 121.4995039  60.8985603  64.0795560 122.1573362  60.1955228  65.2478343
 129.7574423  53.5192521  78.7596105 130.6584285  53.3798985  78.4680103
 129.8322397  53.6846975  79.6994282 124.0917228  50.8959375  77.6049291
 123.2220537  51.1892941  77.3331880 124.3276708  51.4799820  78.3256555
 133.9688857  59.9558534  77.6878820 133.6773665  60.3188515  78.5242281
 133.3560988  59.2425542  77.5092152 135.1684539  57.5211414  70.2081390
 136.0031431  57.9601218  70.3718950 135.3043668  57.0450067  69.3889636
 132.2176045  55.0791149  76.1558878 132.6930167  55.2718795  75.3477729
 131.2941611  55.1350335  75.9102261 119.1059552  56.2415316  65.7389956
 118.8605594  55.3377646  65.9370166 119.2755467  56.2432466  64.7969434
 126.7956262  47.1138992  75.1214712 127.3138206  47.8500019  74.7961200
 126.4411395  47.4202986  75.9561471 118.3755200  51.9743673  63.2376117
 117.6824444  52.0488028  62.5816153 118.1306951  51.2104017  63.7597634
 127.0468856  43.5339275  70.6415608 127.3270610  42.8662464  71.2676035
 127.8319463  43.7268370  70.1290272 124.8502325  62.7098269  62.2040634
 124.2776292  63.3288456  61.7511106 125.4235118  63.2597630  62.7380556
 130.9177714  51.9556909  74.3887183 131.8695137  52.0555006  74.4099407
 130.7481165  51.1635177  74.8985268 128.9392094  49.0412492  74.5746584
 128.3442026  49.3217505  73.8793073 128.6541791  49.5306393  75.3463325
 128.0699584  62.9935419  63.3349217 129.0030257  62.9280981  63.5382092
 127.9822797  63.8291686  62.8763749 130.6987601  62.3101289  60.2953164
 130.6201233  61.9761153  61.1888922 131.5197268  62.8023057  60.2944637
 133.3965792  55.1763029  73.5029483 133.3642112  54.2379029  73.6889167
 134.0066416  55.2547065  72.7695308 125.2349123  54.0459081  59.5456687
 126.1808228  53.9165290  59.6145105 124.8563368  53.3073743  60.0226115
 133.5460281  51.9674072  73.5487766 133.0299329  51.1832529  73.3617695
 134.4300229  51.6392789  73.7134286 131.2071008  45.7115088  69.5083579
 131.0095829  45.4030176  70.3926911 131.8170713  46.4376726  69.6381509
 139.2142342  56.2379035  72.6435520 139.9445731  55.9764323  73.2043223
 138.6049288  55.5007757  72.6837588 137.2957639  54.3786898  73.2409971
 136.5690803  54.2442863  72.6326462 136.8804926  54.6863727  74.0466689
 125.1187816  58.0976828  81.0057344 126.0390825  58.2755427  81.1997390
 125.0837399  57.1532873  80.8537043 123.4192040  51.9709058  59.4811572
 122.5123496  51.6742171  59.5574286 123.6968021  51.6738876  58.6145858
 114.3369981  53.2915421  69.9310619 114.0172765  52.4380729  69.6384993
 113.7903409  53.5063999  70.6868586 118.1149888  56.0077862  73.6480125
 118.3335898  56.9394970  73.6668159 118.5275662  55.6485837  74.4334929
 125.0354106  46.5145948  65.6355813 124.2254834  46.1693033  66.0111059
 125.7238523  46.2053491  66.2243425 126.9644654  45.5923994  67.2580110
 127.5175693  46.0119448  67.9170133 127.2014741  44.6659742  67.3003066
 122.9877753  51.5811068  83.0382874 122.8874480  52.5305425  82.9694965
 122.7699295  51.2529307  82.1658944 122.1890825  48.8295993  59.6223551
 123.0509989  49.1550891  59.8819369 122.3741169  48.0427489  59.1096617
 114.2058241  56.9118333  71.9003740 113.5121712  56.4972286  71.3873695
 114.9531232  56.9538869  71.3037159 130.3423461  47.7024520  66.7658774
 129.7622130  48.3609324  66.3836827 130.0759394  46.8801864  66.3546192
 128.7927028  47.1029577  68.9680095 129.2926806  47.2146112  68.1594413
 129.4362636  46.7990630  69.6080903 122.8509024  55.0108207  81.8547936
 122.3676105  55.8108567  82.0611825 122.9369963  55.0216152  80.9015380
 116.1194983  56.8436587  69.7769755 116.0965671  56.9424274  68.8251638
 116.4295620  57.6901737  70.0986921 118.7782361  58.9012742  73.8916369
 119.7325615  58.8696684  73.8246301 118.5794885  58.4403365  74.7066595
 119.3681743  57.4713858  76.4587167 120.1874632  57.9657936  76.4822004
 119.6418551  56.5545826  76.4304735 129.1248339  49.8624610  65.8215123
 128.2374194  50.1474261  65.6035317 129.5402328  49.7018373  64.9742399
 132.4762875  49.8871131  69.5369462 133.2523266  50.3767583  69.8094079
 131.7511010  50.3129185  69.9941331 134.9135434  50.5998750  70.5943402
 135.5079925  50.3594486  69.8836711 134.9862018  49.8805881  71.2216939
 117.1332590  64.4432361  70.9086567 116.9987058  63.6832762  70.3424565
 116.7164652  65.1673261  70.4415356 128.2691553  59.6269285  59.9163143
 128.9727403  59.8319287  60.5320798 127.5454202  60.1946046  60.1812226
 129.0989363  55.3779146  66.0365413 129.0424564  55.8347697  65.1973045
 129.6517706  54.6169830  65.8588255 132.9094169  51.1668878  66.8615532
 132.6531103  50.7665513  67.6923740 132.2847037  51.8812672  66.7365671
 137.2206507  53.9064951  69.3686824 136.6606065  53.9758140  70.1418386
 136.6150010  53.7305936  68.6486320 120.2901716  65.3401678  71.1205010
 120.1734100  66.2847111  71.0183700 119.4694162  65.0375240  71.5090809
 130.1778250  60.0651814  61.9661603 131.0123854  59.6333012  61.7839077
 130.0162593  59.8933827  62.8938497 129.8324142  56.5683927  63.3317942
 129.7772946  56.4028199  62.3906386 129.2070198  57.2759960  63.4880132
 114.6216657  51.8051991  77.1579364 115.2675521  51.2950945  77.6466589
 114.4133808  52.5420673  77.7322789 127.1470050  58.8732839  82.6571505
 128.0161209  59.0473491  82.2958140 126.6676801  59.6927256  82.5347234
 123.1420268  46.0692036  62.9103260 123.1298938  47.0133876  63.0671531
 124.0343690  45.8862182  62.6162722 121.3156230  65.9929940  74.3360938
 122.2183476  66.0253550  74.6527433 121.0893600  65.0630391  74.3507274
 123.0709832  64.7460927  70.9971017 122.1205463  64.7462788  70.8835389
 123.3742318  63.9993661  70.4807052 126.9572387  42.6634813  67.1649197
 126.1904783  42.1093299  67.3105879 127.3683092  42.7356682  68.0263349
 118.9614148  48.9519609  81.2554378 119.8245610  48.5956413  81.4657703
 118.3879559  48.6133503  81.9429783 138.8062525  70.5821465  72.0616779
 139.4440935  70.4628212  71.3580119 138.6883368  71.5302309  72.1204732
 135.6152232  70.5348893  71.9978304 135.2770743  70.4189958  71.1098839
 136.4842000  70.1340058  71.9779310 131.4739047  72.3884369  67.9875195
 130.9103912  72.2974306  67.2191483 131.3591442  71.5684274  68.4677688
 136.0972015  71.6883745  77.9564510 136.0860655  71.2936543  77.0845013
 136.2592654  70.9549817  78.5498281 129.0203479  73.8835561  70.8259415
 129.8124771  73.5426386  70.4105715 129.2600129  73.9930536  71.7461569
 137.0538606  76.0555337  63.2989660 136.4026586  76.6409418  62.9123674
 137.8482969  76.5861532  63.3584697 130.9794233  73.1444474  63.6976794
 131.7525109  72.5973461  63.5589670 131.3319632  74.0088724  63.9091256
 132.8179276  74.4720857  76.9043694 132.5269142  75.3766487  76.7890360
 133.4536260  74.5137384  77.6187763 133.7435483  71.8497705  73.4945053
 134.3399055  71.6253727  72.7802016 133.8010454  71.1082451  74.0970501
 133.3160511  69.3037140  61.3295244 133.5686032  68.7818662  60.5678707
 132.3785070  69.1403286  61.4321928 138.3603794  68.3072919  69.1369987
 139.1466883  67.8892342  68.7860404 138.6242498  69.2119011  69.3051636
 138.5313871  73.7445769  63.8358644 137.8959704  73.8180396  64.5479549
 138.2011278  74.3339368  63.1577723 133.0356800  71.2065246  63.5319619
 132.9193058  70.5310150  64.2000703 133.1459060  70.7197620  62.7151772
 135.3788341  70.6675393  67.2366308 135.0146548  70.1406014  67.9479230
 136.2355457  70.2773863  67.0632794 135.0193828  65.6965293  62.2327657
 135.1868230  66.5645530  62.5998128 134.8290997  65.8592575  61.3088946
 137.7769161  74.1582272  73.8993487 137.4769884  75.0607311  73.7909294
 137.4320220  73.8914455  74.7514640 131.2281642  70.6096069  69.9330192
 130.3032139  70.4772283  70.1407883 131.4766055  71.3890288  70.4300134
 141.1766305  66.6764812  71.5790925 140.2683182  66.6080221  71.2849686
 141.1253900  67.1536757  72.4072750 134.9983048  68.1522951  63.2174324
 134.8782674  68.5980001  64.0559804 134.3035637  68.5008268  62.6587862
 128.5890453  70.2529342  70.7673981 128.7182834  70.5063821  71.6813392
 127.9087905  70.8457050  70.4478636 132.7589941  80.9226592  66.8664455
 132.6813970  81.8734417  66.9452936 132.1551584  80.5772465  67.5239381
 135.2507170  68.0954458  79.5225822 134.4740504  68.6548378  79.5128686
 135.8897733  68.5811241  80.0440692 133.5053543  70.9039911  79.0843789
 134.2468227  71.4424955  78.8078612 132.7990528  71.5306200  79.2415341
 138.9808882  73.0469052  77.6815950 139.3892238  72.6051462  76.9370583
 138.2586144  72.4721679  77.9350143 135.3339952  67.9841658  75.0549507
 136.1801148  68.4081072  75.1984156 135.2738590  67.3275283  75.7488070
 139.3037697  73.6070242  71.4368239 138.6746559  73.7715956  70.7344307
 138.9163359  74.0211852  72.2079203 138.4839398  65.6446027  76.7130681
 138.2400330  66.3988087  76.1764957 138.7599328  66.0231374  77.5477928
 140.4377860  72.1884639  75.3907947 140.6494756  72.8316399  74.7142328
 140.3907609  71.3546956  74.9229877 138.0404089  64.8002460  72.2944519
 137.1788568  65.0983713  72.5861256 138.0666524  65.0172859  71.3625551
 134.8565659  73.3444650  68.7018324 135.3204004  73.6232353  67.9122947
 134.5922457  72.4428095  68.5191415 131.7489740  72.8916132  71.6398088
 132.3191097  73.3203400  71.0015572 132.3397852  72.6098717  72.3382273
 133.7934545  69.4667803  65.5107889 134.4958588  69.9188846  65.9781816
 133.4615173  68.8251622  66.1387783 132.2414906  68.0579559  79.8859099
 131.6113567  68.7395840  80.1194496 132.1350994  67.9462641  78.9412237
 127.5359879  67.7251355  70.8125023 126.7458933  67.9808884  70.3365134
 128.0271126  68.5399693  70.9177064 129.4874624  68.0895935  67.7708500
 128.6905787  68.2014629  68.2891995 129.2600216  68.4282587  66.9049390
 135.3180292  74.6140638  75.7191014 135.3824724  75.0761045  76.5549186
 134.6091216  73.9838003  75.8473324 125.8197582  67.9781846  73.2440014
 126.0705620  68.8628856  73.5097590 126.3557130  67.7986447  72.4715106
 135.0328309  76.2808745  65.5869995 134.8973984  77.1260281  66.0154842
 135.5738122  76.4828023  64.8235928 131.5195649  62.3600325  82.2484350
 131.1262595  61.8066524  82.9231994 132.3361789  62.6710904  82.6390867
 130.2952592  76.9149940  68.2420673 130.4719220  77.8367904  68.0541657
 131.0909425  76.6008359  68.6715053 134.4363610  63.7758204  79.8404606
 135.1773323  64.3765357  79.7609069 134.6681533  63.0335842  79.2822649
 129.5804948  68.9614572  78.1182836 129.4658463  68.0599829  78.4189935
 128.7249466  69.2078268  77.7667653 136.6596786  76.9032312  79.7170337
 136.2160640  76.1168690  79.3991241 137.3213999  77.0911462  79.0514228
 131.4183907  78.4328113  74.2431015 131.9691332  78.3045177  73.4708009
 130.5795383  78.7323002  73.8925908 138.7578024  77.1835112  77.7451738
 138.7396499  78.0043993  77.2532007 139.6797944  77.0589187  77.9701879
 135.2151078  74.6979241  78.5875246 135.7479415  73.9367529  78.3574554
 134.6865159  74.4052893  79.3299401 138.3820773  59.8039307  74.1168888
 138.0385042  60.6940949  74.0407999 138.7499736  59.6140965  73.2538473
 138.3471056  69.7947918  62.6241323 137.8317679  70.5652523  62.8629711
 138.0748364  69.1213055  63.2474385 135.9318167  64.6397619  67.6826562
 135.0759763  64.2504470  67.5032200 136.3445119  64.7189580  66.8226347
 137.4617313  62.1743962  72.0818121 136.9582109  62.1374098  71.2685927
 137.7547920  63.0836705  72.1414778 133.7060199  62.2582692  71.0884303
 134.5713196  62.0625501  70.7290193 133.7737708  62.0293044  72.0153660
 138.1357359  67.6675010  64.4501104 137.8307495  67.9821160  65.3011248
 139.0887801  67.7456430  64.4928437 136.5803791  73.8265234  66.0994058
 136.0525152  73.0917993  65.7867296 136.0791294  74.6039910  65.8534027
 131.3122518  64.4884900  68.4600670 131.8866270  64.2660082  67.7273863
 131.8993501  64.5573595  69.2129271 140.3702096  70.3758627  69.2665046
 140.8833977  71.0088619  69.7686756 141.0203320  69.7759822  68.9008406
 131.6392106  66.5189361  62.4796555 130.8029418  66.8564048  62.8005830
 131.4996875  66.3838341  61.5423692 133.6145186  61.3626149  67.1875739
 132.9609598  61.0475166  66.5632354 133.5725660  60.7401889  67.9135562
 134.7256391  71.6445444  59.1029031 133.8183453  71.4134697  59.3020180
 135.2227423  70.8483063  59.2903013 137.6324470  80.3542951  62.0225718
 136.9586169  80.6574648  62.6310675 138.0190292  81.1572032  61.6731175
 136.8482926  67.8508082  71.5123387 135.9305488  68.0723029  71.3545075
 137.2643070  67.9254393  70.6535094 137.6317974  69.2499498  66.6426067
 138.3789793  69.7620895  66.3333189 137.9009564  68.9283551  67.5030461
 135.9044624  71.7458039  63.6253022 134.9955844  71.4617072  63.7225491
 135.9339708  72.1657117  62.7656328 141.1363892  75.3564628  67.3944189
 140.6826219  74.5155538  67.4509380 140.5057859  75.9926027  67.7318969
 140.0796811  66.2856614  68.6244857 139.3419568  65.7734001  68.9555099
 140.3323585  65.8456996  67.8128133 139.5796831  77.1941125  68.3294007
 139.8719805  77.7546182  67.6106373 140.0895452  77.4869686  69.0847166
 140.1808439  59.0632866  69.2186626 140.4867316  58.2030230  68.9312541
 140.9061044  59.6550487  69.0185620 134.4529518  69.3586659  69.7262817
 134.5078128  68.4060496  69.6505293 133.6420720  69.5146099  70.2104115
 135.6020712  73.2866783  60.9641100 135.1640142  72.5702641  60.5046737
 136.3431153  73.5142897  60.4026192 132.3921878  67.9763719  67.4853196
 131.5789744  68.2757890  67.8918388 132.8880873  67.5819408  68.2027678
 134.5430456  77.9721476  69.4187460 134.5006635  78.1982322  68.4895992
 135.4593155  77.7384851  69.5673262 137.9896090  68.4405544  76.3168090
 138.3445478  68.6677017  77.1762555 138.6368221  68.7723920  75.6945345
 131.8835953  65.5482075  73.1014431 132.5235332  65.4070834  72.4037394
 131.0513484  65.2616588  72.7253033 132.6596257  74.8484505  69.2149423
 133.4536856  74.3534825  69.0131998 131.9487949  74.3202368  68.8517129
 137.4791102  77.2302601  73.5661791 137.5328124  77.7993537  74.3339507
 136.6105883  77.4004486  73.2015828 128.8864570  65.5182400  67.8787418
 129.1471387  66.4327733  67.7696578 129.7081742  65.0506842  68.0284030
 130.3589495  66.9320157  75.0486242 131.0312548  66.7237519  74.3998891
 129.5319281  66.7342243  74.6091474 136.2615067  63.5582098  77.0651903
 135.6142982  64.2572047  76.9716379 137.0316082  63.9918242  77.4328151
 139.6693865  73.8230950  80.1402456 139.5179371  73.5941502  79.2232540
 139.6598544  74.7801551  80.1533801 136.4379201  71.3962863  75.1248723
 137.3671261  71.5474022  74.9517690 136.0170231  71.4846884  74.2697369
 135.2367533  75.4213527  72.8947260 135.0978619  75.0532312  73.7673198
 134.4482129  75.9361167  72.7231218 135.8315685  80.5222624  64.2372797
 136.0067441  80.0510667  65.0518419 135.1448473  81.1488390  64.4654058
 136.7872748  74.7995130  70.2836098 136.4522581  74.7595900  71.1793748
 136.2876694  74.1339846  69.8106508 130.7616992  70.2062760  75.8088679
 130.6236790  69.4742999  76.4100218 131.6721916  70.1171660  75.5272867
 139.7231940  72.1451164  60.5573158 139.1061110  71.4197992  60.4606210
 139.2548428  72.9060524  60.2140232 133.3899293  69.9182719  75.2972359
 134.0998911  69.2775911  75.2558977 133.3468601  70.1695614  76.2198540
 132.1028227  66.9047937  77.1167998 131.5665584  66.4538676  77.7689595
 131.5144935  67.0393846  76.3738463 131.5130486  66.3636589  59.6794462
 130.6359952  66.2425389  59.3156709 131.9888239  65.5722667  59.4273351
 123.0332626  71.1513748  69.7735969 123.7203666  70.8375478  69.1856984
 122.8780755  72.0555113  69.5003221 127.8367348  66.0403945  74.2020993
 127.7525537  65.4329614  73.4671403 127.0150054  66.5312963  74.2030489
 134.9104632  79.4791109  73.4154161 134.8374804  80.2846080  73.9273465
 134.4682025  79.6783075  72.5902182 134.6994412  78.7162879  66.9256982
 133.9161934  79.2584559  67.0195207 135.3987157  79.2336859  67.3251224
 138.0091062  64.5257508  69.5691188 138.5059761  63.7727471  69.2492258
 137.2378043  64.5621825  69.0034397 137.3703316  79.3777943  75.5712320
 138.0831288  80.0125408  75.4988221 136.8793344  79.4741809  74.7552321
 139.0920843  73.2829196  67.1429611 138.1577121  73.4030658  66.9734316
 139.2697511  72.3801662  66.8789621 134.5926031  66.6674891  69.2962872
 134.2223818  66.1145932  69.9843778 135.0885123  66.0633025  68.7437873
 132.4215229  77.1272386  76.3917890 133.1224689  77.7608869  76.5447285
 131.9510344  77.4687118  75.6313530 140.5469625  75.4690336  64.6765797
 140.8229469  75.3546931  65.5859672 139.6774124  75.0707821  64.6377971
 140.4510057  61.4927102  71.7170547 139.5373136  61.7231329  71.8852754
 140.8803158  61.5765546  72.5684579 140.2216515  69.6816994  74.2170441
 139.5687965  69.9292901  73.5622894 140.5996895  68.8681132  73.8832918
 137.1823689  79.7176687  68.3198611 137.3646084  78.8998343  68.7826363
 138.0056675  79.9344379  67.8823501 137.5165855  78.6444872  65.5813660
 138.0453621  78.1337327  64.9683822 137.7794074  78.3287402  66.4459193
 136.2704088  70.4236805  80.7036478 135.5944725  70.3230934  81.3738853
 137.0931722  70.2676019  81.1672475 128.0182947  76.6608741  73.3248993
 128.6036384  75.9152429  73.4576897 127.8207786  76.9712698  74.2085657
 122.6100602  69.2314342  72.0453436 122.6484702  68.6977932  72.8390554
 122.1040895  68.7049547  71.4264413 135.0126871  81.7303732  74.9394094
 135.5645179  81.8935354  75.7043179 135.3533065  82.3208170  74.2674119
 129.9891364  64.0778882  75.5415979 130.0532691  64.9393713  75.1293376
 129.9258485  63.4652884  74.8088337 129.4643637  66.1502015  79.1889013
 130.0915676  65.7679092  79.8026537 128.6071556  65.9316217  79.5544705
 139.8637745  76.5564990  80.7942748 140.4077649  77.1694948  80.2997703
 139.2824590  77.1144568  81.3109761 138.1495258  79.6785708  71.9257776
 138.0246398  78.8775448  71.4168721 138.8074349  80.1731901  71.4371746
 129.7703427  66.0334440  71.1034916 129.0490012  66.6470408  70.9642390
 130.5596682  66.5692205  71.0251562 140.2130167  77.4794728  73.5537326
 139.2660502  77.3600079  73.4815653 140.5612940  76.5917226  73.6363588
 132.5729740  63.3688867  77.3775568 133.0964142  63.6151163  78.1401877
 132.3542073  64.2008902  76.9578705 127.9697021  65.6392541  65.2446693
 127.6409727  64.7589920  65.0621799 128.3236392  65.5840210  66.1323082
 137.2176600  77.2747444  69.7541678 137.0701562  76.3464152  69.9349248
 138.0430094  77.2967535  69.2698754 131.0838844  65.9265511  65.6122170
 131.4234917  66.4551432  64.8900779 131.5310965  66.2645917  66.3880737
 133.7782285  64.3102562  75.0625239 133.4379106  63.5110375  75.4645918
 133.0721291  64.6104273  74.4902072 134.4298757  61.3951874  73.5152562
 135.2524826  60.9212353  73.3931452 134.6736821  62.1742358  74.0151248
 133.0706991  64.4240133  63.8115463 133.7915354  64.8021386  63.3079180
 132.4472296  65.1429010  63.9150441 137.2138114  65.1285282  64.7473796
 137.4301729  66.0109920  64.4462624 136.7332182  64.7371495  64.0179438
 131.9537336  68.0870995  71.3244540 131.8081916  68.4011298  72.2168822
 131.4762539  68.7055895  70.7715439 133.8133719  65.0773543  71.3725430
 133.7995287  64.1814636  71.0357728 134.5306147  65.0844207  72.0063716
 135.6659849  65.5110883  73.4178557 135.4077627  66.4327954  73.4162888
 135.1344890  65.1141318  74.1079021 140.6106038  78.6161670  66.1968643
 140.7842916  78.0508093  65.4442495 141.1034929  79.4162565  66.0148132
 126.4282998  70.6276339  74.2632201 125.8836466  71.4036147  74.3952476
 127.3062348  70.9747144  74.1051323 133.2170615  63.9587923  66.6413000
 133.3386526  63.0304569  66.8403887 132.9272657  63.9726609  65.7291315
 136.0861805  61.6442834  69.7779720 136.1083502  61.7082167  68.8231699
 136.5029864  60.8047342  69.9720226 127.2149020  69.7546236  77.1562358
 126.4730756  69.9028871  77.7426989 126.8941764  70.0154501  76.2929108
 135.1592682  79.2962214  76.9542748 135.4679809  79.0511361  77.8265448
 135.9568164  79.5008852  76.4661618 135.1813294  81.4500124  69.1848125
 134.7418285  80.9576502  69.8780981 135.9321411  80.9073091  68.9440200
 132.6287167  76.9938133  71.2570426 132.0067176  76.3308838  70.9572654
 133.2992034  77.0199264  70.5744074 132.7011694  65.4719921  80.8502932
 132.7499850  66.3482043  80.4680702 133.2434208  64.9297314  80.2774576
 132.1900674  75.5442056  64.7328887 132.3388794  76.2277520  64.0795560
 132.9967117  75.5247146  65.2478343 134.9310983  66.2251293  77.6049291
 134.0614292  66.5184859  77.3331880 135.1670463  66.8091738  78.3256555
 137.6350016  62.4430910  75.1214712 138.1531960  63.1791937  74.7961200
 137.2805149  62.7494903  75.9561471 129.2148954  67.3035591  63.2376117
 128.5218199  67.3779946  62.5816153 128.9700706  66.5395935  63.7597634
 137.8862611  58.8631192  70.6415608 138.1664364  58.1954382  71.2676035
 138.6713217  59.0560288  70.1290272 135.6896079  78.0390186  62.2040634
 135.1170046  78.6580374  61.7511106 136.2628873  78.5889548  62.7380556
 139.7785848  64.3704410  74.5746584 139.1835780  64.6509422  73.8793073
 139.4935545  64.8598311  75.3463325 138.9093339  78.3227337  63.3349217
 139.8424012  78.2572898  63.5382092 138.8216552  79.1583603  62.8763749
 136.0742878  69.3750999  59.5456687 137.0201982  69.2457207  59.6145105
 135.6957122  68.6365661  60.0226115 135.9581570  73.4268745  81.0057344
 136.8784580  73.6047344  81.1997390 135.9231153  72.4824791  80.8537043
 134.2585795  67.3000976  59.4811572 133.3517250  67.0034088  59.5574286
 134.5361776  67.0030794  58.6145858 125.1763735  68.6207339  69.9310619
 124.8566519  67.7672647  69.6384993 124.6297163  68.8355917  70.6868586
 128.9543643  71.3369780  73.6480125 129.1729652  72.2686888  73.6668159
 129.3669416  70.9777754  74.4334929 135.8747860  61.8437865  65.6355813
 135.0648589  61.4984950  66.0111059 136.5632277  61.5345409  66.2243425
 137.8038409  60.9215912  67.2580110 138.3569447  61.3411365  67.9170133
 138.0408495  59.9951660  67.3003066 133.8271508  66.9102986  83.0382874
 133.7268235  67.8597343  82.9694965 133.6093050  66.5821225  82.1658944
 133.0284579  64.1587911  59.6223551 133.8903743  64.4842809  59.8819369
 133.2134923  63.3719407  59.1096617 125.0451995  72.2410250  71.9003740
 124.3515467  71.8264203  71.3873695 125.7924986  72.2830787  71.3037159
 141.1817216  63.0316437  66.7658774 140.6015885  63.6901241  66.3836827
 140.9153148  62.2093782  66.3546192 139.6320782  62.4321495  68.9680095
 140.1320561  62.5438029  68.1594413 140.2756390  62.1282548  69.6080903
 133.6902778  70.3400125  81.8547936 133.2069860  71.1400485  82.0611825
 133.7763717  70.3508069  80.9015380 126.9588738  72.1728504  69.7769755
 126.9359426  72.2716191  68.8251638 127.2689374  73.0193655  70.0986921
 129.6176115  74.2304659  73.8916369 130.5719369  74.1988602  73.8246301
 129.4188639  73.7695283  74.7066595 130.2075498  72.8005775  76.4587167
 131.0268387  73.2949854  76.4822004 130.4812305  71.8837743  76.4304735
 139.9642094  65.1916528  65.8215123 139.0767949  65.4766178  65.6035317
 140.3796083  65.0310291  64.9742399 139.1085307  74.9561202  59.9163143
 139.8121157  75.1611205  60.5320798 138.3847956  75.5237964  60.1812226
 139.9383118  70.7071064  66.0365413 139.8818319  71.1639615  65.1973045
 140.4911460  69.9461748  65.8588255 140.6717897  71.8975845  63.3317942
 140.6166701  71.7320116  62.3906386 140.0463952  72.6051878  63.4880132
 125.4610412  67.1343909  77.1579364 126.1069275  66.6242863  77.6466589
 125.2527563  67.8712591  77.7322789 137.9863804  74.2024757  82.6571505
 138.8554964  74.3765409  82.2958140 137.5070556  75.0219173  82.5347234
 133.9814022  61.3983954  62.9103260 133.9692692  62.3425794  63.0671531
 134.8737444  61.2154099  62.6162722 132.1549984  81.3221858  74.3360938
 133.0577231  81.3545468  74.6527433 131.9287354  80.3922309  74.3507274
 133.9103586  80.0752844  70.9971017 132.9599217  80.0754706  70.8835389
 134.2136072  79.3285579  70.4807052 137.7966142  57.9926730  67.1649197
 137.0298538  57.4385217  67.3105879 138.2076847  58.0648599  68.0263349
 129.8007903  64.2811526  81.2554378 130.6639364  63.9248331  81.4657703
 129.2273314  63.9425421  81.9429783 139.8597234  89.2127479  70.8259415
 140.6518526  88.8718303  70.4105715 140.0993884  89.3222454  71.7461569
 139.4284208  85.5821260  70.7673981 139.5576589  85.8355739  71.6813392
 138.7481659  86.1748968  70.4478636 138.3753633  83.0543273  70.8125023
 137.5852687  83.3100802  70.3365134 138.8664881  83.8691611  70.9177064
 140.3268379  83.4187852  67.7708500 139.5299542  83.5306547  68.2891995
 140.0993971  83.7574505  66.9049390 136.6591336  83.3073764  73.2440014
 136.9099375  84.1920773  73.5097590 137.1950885  83.1278365  72.4715106
 139.3251461  89.1276101  66.1597920 139.8375982  89.9219351  66.3103484
 139.9774174  88.4302392  66.0931521 140.4198703  84.2906489  78.1182836
 140.3052218  83.3891746  78.4189935 139.5643220  84.5370186  77.7667653
 137.2900378  87.4564755  66.9357490 138.1275600  87.8661764  66.7191198
 137.4678646  86.5164198  66.9057684 137.3126549  84.7955471  67.6068224
 137.1150949  84.2024831  66.8819290 136.7573213  84.4907681  68.3244163
 139.8072775  84.3219505  65.2909176 138.8770363  84.2603960  65.5079138
 139.9030247  83.7995457  64.4945817 139.7258324  80.8474317  67.8787418
 139.9865141  81.7619651  67.7696578 140.5475496  80.3798760  68.0284030
 133.8726380  86.4805666  69.7735969 134.5597420  86.1667396  69.1856984
 133.7174509  87.3847031  69.5003221 138.6761103  81.3695862  74.2020993
 138.5919291  80.7621532  73.4671403 137.8543809  81.8604881  74.2030489
 138.8576702  91.9900659  73.3248993 139.4430139  91.2444347  73.4576897
 138.6601540  92.3004616  74.2085657 133.4494357  84.5606259  72.0453436
 133.4878456  84.0269850  72.8390554 132.9434649  84.0341465  71.4264413
 140.8285119  79.4070800  75.5415979 140.8926445  80.2685631  75.1293376
 140.7652239  78.7944801  74.8088337 140.3037391  81.4793932  79.1889013
 140.9309430  81.0971010  79.8026537 139.4465310  81.2608134  79.5544705
 137.0802934  83.2870361  65.1207368 137.3756375  82.3781040  65.0674421
 136.1790970  83.2658101  64.7988370 138.8090776  80.9684459  65.2446693
 138.4803482  80.0881838  65.0621799 139.1630146  80.9132128  66.1323082
 137.2676752  85.9568257  74.2632201 136.7230220  86.7328065  74.3952476
 138.1456102  86.3039062  74.1051323 138.0542774  85.0838153  77.1562358
 137.3124510  85.2320789  77.7426989 137.7335519  85.3446419  76.2929108
 138.4999388  92.9703582  69.1872753 139.3257408  92.6707354  68.8071396
 138.1493440  92.2011204  69.6362542 136.7007993  90.8889909  70.1461686
 135.8639901  90.4612083  69.9645688 136.6731638  91.0822352  71.0832478
 140.7847061  86.8999151  65.7389956 140.5393103  85.9961481  65.9370166
 140.9542976  86.9016302  64.7969434 140.0542709  82.6327509  63.2376117
 139.3611953  82.7071864  62.5816153 139.8094460  81.8687852  63.7597634
 136.0157490  83.9499257  69.9310619 135.6960274  83.0964565  69.6384993
 135.4690918  84.1647835  70.6868586 139.7937397  86.6661698  73.6480125
 140.0123407  87.5978805  73.6668159 140.2063171  86.3069672  74.4334929
 135.8845750  87.5702168  71.9003740 135.1909221  87.1556121  71.3873695
 136.6318741  87.6122705  71.3037159 137.7982492  87.5020422  69.7769755
 137.7753180  87.6008109  68.8251638 138.1083129  88.3485573  70.0986921
 138.8120099  95.1016196  70.9086567 138.6774567  94.3416597  70.3424565
 138.3952161  95.8257096  70.4415356 136.3004166  82.4635827  77.1579364
 136.9463030  81.9534781  77.6466589 136.0921317  83.2004508  77.7322789
 100.2408678  11.9412962  53.5909762 100.1632708  12.8920787  53.6698242
  99.6370322  11.5958834  54.2484688 102.5147047   7.2995115  52.3115301
 102.3792722   8.1446651  52.7400149 103.0556860   7.5014393  51.5481235
  97.7771329   7.9336309  54.9665980  97.9537958   8.8554274  54.7786963
  98.5728163   7.6194728  55.3960359  98.9002645   9.4514483  60.9676322
  99.4510070   9.3231546  60.1953316  98.0614121   9.7509372  60.6171215
 105.1143208  11.3729321  48.7471024 104.4404906  11.6761018  49.3555982
 105.5009030  12.1758401  48.3976481 102.0249194   8.9907846  56.1432767
 101.9825373   9.2168692  55.2141299 102.9411893   8.7571220  56.2918568
 104.9609839   8.2488970  60.2907097 105.0146862   8.8179907  61.0584813
 104.0924621   8.4190855  59.9261135 103.3134423  11.5408993  50.9618103
 103.4886178  11.0697036  51.7763726 102.6267211  12.1674759  51.1899364
  97.8795508  14.6898356  57.7357964  98.1192106  15.3216880  58.4136982
  97.0364705  14.3386396  58.0223323 102.3923370  10.4977478  60.1399468
 102.3193541  11.3032450  60.6518772 101.9500763  10.6969444  59.3147489
 102.1813150   9.7349248  53.6502289 101.3980671  10.2770929  53.7440514
 102.8805895  10.2523228  54.0496530 104.8522053  10.3964312  62.2957626
 105.5650026  11.0311777  62.2233528 104.3612082  10.4928178  61.4797628
  99.9033967   8.1458756  63.1163197 100.6043426   8.7795239  63.2692591
  99.4329082   8.4873487  62.3558836 104.6642427  10.7363057  55.0443918
 104.8464821   9.9184712  55.5071670 105.4875413  10.9530749  54.6068808
 104.9984592   9.6631242  52.3058966 105.5272359   9.1523696  51.6929128
 105.2612812   9.3473772  53.1704499  95.5001685   7.6795111  60.0494300
  96.0855122   6.9338799  60.1822204  95.3026524   7.9899068  60.9330964
  98.3540340  10.7146358  55.0656742  97.6850716  11.1992486  54.5820782
  98.2153210  10.9615579  55.9800121 102.4945609  12.7490102  61.6639400
 103.0463917  12.9121723  62.4288486 102.8351802  13.3394540  60.9919425
 105.6313996  10.6972077  58.6503083 105.5065136   9.8961817  58.1414028
 106.2893087  11.1918271  58.1617053 102.6411420  10.3148583  63.6788055
 102.9498547  10.0697730  64.5510754 103.4386902  10.5195222  63.1906925
 102.6632032  12.4686493  55.9093431 102.2237023  11.9762872  56.6026288
 103.4140149  11.9259461  55.6685507  95.1424371   8.6598034  55.9118059
  95.9682391   8.3601806  55.5316703  94.7918423   7.8905656  56.3607848
 100.1105904   8.0124502  57.9815733  99.4885914   7.3495207  57.6817961
 100.7810771   8.0385634  57.2989381  93.3432976   6.5784360  56.8706993
  92.5064885   6.1506535  56.6890994  93.3156622   6.7716804  57.8077784
  99.6719411   6.5628426  51.4574194  99.8207532   7.2463890  50.8040866
 100.4785855   6.5433516  51.9723649 103.1714817   9.0576556  48.9285941
 102.5988784   9.6766743  48.4756413 103.7447611   9.6075918  49.4625863
 106.3912077   9.3413706  50.0594523 107.3242750   9.2759268  50.2627399
 106.3035289  10.1769973  49.6009056  95.4545082  10.7910648  57.6331874
  95.3199550  10.0311049  57.0669872  95.0377144  11.5151548  57.1660663
  98.6114208  11.6879965  57.8450317  98.4946592  12.6325398  57.7429007
  97.7906654  11.3853527  58.2336116  99.6368722  12.3408227  61.0606245
 100.5395969  12.3731837  61.3772740  99.4106092  11.4108678  61.0752581
 101.3922324  11.0939214  57.7216324 100.4417955  11.0941075  57.6080696
 101.6954810  10.3471948  57.2052358 117.1275018  16.9299752  58.7862086
 117.7653428  16.8106500  58.0825426 117.0095860  17.8780596  58.8450038
 113.9364724  16.8827180  58.7223611 113.5983235  16.7668245  57.8344146
 114.8054492  16.4818345  58.7024617 109.7951540  18.7362657  54.7120502
 109.2316405  18.6452594  53.9436789 109.6803935  17.9162561  55.1922994
 114.4184507  18.0362032  64.6809816 114.4073148  17.6414830  63.8090320
 114.5805146  17.3028105  65.2743588 107.3415971  20.2313848  57.5504722
 108.1337263  19.8904673  57.1351021 107.5812622  20.3408823  58.4706875
 115.3751098  22.4033624  50.0234967 114.7239078  22.9887705  49.6368980
 116.1695461  22.9339819  50.0830004 109.3006725  19.4922762  50.4222101
 110.0737601  18.9451749  50.2834977 109.6532124  20.3567011  50.6336562
 111.1391768  20.8199144  63.6289000 110.8481634  21.7244775  63.5135667
 111.7748752  20.8615671  64.3433070 112.0647975  18.1975992  60.2190360
 112.6611547  17.9732015  59.5047323 112.1222946  17.4560738  60.8215808
 111.6373003  15.6515428  48.0540551 111.8898524  15.1296949  47.2924014
 110.6997562  15.4881573  48.1567234 116.6816286  14.6551206  55.8615294
 117.4679375  14.2370629  55.5105711 116.9454990  15.5597298  56.0296942
 116.8526363  20.0924056  50.5603951 116.2172196  20.1658683  51.2724855
 116.5223770  20.6817655  49.8823030 111.3569292  17.5543534  50.2564926
 111.2405550  16.8788437  50.9246010 111.4671552  17.0675908  49.4397079
 113.7000833  17.0153681  53.9611615 113.3359040  16.4884302  54.6724536
 114.5567949  16.6252150  53.7878100 113.3406320  12.0443580  48.9572964
 113.5080722  12.9123817  49.3243435 113.1503489  12.2070862  48.0334253
 116.0981653  20.5060559  60.6238794 115.7982376  21.4085598  60.5154601
 115.7532713  20.2392743  61.4759947 109.5494135  16.9574356  56.6575498
 108.6244631  16.8250570  56.8653190 109.7978548  17.7368575  57.1545441
 113.3195541  14.5001238  49.9419630 113.1995166  14.9458289  50.7805111
 112.6248129  14.8486556  49.3833168 106.9102946  16.6007630  57.4919287
 107.0395327  16.8542109  58.4058699 106.2300397  17.1935338  57.1723942
 111.0802433  27.2704880  53.5909762 111.0026463  28.2212705  53.6698242
 110.4764076  26.9250752  54.2484688 113.5719663  14.4432745  66.2471128
 112.7952997  15.0026665  66.2373993 114.2110226  14.9289528  66.7685999
 119.0180607  14.9722711  50.7699964 119.9298463  15.2050098  50.5947662
 118.5090254  15.5559755  50.2075043 111.8266035  17.2518198  65.8089095
 112.5680719  17.7903242  65.5323919 111.1203020  17.8784487  65.9660647
 117.3021375  19.3947339  64.4061257 117.7104731  18.9529749  63.6615889
 116.5798636  18.8199966  64.6595450 113.6552445  14.3319946  61.7794814
 114.5013640  14.7559359  61.9229463 113.5951082  13.6753570  62.4733377
 117.6250189  19.9548530  58.1613546 116.9959052  20.1194244  57.4589614
 117.2375851  20.3690139  58.9324510 121.5039421  20.8902967  55.5157910
 120.8190459  21.2701869  54.9654943 121.5883270  21.4998294  56.2489857
 118.7590353  18.5362926  62.1153253 118.9707248  19.1794686  61.4387634
 118.7120101  17.7025243  61.6475183 113.1778151  19.6922938  55.4263631
 113.6416497  19.9710641  54.6368253 112.9134949  18.7906382  55.2436722
 110.0702232  19.2394419  58.3643394 110.6403589  19.6681688  57.7260879
 110.6610344  18.9577004  59.0627580 112.1147037  15.8146090  52.2353196
 112.8171080  16.2667134  52.7027122 111.7827666  15.1729909  52.8633089
 110.5627399  14.4057847  66.6104405 109.9326059  15.0874127  66.8439802
 110.4563487  14.2940928  65.6657544 105.8572371  14.0729643  57.5370330
 105.0671425  14.3287171  57.0610440 106.3483618  14.8877980  57.6422370
 119.8736181  21.4134882  60.2875610 120.6953624  21.0115069  60.0058292
 119.8698584  21.3103116  61.2391726 107.8087116  14.4374222  54.4953806
 107.0118280  14.5492916  55.0137302 107.5812709  14.7760874  53.6294697
 113.6392784  20.9618925  62.4436321 113.7037217  21.4239332  63.2794493
 112.9303708  20.3316290  62.5718631 104.1410074  14.3260133  59.9685320
 104.3918113  15.2107143  60.2342896 104.6769622  14.1464735  59.1960412
 127.9642174  17.7573630  56.6360582 127.2105882  17.1881028  56.4804586
 128.0989715  17.7236295  57.5831217 113.3540802  22.6287033  52.3115301
 113.2186477  23.4738568  52.7400149 113.8950614  22.8306310  51.5481235
 106.8070199  20.1462471  52.8843226 107.3194720  20.9405721  53.0348791
 107.4592912  19.4488761  52.8176828 108.6165084  23.2628227  54.9665980
 108.7931712  24.1846192  54.7786963 109.4121917  22.9486646  55.3960359
 107.9017440  15.3092859  64.8428143 107.7870956  14.4078116  65.1435242
 107.0461958  15.5556556  64.4912959 114.9809278  23.2510599  66.4415643
 114.5373132  22.4646978  66.1236548 115.6426492  23.4389750  65.7759534
 109.7396399  24.7806401  60.9676322 110.2903824  24.6523464  60.1953316
 108.9007875  25.0801290  60.6171215 117.0790516  23.5313399  64.4697045
 117.0608992  24.3522280  63.9777314 118.0010436  23.4067474  64.6947186
 113.5363570  21.0457529  65.3120553 114.0691907  20.2845817  65.0819861
 113.0077651  20.7531180  66.0544708 104.7719116  18.4751125  53.6602797
 105.6094338  18.8848133  53.4436505 104.9497384  17.5350567  53.6302991
 116.6683548  16.1426206  49.3486630 116.1530171  16.9130810  49.5875017
 116.3960857  15.4691342  49.9719691 121.6417822  18.8958560  51.2839803
 120.8647265  18.5569720  50.8394965 122.3209303  18.9011183  50.6094768
 116.4569851  14.0153298  51.1746411 116.1519987  14.3299447  52.0256554
 117.4100293  14.0934718  51.2173744 114.9016283  20.1743521  52.8239365
 114.3737645  19.4396281  52.5112603 114.4003786  20.9518197  52.5779333
 119.8809129  18.3692541  57.9406411 119.2232804  19.0591803  58.0286540
 120.6849528  18.7588973  58.2840398 109.6335011  10.8363187  55.1845977
 110.2078763  10.6138369  54.4519170 110.2205993  10.9051882  55.9374578
 118.6914588  16.7236914  55.9910353 119.2046470  17.3566906  56.4932063
 119.3415812  16.1238110  55.6253713 109.9604598  12.8667648  49.2041862
 109.1241910  13.2042335  49.5251137 109.8209367  12.7316628  48.2668999
 113.0468883  17.9923731  45.8274338 112.1395945  17.7612985  46.0265487
 113.5439915  17.1961351  46.0148320 115.9536962  26.7021238  48.7471024
 115.2798661  27.0052935  49.3555982 116.3402784  27.5050319  48.3976481
 115.1695419  14.1986370  58.2368694 114.2517980  14.4201317  58.0790382
 115.5855562  14.2732680  57.3780401 115.9530467  15.5977785  53.3671374
 116.7002285  16.1099183  53.0578496 116.2222056  15.2761838  54.2275767
 114.2257117  18.0936326  50.3498328 113.3168336  17.8095359  50.4470798
 114.2552201  18.5135405  49.4901635 119.4576384  21.7042916  54.1189496
 119.0038711  20.8633826  54.1754686 118.8270351  22.3404314  54.4564276
 117.9009323  23.5419412  55.0539314 118.1932298  24.1024469  54.3351680
 118.4107944  23.8347973  55.8092473 104.7945287  15.8141840  54.3313530
 104.5969687  15.2211201  53.6064597 104.2391951  15.5094050  55.0489469
 112.7742011  15.7064947  56.4508124 112.8290621  14.7538783  56.3750600
 111.9633213  15.8624386  56.9349422 113.9233205  19.6345070  47.6886407
 113.4852634  18.9180929  47.2292044 114.6643645  19.8621185  47.1271498
 110.7134371  14.3242006  54.2098502 109.9002236  14.6236177  54.6163695
 111.2093365  13.9297695  54.9272985 112.8642949  24.3199763  56.1432767
 112.8219127  24.5460610  55.2141299 113.7805647  24.0863138  56.2918568
 116.3108582  14.7883831  63.0413396 116.6657970  15.0155304  63.9007862
 116.9580714  15.1202208  62.4190652 122.0406319  17.9102267  53.7462725
 121.9024218  18.1003863  52.8183915 121.6842538  18.6721650  54.2030776
 110.2048445  11.8960362  59.8259737 110.8447825  11.7549121  59.1282701
 109.3725976  11.6094875  59.4498339 122.0675699  19.9778794  58.7573997
 122.5012206  19.8854083  59.6057051 122.7807280  19.9536294  58.1194013
 110.9808749  21.1962792  55.9394730 111.7749348  20.7013113  55.7377305
 110.2700442  20.6680656  55.5762435 115.8003594  23.5780888  60.2907097
 115.8540616  24.1471824  61.0584813 114.9318375  23.7482773  59.9261135
 107.2891513  15.3405874  52.0154482 106.3589101  15.2790330  52.2324445
 107.3848985  14.8181827  51.2191124 107.2077062  11.8660687  54.6032724
 107.4683879  12.7806020  54.4941885 108.0294234  11.3985130  54.7529337
 108.6801987  13.2798444  61.7731549 109.3525041  13.0715806  61.1244198
 107.8531774  13.0820530  61.3336781 122.9291248  20.0202494  61.2906882
 123.1227139  20.9248305  61.5366157 122.8291867  19.5609914  62.1245467
 117.9906357  20.1709237  66.8647763 117.8391864  19.9419789  65.9477847
 117.9811037  21.1279839  66.8779108 114.7591694  17.7441150  61.8494029
 115.6883754  17.8952310  61.6762997 114.3382724  17.8325171  60.9942676
 113.5580025  21.7691814  59.6192567 113.4191111  21.4010599  60.4918505
 112.7694622  22.2839454  59.4476525 114.1528177  26.8700911  50.9618103
 114.3279933  26.3988954  51.7763726 113.4660965  27.4966677  51.1899364
 115.1085240  21.1473417  57.0081405 114.7735073  21.1074187  57.9039055
 114.6089186  20.4818133  56.5351815 109.0829484  16.5541047  62.5333986
 108.9449282  15.8221286  63.1345525 109.9934408  16.4649947  62.2518174
 118.0444432  18.4929451  47.2818464 117.4273603  17.7676280  47.1851517
 117.5760921  19.2538812  46.9385539 111.7111785  16.2661006  62.0217665
 112.4211404  15.6254199  61.9804284 111.6681093  16.5173901  62.9443846
 119.6998564  23.2028360  64.9424245 119.6411110  22.5187580  64.2754828
 120.1018082  23.9447350  64.4904871 110.4240719  13.2526224  63.8413305
 109.8878076  12.8016963  64.4934901 109.8357428  13.3872133  63.0983769
 108.7189263  30.0190274  57.7357964 108.9585861  30.6508798  58.4136982
 107.8758459  29.6678314  58.0223323 109.8342978  12.7114876  46.4039769
 108.9572444  12.5903677  46.0402015 110.3100731  11.9200954  46.1518657
 119.7015971  21.1667944  63.1738224 118.8142750  20.8293866  63.2964623
 120.2714522  20.4350975  63.4106990 101.3545118  17.4992035  56.4981276
 102.0416158  17.1853766  55.9102291 101.1993247  18.4033400  56.2248527
 106.1579840  12.3882232  60.9266299 106.0738029  11.7807902  60.1916709
 105.3362547  12.8791250  60.9275796 113.2317124  25.8269396  60.1399468
 113.1587296  26.6324368  60.6518772 112.7894518  26.0261362  59.3147489
 113.0206904  25.0641166  53.6502289 112.2374426  25.6062846  53.7440514
 113.7199649  25.5815146  54.0496530 124.1833312  16.5776161  57.9354786
 124.1723188  17.4600877  57.5648719 123.3150691  16.2247712  57.7409323
 115.6915808  25.7256230  62.2957626 116.4043780  26.3603695  62.2233528
 115.2005837  25.8220096  61.4797628 117.4133335  19.6307483  53.8674918
 116.4789614  19.7508945  53.6979622 117.5910003  18.7279950  53.6034928
 112.9138523  13.0153179  56.0208179 112.5436310  12.4624219  56.7089085
 113.4097615  12.4111312  55.4683179 120.8005886  15.4724802  54.4024952
 121.2666338  16.3052794  54.3285255 121.2513387  15.0069784  55.1070211
 110.7427721  23.4750674  63.1163197 111.4437181  24.1087157  63.2692591
 110.2722836  23.8165405  62.3558836 118.8682117  21.8168623  51.4011104
 119.1441961  21.7025218  52.3104978 117.9986616  21.4186108  51.3623277
 118.5429007  16.0295281  60.9415747 117.8900458  16.2771188  60.2868200
 118.9209387  15.2159419  60.6078225 115.5036181  26.0654974  55.0443918
 115.6858576  25.2476630  55.5071670 116.3269167  26.2822666  54.6068808
 115.8378347  24.9923159  52.3058966 116.3666113  24.4815614  51.6929128
 116.1006566  24.6765690  53.1704499 114.5916580  16.7715092  67.4281785
 113.9157218  16.6709221  68.0984160 115.4144214  16.6154306  67.8917782
 106.3395440  23.0087029  60.0494300 106.9248876  22.2630717  60.1822204
 106.1420278  23.3190985  60.9330964 109.1934095  26.0438276  55.0656742
 108.5244470  26.5284404  54.5820782 109.0546964  26.2907496  55.9800121
 100.9313094  15.5792629  58.7698743 100.9697194  15.0456220  59.5635861
 100.4253387  15.0527834  58.1509720 113.3339363  28.0782020  61.6639400
 113.8857671  28.2413641  62.4288486 113.6745557  28.6686457  60.9919425
 108.3103857  10.4257169  62.2661285 108.3745183  11.2872000  61.8538683
 108.2470977   9.8131171  61.5333644 107.7856129  12.4980302  65.9134319
 108.4128168  12.1157379  66.5271844 106.9284048  12.2794504  66.2790012
 118.1850238  22.9043277  67.5188055 118.7290142  23.5173235  67.0243010
 117.6037083  23.4622855  68.0355068 104.5621672  14.3056731  51.8452674
 104.8575113  13.3967409  51.7919728 103.6609708  14.2844470  51.5233677
 116.4707751  26.0263995  58.6503083 116.3458890  25.2253735  58.1414028
 117.1286842  26.5210188  58.1617053 108.0915919  12.3812728  57.8280223
 107.3702505  12.9948695  57.6887696 108.8809175  12.9170492  57.7496869
 118.5342659  23.8273015  60.2782633 117.5872995  23.7078366  60.2060959
 118.8825432  22.9395513  60.3608894 106.2909513  11.9870829  51.9691999
 105.9622220  11.1068208  51.7867105 106.6448884  11.9318497  52.8568389
 115.5389092  23.6225731  56.4786985 115.3914055  22.6942439  56.6594555
 116.3642586  23.6445822  55.9944060 109.4051337  12.2743798  52.3367477
 109.7447409  12.8029720  51.6146085 109.8523457  12.6124205  53.1126044
 119.1423214  24.4454290  57.5651858 120.0669762  24.2397151  57.4276309
 118.9738518  24.1970691  58.4741199 111.3919484  10.7718420  50.5360770
 112.1127846  11.1499673  50.0324487 110.7684788  11.4907297  50.6395748
 110.2749828  14.4349282  58.0489847 110.1294409  14.7489585  58.9414128
 109.7975032  15.0534183  57.4960745 113.9872342  11.8589170  60.1423864
 113.7290119  12.7806241  60.1408194 113.4557382  11.4619605  60.8324328
 118.9318530  24.9639958  52.9213949 119.1055408  24.3986380  52.1687802
 119.4247422  25.7640852  52.7393439 104.7495490  16.9754627  60.9877508
 104.2048958  17.7514435  61.1197782 105.6274840  17.3225431  60.8296629
 124.7857922  17.7276380  54.5404249 125.2289068  16.9783706  54.1423372
 123.9084432  17.7186517  54.1577981 119.9193703  24.2806722  50.0210847
 120.6144607  24.9013415  50.2398162 120.2616853  23.4302073  50.2963225
 105.5361512  16.1024523  63.8807665 104.7943248  16.2507158  64.4672295
 105.2154256  16.3632789  63.0174414 121.8185126  21.7306427  51.5498178
 122.3436450  22.0693700  50.8247498 121.7307479  20.7953443  51.3661313
 113.4805175  25.6440501  63.6788055 113.7892301  25.3989648  64.5510754
 114.2780657  25.8487140  63.1906925 113.5025787  27.7978411  55.9093431
 113.0630777  27.3054789  56.6026288 114.2533904  27.2551378  55.6685507
 105.9818126  23.9889952  55.9118059 106.8076146  23.6893723  55.5316703
 105.6312178  23.2197574  56.3607848 110.9499659  23.3416420  57.9815733
 110.3279668  22.6787125  57.6817961 111.6204526  23.3677552  57.2989381
 104.1826731  21.9076278  56.8706993 103.3458639  21.4798452  56.6890994
 104.1550376  22.1008721  57.8077784 111.0224186  11.8198208  67.5748239
 111.0712342  12.6960331  67.1926009 111.5646701  11.2775601  67.0019882
 121.5079032  22.3639331  66.8549376 120.7174576  22.3463470  66.3153876
 121.2712387  22.9027625  67.6098413 121.6276907  19.2131797  64.1682105
 121.6774912  19.0481805  65.1097628 121.5190830  18.3459057  63.7779985
 110.5113166  21.8920343  51.4574194 110.6601286  22.5755808  50.8040866
 111.3179609  21.8725433  51.9723649 118.9180669  15.1962726  65.4841411
 119.8190532  15.0569190  65.1925409 118.9928644  15.3617180  66.4239589
 113.2523475  12.5729580  64.3294598 112.3826784  12.8663146  64.0577186
 113.4882955  13.1570025  65.0501861 123.1295104  21.6328739  64.4124126
 122.8379912  21.9958720  65.2487587 122.5167235  20.9195747  64.2337458
 124.3290786  19.1981619  56.9326696 125.1637678  19.6371423  57.0964257
 124.4649915  18.7220272  56.1134942 121.3782292  16.7561354  62.8804184
 121.8536414  16.9489000  62.0723036 120.4547858  16.8120539  62.6347568
 108.2665799  17.9185521  52.4635263 108.0211841  17.0147851  52.6615473
 108.4361713  17.9202671  51.5214741 107.5361446  13.6513878  49.9621424
 106.8430691  13.7258233  49.3061460 107.2913198  12.8874222  50.4842941
 114.0108571  24.3868474  48.9285941 113.4382538  25.0058661  48.4756413
 114.5841365  24.9367835  49.4625863 117.2305831  24.6705624  50.0594523
 118.1636504  24.6051185  50.2627399 117.1429044  25.5061891  49.6009056
 119.8593848  23.9871494  47.0198471 119.7807479  23.6531358  47.9134229
 120.6803515  24.4793262  47.0189943 122.5572039  16.8533233  60.2274789
 122.5248359  15.9149234  60.4134473 123.1672663  16.9317270  59.4940614
 114.3955370  15.7229286  46.2701994 115.3414475  15.5935494  46.3390412
 114.0169615  14.9843948  46.7471422 128.3748589  17.9149240  59.3680826
 129.1051977  17.6534528  59.9288530 127.7655534  17.1777962  59.4082894
 126.4563886  16.0557103  59.9655277 125.7297050  15.9213068  59.3571769
 126.0411173  16.3633931  60.7711996 114.2794062  19.7747033  67.7302651
 115.1997072  19.9525632  67.9242697 114.2443645  18.8303078  67.5782350
 112.5798287  13.6479263  46.2056879 111.6729742  13.3512375  46.2819592
 112.8574268  13.3509081  45.3391165 103.4976227  14.9685626  56.6555925
 103.1779012  14.1150934  56.3630299 102.9509656  15.1834204  57.4113892
 107.2756135  17.6848067  60.3725432 107.4942145  18.6165175  60.3913465
 107.6881909  17.3256042  61.1580236 112.1484000  13.2581273  69.7628181
 112.0480727  14.2075630  69.6940272 111.9305542  12.9299512  68.8904251
 103.3664487  18.5888538  58.6249047 102.6727959  18.1742490  58.1119001
 104.1137478  18.6309074  58.0282466 112.0115270  16.6878412  68.5793242
 111.5282352  17.4878772  68.7857131 112.0976209  16.6986357  67.6260686
 105.2801230  18.5206791  56.5015062 105.2571918  18.6194479  55.5496945
 105.5901866  19.3671942  56.8232228 107.9388608  20.5782946  60.6161676
 108.8931861  20.5466889  60.5491608 107.7401131  20.1173570  61.4311902
 108.5287990  19.1484063  63.1832474 109.3480879  19.6428141  63.2067311
 108.8024798  18.2316031  63.1550041 106.2938837  26.1202566  57.6331874
 106.1593304  25.3602967  57.0669872 105.8770899  26.8443466  57.1660663
 117.4297800  21.3039490  46.6408449 118.1333650  21.5089492  47.2566105
 116.7060448  21.8716251  46.9057533 118.2595610  17.0549351  52.7610719
 118.2030811  17.5117902  51.9218352 118.8123952  16.2940035  52.5833562
 109.4507962  27.0171883  57.8450317 109.3340347  27.9617315  57.7429007
 108.6300409  26.7145445  58.2336116 119.3384497  21.7422019  48.6906909
 120.1730101  21.3103217  48.5084384 119.1768840  21.5704032  49.6183804
 118.9930389  18.2454132  50.0563249 118.9379193  18.0798403  49.1151693
 118.3676444  18.9530165  50.2125438 103.7822904  13.4822196  63.8824671
 104.4281768  12.9721150  64.3711896 103.5740055  14.2190878  64.4568096
 116.3076296  20.5503044  69.3816811 117.1767456  20.7243696  69.0203446
 115.8283048  21.3697461  69.2592541 110.4762477  27.6700145  61.0606245
 111.3789723  27.7023755  61.3772740 110.2499847  26.7400596  61.0752581
 112.2316079  26.4231131  57.7216324 111.2811710  26.4232993  57.6080696
 112.5348565  25.6763866  57.2052358 108.1220395  10.6289813  67.9799685
 108.9851857  10.2726618  68.1903010 107.5485806  10.2903708  68.6675089
 127.9668772  32.2591670  58.7862086 128.6047182  32.1398417  58.0825426
 127.8489615  33.2072514  58.8450038 124.7758478  32.2119098  58.7223611
 124.4376990  32.0960163  57.8344146 125.6448247  31.8110263  58.7024617
 120.6345294  34.0654574  54.7120502 120.0710159  33.9744511  53.9436789
 120.5197689  33.2454479  55.1922994 125.2578261  33.3653950  64.6809816
 125.2466902  32.9706748  63.8090320 125.4198901  32.6320022  65.2743588
 118.1809726  35.5605766  57.5504722 118.9731018  35.2196591  57.1351021
 118.4206376  35.6700741  58.4706875 126.2144853  37.7325542  50.0234967
 125.5632833  38.3179622  49.6368980 127.0089216  38.2631737  50.0830004
 120.1400480  34.8214679  50.4222101 120.9131356  34.2743666  50.2834977
 120.4925879  35.6858929  50.6336562 121.9785522  36.1491061  63.6289000
 121.6875388  37.0536692  63.5135667 122.6142507  36.1907589  64.3433070
 122.9041729  33.5267910  60.2190360 123.5005302  33.3023932  59.5047323
 122.9616701  32.7852655  60.8215808 122.4766758  30.9807345  48.0540551
 122.7292278  30.4588867  47.2924014 121.5391317  30.8173491  48.1567234
 127.5210041  29.9843124  55.8615294 128.3073130  29.5662547  55.5105711
 127.7848745  30.8889216  56.0296942 127.6920118  35.4215974  50.5603951
 127.0565951  35.4950600  51.2724855 127.3617524  36.0109573  49.8823030
 132.9218468  29.9218357  56.7648273 133.6543640  29.3517574  56.9986102
 132.1657823  29.5339957  57.2054778 122.1963046  32.8835451  50.2564926
 122.0799305  32.2080355  50.9246010 122.3065306  32.3967825  49.4397079
 124.5394587  32.3445598  53.9611615 124.1752795  31.8176219  54.6724536
 125.3961703  31.9544067  53.7878100 130.4443888  23.6339931  61.2242881
 130.1127213  24.5035342  61.0004096 129.8489501  23.3176215  61.9036912
 124.1800074  27.3735498  48.9572964 124.3474477  28.2415734  49.3243435
 123.9897243  27.5362780  48.0334253 126.9375408  35.8352477  60.6238794
 126.6376131  36.7377516  60.5154601 126.5926467  35.5684660  61.4759947
 120.3887889  32.2866274  56.6575498 119.4638386  32.1542488  56.8653190
 120.6372302  33.0660493  57.1545441 130.3372551  28.3535017  58.3036231
 129.4289429  28.2850426  58.0094992 130.2860147  28.8306962  59.1318057
 124.1589295  29.8293156  49.9419630 124.0388920  30.2750206  50.7805111
 123.4641884  30.1778473  49.3833168 117.7496700  31.9299547  57.4919287
 117.8789081  32.1834026  58.4058699 117.0694151  32.5227255  57.1723942
 121.9196187  42.5996797  53.5909762 121.8420217  43.5504622  53.6698242
 121.3157831  42.2542670  54.2484688 124.4113417  29.7724663  66.2471128
 123.6346751  30.3318583  66.2373993 125.0503980  30.2581446  66.7685999
 132.2034198  26.5551456  60.0814105 131.5608578  26.8483989  59.4353900
 131.6989126  26.4404376  60.8867302 129.8574361  30.3014629  50.7699964
 130.7692218  30.5342015  50.5947662 129.3484008  30.8851673  50.2075043
 122.6659789  32.5810116  65.8089095 123.4074474  33.1195160  65.5323919
 121.9596775  33.2076405  65.9660647 128.1415129  34.7239257  64.4061257
 128.5498485  34.2821667  63.6615889 127.4192391  34.1491884  64.6595450
 124.4946199  29.6611863  61.7794814 125.3407394  30.0851277  61.9229463
 124.4344837  29.0045488  62.4733377 128.4643944  35.2840447  58.1613546
 127.8352806  35.4486161  57.4589614 128.0769606  35.6982057  58.9324510
 132.3433176  36.2194885  55.5157910 131.6584214  36.5993786  54.9654943
 132.4277025  36.8290212  56.2489857 127.6445644  27.3216232  63.4375988
 127.4006576  28.0758292  62.9010263 127.9205575  27.7001579  64.2723235
 129.5984107  33.8654844  62.1153253 129.8101002  34.5086604  61.4387634
 129.5513855  33.0317161  61.6475183 127.2010336  26.4772665  59.0189825
 126.3394815  26.7753918  59.3106563 127.2272771  26.6943064  58.0870858
 124.0171906  35.0214855  55.4263631 124.4810251  35.3002558  54.6368253
 123.7528704  34.1198300  55.2436722 120.9095987  34.5686337  58.3643394
 121.4797344  34.9973605  57.7260879 121.5004098  34.2868922  59.0627580
 122.9540792  31.1438008  52.2353196 123.6564835  31.5959051  52.7027122
 122.6221420  30.5021827  52.8633089 121.4021153  29.7349764  66.6104405
 120.7719814  30.4166045  66.8439802 121.2957241  29.6232846  65.6657544
 116.6966126  29.4021560  57.5370330 115.9065180  29.6579089  57.0610440
 117.1877373  30.2169898  57.6422370 130.7129935  36.7426799  60.2875610
 131.5347379  36.3406987  60.0058292 130.7092338  36.6395034  61.2391726
 118.6480871  29.7666140  54.4953806 117.8512034  29.8784834  55.0137302
 118.4206463  30.1052792  53.6294697 124.4786539  36.2910843  62.4436321
 124.5430971  36.7531250  63.2794493 123.7697462  35.6608208  62.5718631
 114.9803829  29.6552051  59.9685320 115.2311867  30.5399061  60.2342896
 115.5163377  29.4756652  59.1960412 138.8035928  33.0865548  56.6360582
 138.0499637  32.5172946  56.4804586 138.9383469  33.0528212  57.5831217
 124.1934556  37.9578950  52.3115301 124.0580231  38.8030486  52.7400149
 124.7344369  38.1598228  51.5481235 120.6801896  24.0370530  68.9729657
 120.2868841  23.4836729  69.6477301 121.4968036  24.3481109  69.3636174
 117.6463954  35.4754388  52.8843226 118.1588474  36.2697639  53.0348791
 118.2986666  34.7780679  52.8176828 119.4558838  38.5920145  54.9665980
 119.6325467  39.5138109  54.7786963 120.2515672  38.2778564  55.3960359
 123.5969857  25.4528409  66.5649913 124.3379570  26.0535562  66.4854376
 123.8287780  24.7106047  66.0067956 118.7411195  30.6384776  64.8428143
 118.6264710  29.7370034  65.1435242 117.8855713  30.8848473  64.4912959
 125.8203033  38.5802517  66.4415643 125.3766887  37.7938895  66.1236548
 126.4820246  38.7681667  65.7759534 120.5790154  40.1098318  60.9676322
 121.1297579  39.9815382  60.1953316 119.7401630  40.4093207  60.6171215
 127.9184271  38.8605317  64.4697045 127.9002746  39.6814198  63.9777314
 128.8404191  38.7359392  64.6947186 124.3757325  36.3749446  65.3120553
 124.9085662  35.6137734  65.0819861 123.8471406  36.0823098  66.0544708
 127.5427020  21.4809512  60.8414195 127.1991289  22.3711154  60.7653305
 127.9105982  21.2911170  59.9783780 115.6112870  33.8043043  53.6602797
 116.4488092  34.2140051  53.4436505 115.7891138  32.8642485  53.6302991
 127.5077303  31.4718123  49.3486630 126.9923926  32.2422728  49.5875017
 127.2354611  30.7983259  49.9719691 125.0924414  26.3167824  54.4071868
 124.2366010  25.9274674  54.2277507 125.5051365  26.3959785  53.5471654
 126.6223560  23.8514167  58.8063428 126.1188356  23.8144302  57.9931233
 126.9154167  24.7606910  58.8660085 122.8666446  23.9352897  57.8129610
 123.7319443  23.7395706  57.4535499 122.9343955  23.7063249  58.7398967
 132.4811577  34.2250478  51.2839803 131.7041019  33.8861637  50.8394965
 133.1603058  34.2303101  50.6094768 127.2963606  29.3445215  51.1746411
 126.9913741  29.6591365  52.0256554 128.2494048  29.4226635  51.2173744
 125.7410038  35.5035439  52.8239365 125.2131399  34.7688198  52.5112603
 125.2397540  36.2810115  52.5779333 130.7202884  33.6984459  57.9406411
 130.0626558  34.3883721  58.0286540 131.5243283  34.0880891  58.2840398
 120.4728765  26.1655105  55.1845977 121.0472517  25.9430286  54.4519170
 121.0599748  26.2343799  55.9374578 129.5308342  32.0528832  55.9910353
 130.0440224  32.6858824  56.4932063 130.1809566  31.4530027  55.6253713
 120.7998352  28.1959566  49.2041862 119.9635665  28.5334253  49.5251137
 120.6603122  28.0608546  48.2668999 122.7751433  23.0396354  53.9121046
 122.1215845  22.7245371  53.2877661 122.7331907  22.4172094  54.6380869
 123.8862638  33.3215649  45.8274338 122.9789699  33.0904902  46.0265487
 124.3833670  32.5253268  46.0148320 126.7930717  42.0313156  48.7471024
 126.1192415  42.3344853  49.3555982 127.1796539  42.8342236  48.3976481
 126.0089173  29.5278287  58.2368694 125.0911735  29.7493234  58.0790382
 126.4249317  29.6024598  57.3780401 126.7924221  30.9269703  53.3671374
 127.5396040  31.4391100  53.0578496 127.0615811  30.6053756  54.2275767
 125.0650871  33.4228244  50.3498328 124.1562090  33.1387277  50.4470798
 125.0945955  33.8427322  49.4901635 130.2970139  37.0334833  54.1189496
 129.8432466  36.1925743  54.1754686 129.6664105  37.6696232  54.4564276
 129.2403058  27.9626819  55.3490163 128.5025815  27.4504206  55.6800406
 129.4929832  27.5227201  54.5373440 128.7403078  38.8711330  55.0539314
 129.0326052  39.4316387  54.3351680 129.2501698  39.1639891  55.8092473
 129.3414685  20.7403071  55.9431932 129.6473562  19.8800435  55.6557848
 130.0667290  21.3320692  55.7430926 115.6339042  31.1433758  54.3313530
 115.4363441  30.5503119  53.6064597 115.0785706  30.8385968  55.0489469
 123.6135765  31.0356864  56.4508124 123.6684375  30.0830701  56.3750600
 122.8026967  31.1916304  56.9349422 124.7626959  34.9636987  47.6886407
 124.3246389  34.2472846  47.2292044 125.5037400  35.1913102  47.1271498
 121.5528125  29.6533924  54.2098502 120.7395991  29.9528095  54.6163695
 122.0487119  29.2589613  54.9272985 123.7036703  39.6491681  56.1432767
 123.6612882  39.8752527  55.2141299 124.6199402  39.4155056  56.2918568
 127.1502337  30.1175749  63.0413396 127.5051725  30.3447222  63.9007862
 127.7974468  30.4494125  62.4190652 132.8800074  33.2394185  53.7462725
 132.7417972  33.4295780  52.8183915 132.5236293  34.0013567  54.2030776
 121.0442200  27.2252280  59.8259737 121.6841579  27.0841039  59.1282701
 120.2119730  26.9386793  59.4498339 132.9069453  35.3070712  58.7573997
 133.3405960  35.2146001  59.6057051 133.6201034  35.2828212  58.1194013
 121.8202504  36.5254710  55.9394730 122.6143102  36.0305030  55.7377305
 121.1094196  35.9972573  55.5762435 126.6397348  38.9072806  60.2907097
 126.6934371  39.4763742  61.0584813 125.7712130  39.0774691  59.9261135
 118.1285267  30.6697792  52.0154482 117.1982855  30.6082247  52.2324445
 118.2242739  30.1473745  51.2191124 118.0470816  27.1952605  54.6032724
 118.3077634  28.1097938  54.4941885 118.8687989  26.7277047  54.7529337
 119.5195742  28.6090362  61.7731549 120.1918795  28.4007724  61.1244198
 118.6925528  28.4112448  61.3336781 133.7685003  35.3494412  61.2906882
 133.9620893  36.2540223  61.5366157 133.6685621  34.8901831  62.1245467
 125.4221314  25.2352303  63.7897210 124.7749229  25.9342252  63.6961686
 126.1922329  25.6688447  64.1573458 128.8300112  35.5001155  66.8647763
 128.6785618  35.2711707  65.9477847 128.8204791  36.4571756  66.8779108
 125.5985448  33.0733068  61.8494029 126.5277508  33.2244227  61.6762997
 125.1776478  33.1617088  60.9942676 124.3973780  37.0983732  59.6192567
 124.2584866  36.7302516  60.4918505 123.6088376  37.6131372  59.4476525
 124.9921932  42.1992829  50.9618103 125.1673687  41.7280872  51.7763726
 124.3054720  42.8258595  51.1899364 125.9478995  36.4765335  57.0081405
 125.6128828  36.4366105  57.9039055 125.4482941  35.8110051  56.5351815
 119.9223239  31.8832965  62.5333986 119.7843037  31.1513204  63.1345525
 120.8328162  31.7941865  62.2518174 128.8838187  33.8221369  47.2818464
 128.2667357  33.0968197  47.1851517 128.4154675  34.5830729  46.9385539
 122.5505540  31.5952924  62.0217665 123.2605158  30.9546116  61.9804284
 122.5074848  31.8465819  62.9443846 130.5392318  38.5320277  64.9424245
 130.4804864  37.8479498  64.2754828 130.9411837  39.2739267  64.4904871
 121.2634474  28.5818142  63.8413305 120.7271831  28.1308880  64.4934901
 120.6751182  28.7164051  63.0983769 119.5583017  45.3482191  57.7357964
 119.7979615  45.9800715  58.4136982 118.7152214  44.9970231  58.0223323
 120.6736733  28.0406793  46.4039769 119.7966199  27.9195594  46.0402015
 121.1494486  27.2492872  46.1518657 130.5409726  36.4959861  63.1738224
 129.6536504  36.1585783  63.2964623 131.1108277  35.7642893  63.4106990
 112.1938873  32.8283953  56.4981276 112.8809912  32.5145683  55.9102291
 112.0387001  33.7325318  56.2248527 116.9973595  27.7174150  60.9266299
 116.9131784  27.1099819  60.1916709 116.1756301  28.2083168  60.9275796
 124.0710879  41.1561314  60.1399468 123.9981050  41.9616285  60.6518772
 123.6288272  41.3553280  59.3147489 123.8600659  40.3933084  53.6502289
 123.0768180  40.9354764  53.7440514 124.5593404  40.9107063  54.0496530
 127.1697309  26.2027713  56.2936495 127.6666008  25.4497676  55.9737565
 126.3984290  26.2392030  55.7279704 135.0227066  31.9068079  57.9354786
 135.0116942  32.7892794  57.5648719 134.1544446  31.5539630  57.7409323
 126.5309562  41.0548148  62.2957626 127.2437535  41.6895613  62.2233528
 126.0399591  41.1512014  61.4797628 128.2527089  34.9599400  53.8674918
 127.3183368  35.0800863  53.6979622 128.4303758  34.0571867  53.6034928
 123.7532277  28.3445096  56.0208179 123.3830065  27.7916137  56.7089085
 124.2491370  27.7403230  55.4683179 131.6399641  30.8016720  54.4024952
 132.1060093  31.6344711  54.3285255 132.0907141  30.3361701  55.1070211
 121.5821476  38.8042591  63.1163197 122.2830935  39.4379074  63.2692591
 121.1116591  39.1457323  62.3558836 129.7075872  37.1460541  51.4011104
 129.9835716  37.0317136  52.3104978 128.8380371  36.7478026  51.3623277
 129.6116303  23.1697307  58.4415853 128.6979383  23.4001534  58.6098060
 130.0409405  23.2535751  59.2929886 129.3822762  31.3587199  60.9415747
 128.7294212  31.6063106  60.2868200 129.7603142  30.5451337  60.6078225
 126.3429936  41.3946892  55.0443918 126.5252330  40.5768548  55.5071670
 127.1662922  41.6114584  54.6068808 126.6772101  40.3215077  52.3058966
 127.2059868  39.8107532  51.6929128 126.9400321  40.0057607  53.1704499
 125.4310335  32.1007010  67.4281785 124.7550972  32.0001139  68.0984160
 126.2537969  31.9446224  67.8917782 117.1789194  38.3378946  60.0494300
 117.7642631  37.5922634  60.1822204 116.9814033  38.6482903  60.9330964
 120.0327849  41.3730194  55.0656742 119.3638225  41.8576321  54.5820782
 119.8940719  41.6199414  55.9800121 111.7706849  30.9084547  58.7698743
 111.8090948  30.3748137  59.5635861 111.2647142  30.3819752  58.1509720
 124.1733118  43.4073937  61.6639400 124.7251426  43.5705559  62.4288486
 124.5139311  43.9978375  60.9919425 119.1497611  25.7549087  62.2661285
 119.2138938  26.6163918  61.8538683 119.0864731  25.1423089  61.5333644
 118.6249884  27.8272220  65.9134319 119.2521922  27.4449297  66.5271844
 117.7677802  27.6086421  66.2790012 129.0243992  38.2335195  67.5188055
 129.5683896  38.8465153  67.0243010 128.4430837  38.7914773  68.0355068
 115.4015426  29.6348649  51.8452674 115.6968867  28.7259327  51.7919728
 114.5003462  29.6136388  51.5233677 127.3101505  41.3555913  58.6503083
 127.1852645  40.5545653  58.1414028 127.9680596  41.8502106  58.1617053
 118.9309673  27.7104645  57.8280223 118.2096259  28.3240613  57.6887696
 119.7202929  28.2462410  57.7496869 129.3736414  39.1564933  60.2782633
 128.4266749  39.0370284  60.2060959 129.7219187  38.2687431  60.3608894
 121.7335987  25.0459072  64.1020875 122.2570389  25.2921368  64.8647184
 121.5148320  25.8779107  63.6824012 117.1303268  27.3162746  51.9691999
 116.8015974  26.4360125  51.7867105 117.4842639  27.2610415  52.8568389
 126.3782847  38.9517649  56.4786985 126.2307809  38.0234356  56.6594555
 127.2036340  38.9737740  55.9944060 120.2445091  27.6035716  52.3367477
 120.5841164  28.1321637  51.6146085 120.6917212  27.9416122  53.1126044
 129.9816969  39.7746208  57.5651858 130.9063516  39.5689069  57.4276309
 129.8132272  39.5262609  58.4741199 122.9388532  25.9872767  61.7870545
 122.5985352  25.1880580  62.1891225 122.2327538  26.2874478  61.2147378
 123.5905004  23.0722079  60.2397868 124.4131073  22.5982557  60.1176759
 123.8343067  23.8512563  60.7396554 122.2313238  26.1010338  50.5360770
 122.9521601  26.4791591  50.0324487 121.6078542  26.8199215  50.6395748
 126.3744361  26.8055487  51.4719102 126.5907976  27.6880125  51.1707930
 125.8938428  26.4141700  50.7424744 121.1143583  29.7641200  58.0489847
 120.9688163  30.0781503  58.9414128 120.6368786  30.3826100  57.4960745
 122.9739965  26.7543748  58.0970736 122.9601534  25.8584841  57.7603034
 123.6912394  26.7614412  58.7309022 124.8266096  27.1881088  60.1423864
 124.5683874  28.1098159  60.1408194 124.2951136  26.7911523  60.8324328
 129.7712285  40.2931875  52.9213949 129.9449162  39.7278298  52.1687802
 130.2641176  41.0932770  52.7393439 115.5889245  32.3046544  60.9877508
 115.0442713  33.0806352  61.1197782 116.4668595  32.6517349  60.8296629
 122.3776861  25.6358128  53.3658306 122.4992773  24.7074774  53.5649194
 122.0878904  25.6496814  52.4536622 125.2468052  23.3213039  56.5025026
 125.2689749  23.3852372  55.5477006 125.6636111  22.4817547  56.6965532
 135.6251676  33.0568298  54.5404249 136.0682822  32.3075623  54.1423372
 134.7478186  33.0478435  54.1577981 130.7587457  39.6098640  50.0210847
 131.4538362  40.2305332  50.2398162 131.1010607  38.7593991  50.2963225
 116.3755267  31.4316441  63.8807665 115.6337003  31.5799076  64.4672295
 116.0548011  31.6924706  63.0174414 132.6578880  37.0598345  51.5498178
 133.1830205  37.3985618  50.8247498 132.5701233  36.1245360  51.3661313
 124.3198929  40.9732419  63.6788055 124.6286056  40.7281566  64.5510754
 125.1174411  41.1779057  63.1906925 124.3419541  43.1270328  55.9093431
 123.9024532  42.6346707  56.6026288 125.0927658  42.5843296  55.6685507
 116.8211880  39.3181869  55.9118059 117.6469900  39.0185641  55.5316703
 116.4705932  38.5489492  56.3607848 121.7893413  38.6708338  57.9815733
 121.1673423  38.0079043  57.6817961 122.4598280  38.6969469  57.2989381
 115.0220485  37.2368196  56.8706993 114.1852394  36.8090370  56.6890994
 114.9944131  37.4300639  57.8077784 121.8617941  27.1490126  67.5748239
 121.9106096  28.0252248  67.1926009 122.4040455  26.6067519  67.0019882
 132.3472787  37.6931249  66.8549376 131.5568330  37.6755388  66.3153876
 132.1106141  38.2319542  67.6098413 132.4670662  34.5423715  64.1682105
 132.5168667  34.3773723  65.1097628 132.3584585  33.6750974  63.7779985
 121.3506920  37.2212261  51.4574194 121.4995041  37.9047725  50.8040866
 122.1573364  37.2017351  51.9723649 129.7574424  30.5254643  65.4841411
 130.6584287  30.3861108  65.1925409 129.8322398  30.6909098  66.4239589
 124.0917229  27.9021498  64.3294598 123.2220539  28.1955064  64.0577186
 124.3276710  28.4861943  65.0501861 133.9688858  36.9620657  64.4124126
 133.6773667  37.3250637  65.2487587 133.3560990  36.2487665  64.2337458
 135.1684541  34.5273536  56.9326696 136.0031432  34.9663341  57.0964257
 135.3043670  34.0512190  56.1134942 132.2176047  32.0853271  62.8804184
 132.6930168  32.2780918  62.0723036 131.2941612  32.1412457  62.6347568
 119.1059553  33.2477438  52.4635263 118.8605595  32.3439768  52.6615473
 119.2755468  33.2494589  51.5214741 126.7956263  24.1201115  61.8460018
 127.3138207  24.8562142  61.5206507 126.4411396  24.4265108  62.6806777
 118.3755201  28.9805796  49.9621424 117.6824446  29.0550151  49.3061460
 118.1306953  28.2166140  50.4842941 127.0468857  20.5401397  57.3660915
 127.3270611  19.8724586  57.9921341 127.8319464  20.7330493  56.8535579
 124.8502326  39.7160391  48.9285941 124.2776293  40.3350578  48.4756413
 125.4235119  40.2659753  49.4625863 130.9177716  28.9619031  61.1132490
 131.8695139  29.0617129  61.1344714 130.7481166  28.1697300  61.6230574
 128.9392095  26.0474615  61.2991891 128.3442027  26.3279627  60.6038379
 128.6541792  26.5368516  62.0708632 128.0699586  39.9997541  50.0594523
 129.0030259  39.9343103  50.2627399 127.9822798  40.8353808  49.6009056
 130.6987602  39.3163412  47.0198471 130.6201234  38.9823275  47.9134229
 131.5197269  39.8085180  47.0189943 133.3965793  32.1825151  60.2274789
 133.3642114  31.2441152  60.4134473 134.0066417  32.2609188  59.4940614
 125.2349124  31.0521204  46.2701994 126.1808229  30.9227412  46.3390412
 124.8563369  30.3135866  46.7471422 133.5460282  28.9736195  60.2733073
 133.0299331  28.1894651  60.0863002 134.4300230  28.6454911  60.4379592
 131.2071009  22.7177210  56.2328885 131.0095830  22.4092298  57.1172217
 131.8170714  23.4438849  56.3626815 139.2142343  33.2441158  59.3680826
 139.9445732  32.9826446  59.9288530 138.6049289  32.5069880  59.4082894
 137.2957640  31.3849021  59.9655277 136.5690804  31.2504985  59.3571769
 136.8804927  31.6925849  60.7711996 125.1187817  35.1038950  67.7302651
 126.0390826  35.2817549  67.9242697 125.0837400  34.1594996  67.5782350
 123.4192041  28.9771180  46.2056879 122.5123497  28.6804293  46.2819592
 123.6968022  28.6800999  45.3391165 114.3369982  30.2977544  56.6555925
 114.0172766  29.4442852  56.3630299 113.7903410  30.5126122  57.4113892
 118.1149889  33.0139985  60.3725432 118.3335899  33.9457093  60.3913465
 118.5275663  32.6547959  61.1580236 125.0354107  23.5208070  52.3601120
 124.2254836  23.1755155  52.7356366 125.7238524  23.2115614  52.9488732
 126.9644655  22.5986117  53.9825417 127.5175694  23.0181570  54.6415440
 127.2014742  21.6721865  54.0248373 122.9877755  28.5873191  69.7628181
 122.8874482  29.5367548  69.6940272 122.7699297  28.2591430  68.8904251
 122.1890826  25.8358116  46.3468858 123.0509990  26.1613014  46.6064675
 122.3741170  25.0489612  45.8341924 114.2058242  33.9180455  58.6249047
 113.5121713  33.5034408  58.1119001 114.9531233  33.9600992  58.0282466
 130.3423463  24.7086642  53.4904081 129.7622132  25.3671446  53.1082133
 130.0759395  23.8863987  53.0791498 128.7927029  24.1091700  55.6925401
 129.2926807  24.2208234  54.8839720 129.4362637  23.8052753  56.3326210
 122.8509025  32.0170329  68.5793242 122.3676106  32.8170690  68.7857131
 122.9369964  32.0278274  67.6260686 116.1194984  33.8498709  56.5015062
 116.0965672  33.9486396  55.5496945 116.4295621  34.6963860  56.8232228
 118.7782362  35.9074864  60.6161676 119.7325616  35.8758806  60.5491608
 118.5794886  35.4465488  61.4311902 119.3681744  34.4775980  63.1832474
 120.1874633  34.9720059  63.2067311 119.6418552  33.5607948  63.1550041
 129.1248341  26.8686733  52.5460429 128.2374196  27.1536383  52.3280624
 129.5402330  26.7080496  51.6987706 132.4762877  26.8933253  56.2614768
 133.2523267  27.3829706  56.5339385 131.7511011  27.3191308  56.7186638
 134.9135435  27.6060873  57.3188709 135.5079926  27.3656609  56.6082017
 134.9862019  26.8868003  57.9462245 117.1332591  41.4494484  57.6331874
 116.9987059  40.6894885  57.0669872 116.7164653  42.1735384  57.1660663
 128.2691554  36.6331407  46.6408449 128.9727404  36.8381410  47.2566105
 127.5454203  37.2008169  46.9057533 129.0989364  32.3841268  52.7610719
 129.0424566  32.8409820  51.9218352 129.6517707  31.6231953  52.5833562
 132.9094170  28.1731000  53.5860839 132.6531104  27.7727636  54.4169047
 132.2847038  28.8874794  53.4610978 137.2206508  30.9127074  56.0932130
 136.6606066  30.9820263  56.8663692 136.6150011  30.7368058  55.3731627
 120.2901717  42.3463801  57.8450317 120.1734101  43.2909233  57.7429007
 119.4694163  42.0437362  58.2336116 130.1778251  37.0713936  48.6906909
 131.0123855  36.6395135  48.5084384 130.0162594  36.8995950  49.6183804
 129.8324144  33.5746050  50.0563249 129.7772947  33.4090321  49.1151693
 129.2070199  34.2822083  50.2125438 114.6216659  28.8114114  63.8824671
 115.2675522  28.3013068  64.3711896 114.4133810  29.5482796  64.4568096
 127.1470051  35.8794962  69.3816811 128.0161210  36.0535614  69.0203446
 126.6676802  36.6989378  69.2592541 123.1420269  23.0754159  49.6348567
 123.1298939  24.0195999  49.7916838 124.0343691  22.8924304  49.3408028
 121.3156231  42.9992063  61.0606245 122.2183478  43.0315673  61.3772740
 121.0893601  42.0692514  61.0752581 123.0709833  41.7523049  57.7216324
 122.1205464  41.7524911  57.6080696 123.3742319  41.0055784  57.2052358
 126.9572389  19.6696935  53.8894504 126.1904784  19.1155422  54.0351186
 127.3683094  19.7418804  54.7508655 118.9614150  25.9581731  67.9799685
 119.8245611  25.6018536  68.1903010 118.3879560  25.6195626  68.6675089
 138.8062527  47.5883588  58.7862086 139.4440936  47.4690335  58.0825426
 138.6883369  48.5364431  58.8450038 135.6152233  47.5411016  58.7223611
 135.2770744  47.4252080  57.8344146 136.4842001  47.1402181  58.7024617
 131.4739049  49.3946492  54.7120502 130.9103914  49.3036429  53.9436789
 131.3591444  48.5746396  55.1922994 136.0972016  48.6945867  64.6809816
 136.0860657  48.2998666  63.8090320 136.2592655  47.9611940  65.2743588
 129.0203480  50.8897684  57.5504722 129.8124772  50.5488508  57.1351021
 129.2600131  50.9992659  58.4706875 137.0538607  53.0617460  50.0234967
 136.4026587  53.6471540  49.6368980 137.8482970  53.5923655  50.0830004
 130.9794234  50.1506597  50.4222101 131.7525110  49.6035584  50.2834977
 131.3319633  51.0150846  50.6336562 132.8179277  51.4782979  63.6289000
 132.5269143  52.3828610  63.5135667 133.4536261  51.5199507  64.3433070
 133.7435484  48.8559828  60.2190360 134.3399056  48.6315850  59.5047323
 133.8010455  48.1144573  60.8215808 133.3160512  46.3099263  48.0540551
 133.5686033  45.7880784  47.2924014 132.3785071  46.1465408  48.1567234
 138.3603795  45.3135041  55.8615294 139.1466884  44.8954465  55.5105711
 138.6242499  46.2181134  56.0296942 138.5313872  50.7507892  50.5603951
 137.8959705  50.8242518  51.2724855 138.2011279  51.3401490  49.8823030
 133.0356801  48.2127369  50.2564926 132.9193059  47.5372272  50.9246010
 133.1459061  47.7259743  49.4397079 135.3788342  47.6737516  53.9611615
 135.0146549  47.1468137  54.6724536 136.2355458  47.2835985  53.7878100
 135.0193829  42.7027416  48.9572964 135.1868231  43.5707652  49.3243435
 134.8290998  42.8654697  48.0334253 137.7769162  51.1644395  60.6238794
 137.4769885  52.0669433  60.5154601 137.4320222  50.8976578  61.4759947
 131.2281644  47.6158191  56.6575498 130.3032140  47.4834406  56.8653190
 131.4766057  48.3952411  57.1545441 141.1766306  43.6826935  58.3036231
 140.2683183  43.6142343  58.0094992 141.1253902  44.1598880  59.1318057
 134.9983050  45.1585073  49.9419630 134.8782675  45.6042124  50.7805111
 134.3035638  45.5070391  49.3833168 128.5890455  47.2591465  57.4919287
 128.7182836  47.5125944  58.4058699 127.9087906  47.8519173  57.1723942
 132.7589942  57.9288715  53.5909762 132.6813972  58.8796540  53.6698242
 132.1551585  57.5834587  54.2484688 135.2507172  45.1016580  66.2471128
 134.4740506  45.6610501  66.2373993 135.8897735  45.5873363  66.7685999
 133.5053544  47.9102034  65.8089095 134.2468228  48.4487078  65.5323919
 132.7990529  48.5368323  65.9660647 138.9808884  50.0531174  64.4061257
 139.3892240  49.6113585  63.6615889 138.2586145  49.4783802  64.6595450
 135.3339954  44.9903781  61.7794814 136.1801149  45.4143195  61.9229463
 135.2738591  44.3337405  62.4733377 139.3037698  50.6132365  58.1613546
 138.6746561  50.7778079  57.4589614 138.9163360  51.0273974  58.9324510
 138.4839399  42.6508149  63.4375988 138.2400331  43.4050210  62.9010263
 138.7599329  43.0293497  64.2723235 140.4377862  49.1946762  62.1153253
 140.6494757  49.8378522  61.4387634 140.3907610  48.3609078  61.6475183
 138.0404091  41.8064582  59.0189825 137.1788570  42.1045836  59.3106563
 138.0666525  42.0234981  58.0870858 134.8565660  50.3506773  55.4263631
 135.3204006  50.6294476  54.6368253 134.5922458  49.4490218  55.2436722
 131.7489741  49.8978255  58.3643394 132.3191098  50.3265523  57.7260879
 132.3397853  49.6160839  59.0627580 133.7934546  46.4729925  52.2353196
 134.4958589  46.9250969  52.7027122 133.4615175  45.8313744  52.8633089
 132.2414908  45.0641682  66.6104405 131.6113568  45.7457963  66.8439802
 132.1350996  44.9524764  65.6657544 127.5359880  44.7313478  57.5370330
 126.7458934  44.9871007  57.0610440 128.0271127  45.5461816  57.6422370
 129.4874625  45.0958057  54.4953806 128.6905789  45.2076751  55.0137302
 129.2600218  45.4344709  53.6294697 135.3180293  51.6202760  62.4436321
 135.3824726  52.0823168  63.2794493 134.6091217  50.9900125  62.5718631
 125.8197583  44.9843968  59.9685320 126.0705621  45.8690978  60.2342896
 126.3557131  44.8048570  59.1960412 135.0328311  53.2870868  52.3115301
 134.8973986  54.1322404  52.7400149 135.5738123  53.4890146  51.5481235
 131.5195650  39.3662448  68.9729657 131.1262596  38.8128646  69.6477301
 132.3361791  39.6773026  69.3636174 128.4857708  50.8046306  52.8843226
 128.9982229  51.5989556  53.0348791 129.1380421  50.1072596  52.8176828
 130.2952593  53.9212062  54.9665980 130.4719221  54.8430027  54.7786963
 131.0909426  53.6070481  55.3960359 134.4363611  40.7820327  66.5649913
 135.1773325  41.3827480  66.4854376 134.6681534  40.0397965  66.0067956
 129.5804949  45.9676694  64.8428143 129.4658465  45.0661951  65.1435242
 128.7249467  46.2140391  64.4912959 136.6596787  53.9094434  66.4415643
 136.2160641  53.1230813  66.1236548 137.3214001  54.0973585  65.7759534
 131.4183908  55.4390236  60.9676322 131.9691333  55.3107299  60.1953316
 130.5795384  55.7385125  60.6171215 138.7578025  54.1897234  64.4697045
 138.7396501  55.0106115  63.9777314 139.6797945  54.0651310  64.6947186
 135.2151079  51.7041364  65.3120553 135.7479416  50.9429652  65.0819861
 134.6865160  51.4115016  66.0544708 138.3820774  36.8101430  60.8414195
 138.0385044  37.7003072  60.7653305 138.7499737  36.6203087  59.9783780
 126.4506625  49.1334960  53.6602797 127.2881847  49.5431969  53.4436505
 126.6284893  48.1934402  53.6302991 138.3471057  46.8010041  49.3486630
 137.8317680  47.5714646  49.5875017 138.0748365  46.1275177  49.9719691
 135.9318168  41.6459742  54.4071868 135.0759764  41.2566592  54.2277507
 136.3445120  41.7251703  53.5471654 137.4617315  39.1806085  58.8063428
 136.9582110  39.1436220  57.9931233 137.7547922  40.0898828  58.8660085
 133.7060201  39.2644815  57.8129610 134.5713197  39.0687623  57.4535499
 133.7737710  39.0355166  58.7398967 138.1357360  44.6737133  51.1746411
 137.8307496  44.9883282  52.0256554 139.0887802  44.7518553  51.2173744
 136.5803792  50.8327356  52.8239365 136.0525154  50.0980116  52.5112603
 136.0791295  51.6102033  52.5779333 131.3122520  41.4947023  55.1845977
 131.8866272  41.2722204  54.4519170 131.8993502  41.5635717  55.9374578
 140.3702097  47.3820750  55.9910353 140.8833979  48.0150741  56.4932063
 141.0203321  46.7821945  55.6253713 131.6392107  43.5251484  49.2041862
 130.8029419  43.8626170  49.5251137 131.4996876  43.3900463  48.2668999
 133.6145187  38.3688272  53.9121046 132.9609600  38.0537289  53.2877661
 133.5725662  37.7464012  54.6380869 134.7256392  48.6507567  45.8274338
 133.8183454  48.4196820  46.0265487 135.2227424  47.8545186  46.0148320
 137.6324471  57.3605074  48.7471024 136.9586170  57.6636771  49.3555982
 138.0190293  58.1634154  48.3976481 136.8482928  44.8570205  58.2368694
 135.9305489  45.0785152  58.0790382 137.2643071  44.9316516  57.3780401
 137.6317976  46.2561621  53.3671374 138.3789794  46.7683018  53.0578496
 137.9009565  45.9345673  54.2275767 135.9044626  48.7520161  50.3498328
 134.9955845  48.4679194  50.4470798 135.9339709  49.1719240  49.4901635
 141.1363893  52.3626751  54.1189496 140.6826220  51.5217661  54.1754686
 140.5057860  52.9988149  54.4564276 140.0796813  43.2918737  55.3490163
 139.3419569  42.7796123  55.6800406 140.3323586  42.8519119  54.5373440
 139.5796832  54.2003248  55.0539314 139.8719807  54.7608305  54.3351680
 140.0895453  54.4931809  55.8092473 140.1808440  36.0694989  55.9431932
 140.4867317  35.2092352  55.6557848 140.9061045  36.6612609  55.7430926
 126.4732796  46.4725676  54.3313530 126.2757196  45.8795036  53.6064597
 125.9179460  46.1677886  55.0489469 134.4529520  46.3648782  56.4508124
 134.5078130  45.4122618  56.3750600 133.6420722  46.5208221  56.9349422
 135.6020713  50.2928905  47.6886407 135.1640143  49.5764764  47.2292044
 136.3431154  50.5205020  47.1271498 132.3921880  44.9825842  54.2098502
 131.5789745  45.2820012  54.6163695 132.8880874  44.5881531  54.9272985
 134.5430458  54.9783599  56.1432767 134.5006636  55.2044445  55.2141299
 135.4593156  54.7446973  56.2918568 137.9896091  45.4467666  63.0413396
 138.3445479  45.6739139  63.9007862 138.6368223  45.7786043  62.4190652
 131.8835954  42.5544197  59.8259737 132.5235334  42.4132956  59.1282701
 131.0513485  42.2678711  59.4498339 132.6596258  51.8546628  55.9394730
 133.4536857  51.3596948  55.7377305 131.9487951  51.3264491  55.5762435
 137.4791103  54.2364723  60.2907097 137.5328125  54.8055660  61.0584813
 136.6105884  54.4066608  59.9261135 128.9679022  45.9989710  52.0154482
 128.0376610  45.9374165  52.2324445 129.0636494  45.4765662  51.2191124
 128.8864571  42.5244522  54.6032724 129.1471388  43.4389856  54.4941885
 129.7081743  42.0568965  54.7529337 130.3589496  43.9382280  61.7731549
 131.0312550  43.7299642  61.1244198 129.5319283  43.7404366  61.3336781
 136.2615068  40.5644220  63.7897210 135.6142983  41.2634170  63.6961686
 137.0316084  40.9980364  64.1573458 139.6693866  50.8293073  66.8647763
 139.5179373  50.6003624  65.9477847 139.6598546  51.7863674  66.8779108
 136.4379203  48.4024985  61.8494029 137.3671263  48.5536145  61.6762997
 136.0170233  48.4909006  60.9942676 135.2367534  52.4275650  59.6192567
 135.0978620  52.0594434  60.4918505 134.4482131  52.9423289  59.4476525
 135.8315686  57.5284746  50.9618103 136.0067442  57.0572789  51.7763726
 135.1448474  58.1550512  51.1899364 136.7872749  51.8057252  57.0081405
 136.4522582  51.7658022  57.9039055 136.2876695  51.1401968  56.5351815
 130.7616993  47.2124882  62.5333986 130.6236791  46.4805121  63.1345525
 131.6721917  47.1233783  62.2518174 139.7231941  49.1513287  47.2818464
 139.1061112  48.4260115  47.1851517 139.2548430  49.9122647  46.9385539
 133.3899294  46.9244842  62.0217665 134.0998913  46.2838034  61.9804284
 133.3468602  47.1757737  62.9443846 132.1028228  43.9110060  63.8413305
 131.5665585  43.4600798  64.4934901 131.5144937  44.0455969  63.0983769
 130.3976772  60.6774109  57.7357964 130.6373370  61.3092633  58.4136982
 129.5545968  60.3262149  58.0223323 131.5130487  43.3698711  46.4039769
 130.6359953  43.2487512  46.0402015 131.9888240  42.5784789  46.1518657
 123.0332627  48.1575871  56.4981276 123.7203667  47.8437601  55.9102291
 122.8780756  49.0617235  56.2248527 127.8367349  43.0466067  60.9266299
 127.7525538  42.4391737  60.1916709 127.0150056  43.5375086  60.9275796
 134.9104633  56.4853231  60.1399468 134.8374805  57.2908203  60.6518772
 134.4682027  56.6845197  59.3147489 134.6994413  55.7225001  53.6502289
 133.9161935  56.2646682  53.7440514 135.3987158  56.2398981  54.0496530
 138.0091063  41.5319631  56.2936495 138.5059763  40.7789593  55.9737565
 137.2378045  41.5683948  55.7279704 137.3703317  56.3840065  62.2957626
 138.0831289  57.0187530  62.2233528 136.8793346  56.4803931  61.4797628
 139.0920844  50.2891318  53.8674918 138.1577123  50.4092781  53.6979622
 139.2697512  49.3863785  53.6034928 134.5926032  43.6737014  56.0208179
 134.2223819  43.1208054  56.7089085 135.0885124  43.0695147  55.4683179
 132.4215230  54.1334509  63.1163197 133.1224690  54.7670992  63.2692591
 131.9510345  54.4749240  62.3558836 140.5469626  52.4752459  51.4011104
 140.8229470  52.3609053  52.3104978 139.6774125  52.0769944  51.3623277
 140.4510058  38.4989224  58.4415853 139.5373138  38.7293451  58.6098060
 140.8803159  38.5827668  59.2929886 140.2216516  46.6879116  60.9415747
 139.5687967  46.9355024  60.2868200 140.5996896  45.8743255  60.6078225
 137.1823690  56.7238810  55.0443918 137.3646085  55.9060465  55.5071670
 138.0056676  56.9406502  54.6068808 137.5165856  55.6506995  52.3058966
 138.0453622  55.1399449  51.6929128 137.7794075  55.3349525  53.1704499
 136.2704089  47.4298927  67.4281785 135.5944726  47.3293057  68.0984160
 137.0931723  47.2738141  67.8917782 128.0182949  53.6670864  60.0494300
 128.6036385  52.9214552  60.1822204 127.8207787  53.9774821  60.9330964
 130.8721604  56.7022111  55.0656742 130.2031979  57.1868239  54.5820782
 130.7334473  56.9491332  55.9800121 122.6100603  46.2376464  58.7698743
 122.6484703  45.7040055  59.5635861 122.1040896  45.7111670  58.1509720
 135.0126872  58.7365855  61.6639400 135.5645180  58.8997476  62.4288486
 135.3533066  59.3270293  60.9919425 129.9891366  41.0841005  62.2661285
 130.0532692  41.9455836  61.8538683 129.9258486  40.4715006  61.5333644
 129.4643638  43.1564137  65.9134319 130.0915677  42.7741215  66.5271844
 128.6071557  42.9378339  66.2790012 139.8637747  53.5627112  67.5188055
 140.4077651  54.1757071  67.0243010 139.2824592  54.1206691  68.0355068
 126.2409181  44.9640566  51.8452674 126.5362622  44.0551245  51.7919728
 125.3397217  44.9428306  51.5233677 138.1495260  56.6847830  58.6503083
 138.0246399  55.8837570  58.1414028 138.8074351  57.1794024  58.1617053
 129.7703428  43.0396563  57.8280223 129.0490014  43.6532531  57.6887696
 130.5596684  43.5754328  57.7496869 140.2130168  54.4856851  60.2782633
 139.2660504  54.3662202  60.2060959 140.5612941  53.5979349  60.3608894
 132.5729741  40.3750989  64.1020875 133.0964143  40.6213286  64.8647184
 132.3542075  41.2071024  63.6824012 127.9697022  42.6454664  51.9691999
 127.6409729  41.7652043  51.7867105 128.3236393  42.5902333  52.8568389
 137.2176601  54.2809567  56.4786985 137.0701564  53.3526274  56.6594555
 138.0430095  54.3029657  55.9944060 131.0838846  42.9327634  52.3367477
 131.4234918  43.4613555  51.6146085 131.5310966  43.2708040  53.1126044
 133.7782286  41.3164685  61.7870545 133.4379107  40.5172498  62.1891225
 133.0721293  41.6166395  61.2147378 134.4298758  38.4013997  60.2397868
 135.2524828  37.9274475  60.1176759 134.6736822  39.1804481  60.7396554
 133.0706993  41.4302255  50.5360770 133.7915355  41.8083508  50.0324487
 132.4472297  42.1491132  50.6395748 137.2138116  42.1347404  51.4719102
 137.4301730  43.0172042  51.1707930 136.7332183  41.7433618  50.7424744
 131.9537337  45.0933118  58.0489847 131.8081918  45.4073421  58.9414128
 131.4762541  45.7118018  57.4960745 133.8133720  42.0835666  58.0970736
 133.7995289  41.1876759  57.7603034 134.5306148  42.0906329  58.7309022
 135.6659851  42.5173006  60.1423864 135.4077628  43.4390076  60.1408194
 135.1344891  42.1203440  60.8324328 140.6106039  55.6223793  52.9213949
 140.7842917  55.0570215  52.1687802 141.1034931  56.4224688  52.7393439
 126.4282999  47.6338462  60.9877508 125.8836467  48.4098270  61.1197782
 127.3062349  47.9809266  60.8296629 133.2170616  40.9650046  53.3658306
 133.3386527  40.0366692  53.5649194 132.9272658  40.9788732  52.4536622
 136.0861806  38.6504956  56.5025026 136.1083503  38.7144289  55.5477006
 136.5029865  37.8109465  56.6965532 127.2149021  46.7608358  63.8807665
 126.4730757  46.9090994  64.4672295 126.8941765  47.0216624  63.0174414
 135.1592684  56.3024336  63.6788055 135.4679810  56.0573483  64.5510754
 135.9568166  56.5070975  63.1906925 135.1813296  58.4562246  55.9093431
 134.7418286  57.9638625  56.6026288 135.9321413  57.9135214  55.6685507
 127.6605635  54.6473787  55.9118059 128.4863655  54.3477559  55.5316703
 127.3099687  53.8781409  56.3607848 132.6287168  54.0000255  57.9815733
 132.0067177  53.3370960  57.6817961 133.2992035  54.0261387  57.2989381
 125.8614240  52.5660113  56.8706993 125.0246148  52.1382288  56.6890994
 125.8337885  52.7592557  57.8077784 132.7011695  42.4782043  67.5748239
 132.7499851  43.3544166  67.1926009 133.2434210  41.9359436  67.0019882
 132.1900675  52.5504179  51.4574194 132.3388795  53.2339643  50.8040866
 132.9967118  52.5309269  51.9723649 134.9310984  43.2313416  64.3294598
 134.0614293  43.5246982  64.0577186 135.1670464  43.8153861  65.0501861
 129.9453308  48.5769356  52.4635263 129.6999350  47.6731686  52.6615473
 130.1149222  48.5786507  51.5214741 137.6350018  39.4493033  61.8460018
 138.1531962  40.1854059  61.5206507 137.2805150  39.7557026  62.6806777
 129.2148955  44.3097714  49.9621424 128.5218200  44.3842069  49.3061460
 128.9700707  43.5458057  50.4842941 137.8862612  35.8693315  57.3660915
 138.1664366  35.2016504  57.9921341 138.6713219  36.0622411  56.8535579
 135.6896080  55.0452309  48.9285941 135.1170047  55.6642496  48.4756413
 136.2628874  55.5951671  49.4625863 139.7785850  41.3766532  61.2991891
 139.1835782  41.6571545  60.6038379 139.4935546  41.8660433  62.0708632
 138.9093340  55.3289459  50.0594523 139.8424013  55.2635021  50.2627399
 138.8216553  56.1645726  49.6009056 136.0742879  46.3813122  46.2701994
 137.0201984  46.2519330  46.3390412 135.6957124  45.6427784  46.7471422
 135.9581571  50.4330868  67.7302651 136.8784581  50.6109467  67.9242697
 135.9231154  49.4886913  67.5782350 134.2585796  44.3063098  46.2056879
 133.3517251  44.0096211  46.2819592 134.5361777  44.0092916  45.3391165
 125.1763736  45.6269462  56.6555925 124.8566521  44.7734770  56.3630299
 124.6297165  45.8418040  57.4113892 128.9543644  48.3431903  60.3725432
 129.1729654  49.2749010  60.3913465 129.3669418  47.9839877  61.1580236
 135.8747862  38.8499988  52.3601120 135.0648590  38.5047073  52.7356366
 136.5632279  38.5407532  52.9488732 137.8038410  37.9278035  53.9825417
 138.3569449  38.3473488  54.6415440 138.0408496  37.0013783  54.0248373
 133.8271509  43.9165108  69.7628181 133.7268236  44.8659465  69.6940272
 133.6093051  43.5883347  68.8904251 133.0284581  41.1650033  46.3468858
 133.8903745  41.4904932  46.6064675 133.2134925  40.3781529  45.8341924
 125.0451996  49.2472373  58.6249047 124.3515468  48.8326326  58.1119001
 125.7924987  49.2892910  58.0282466 141.1817217  40.0378560  53.4904081
 140.6015886  40.6963364  53.1082133 140.9153150  39.2155904  53.0791498
 139.6320783  39.4383618  55.6925401 140.1320562  39.5500152  54.8839720
 140.2756391  39.1344670  56.3326210 133.6902779  47.3462247  68.5793242
 133.2069861  48.1462607  68.7857131 133.7763718  47.3570192  67.6260686
 126.9588739  49.1790627  56.5015062 126.9359427  49.2778314  55.5496945
 127.2689375  50.0255778  56.8232228 129.6176117  51.2366782  60.6161676
 130.5719370  51.2050724  60.5491608 129.4188640  50.7757406  61.4311902
 130.2075499  49.8067898  63.1832474 131.0268388  50.3011977  63.2067311
 130.4812307  48.8899866  63.1550041 139.9642095  42.1978650  52.5460429
 139.0767950  42.4828301  52.3280624 140.3796084  42.0372414  51.6987706
 127.9726346  56.7786401  57.6331874 127.8380813  56.0186802  57.0669872
 127.5558408  57.5027301  57.1660663 139.1085309  51.9623325  46.6408449
 139.8121159  52.1673327  47.2566105 138.3847957  52.5300087  46.9057533
 139.9383119  47.7133186  52.7610719 139.8818320  48.1701738  51.9218352
 140.4911461  46.9523871  52.5833562 131.1295471  57.6755718  57.8450317
 131.0127856  58.6201151  57.7429007 130.3087918  57.3729280  58.2336116
 140.6717898  48.9037967  50.0563249 140.6166702  48.7382239  49.1151693
 140.0463953  49.6114000  50.2125438 125.4610413  44.1406032  63.8824671
 126.1069277  43.6304986  64.3711896 125.2527564  44.8774713  64.4568096
 137.9863805  51.2086879  69.3816811 138.8554965  51.3827532  69.0203446
 137.5070557  52.0281296  69.2592541 133.9814024  38.4046076  49.6348567
 133.9692693  39.3487916  49.7916838 134.8737445  38.2216222  49.3408028
 132.1549986  58.3283980  61.0606245 133.0577232  58.3607591  61.3772740
 131.9287356  57.3984431  61.0752581 133.9103588  57.0814967  57.7216324
 132.9599219  57.0816828  57.6080696 134.2136074  56.3347701  57.2052358
 137.7966143  34.9988853  53.8894504 137.0298539  34.4447340  54.0351186
 138.2076848  35.0710722  54.7508655 129.8007904  41.2873649  67.9799685
 130.6639366  40.9310454  68.1903010 129.2273315  40.9487544  68.6675089
 139.8597235  66.2189601  57.5504722 140.6518527  65.8780426  57.1351021
 140.0993885  66.3284576  58.4706875 139.4284209  62.5883383  57.4919287
 139.5576590  62.8417862  58.4058699 138.7481660  63.1811091  57.1723942
 138.3753635  60.0605396  57.5370330 137.5852689  60.3162924  57.0610440
 138.8664882  60.8753734  57.6422370 140.3268380  60.4249975  54.4953806
 139.5299543  60.5368669  55.0137302 140.0993972  60.7636627  53.6294697
 136.6591338  60.3135886  59.9685320 136.9099376  61.1982896  60.2342896
 137.1950886  60.1340488  59.1960412 139.3251463  66.1338224  52.8843226
 139.8375983  66.9281474  53.0348791 139.9774175  65.4364514  52.8176828
 140.4198704  61.2968612  64.8428143 140.3052219  60.3953869  65.1435242
 139.5643222  61.5432309  64.4912959 137.2900379  64.4626878  53.6602797
 138.1275601  64.8723886  53.4436505 137.4678647  63.5226320  53.6302991
 137.3126551  61.8017593  54.3313530 137.1150950  61.2086954  53.6064597
 136.7573215  61.4969803  55.0489469 139.8072776  61.3281627  52.0154482
 138.8770364  61.2666083  52.2324445 139.9030248  60.8057580  51.2191124
 139.7258325  57.8536440  54.6032724 139.9865143  58.7681773  54.4941885
 140.5475498  57.3860883  54.7529337 133.8726382  63.4867789  56.4981276
 134.5597421  63.1729519  55.9102291 133.7174510  64.3909153  56.2248527
 138.6761104  58.3757985  60.9266299 138.5919293  57.7683655  60.1916709
 137.8543810  58.8667003  60.9275796 138.8576703  68.9962782  60.0494300
 139.4430140  68.2506470  60.1822204 138.6601541  69.3066738  60.9330964
 133.4494358  61.5668382  58.7698743 133.4878457  61.0331973  59.5635861
 132.9434651  61.0403587  58.1509720 140.8285120  56.4132922  62.2661285
 140.8926447  57.2747753  61.8538683 140.7652240  55.8006924  61.5333644
 140.3037393  58.4856055  65.9134319 140.9309431  58.1033132  66.5271844
 139.4465311  58.2670257  66.2790012 137.0802935  60.2932484  51.8452674
 137.3756376  59.3843162  51.7919728 136.1790971  60.2720223  51.5233677
 138.8090777  57.9746582  51.9691999 138.4803483  57.0943961  51.7867105
 139.1630148  57.9194250  52.8568389 137.2676754  62.9630380  60.9877508
 136.7230222  63.7390188  61.1197782 138.1456104  63.3101184  60.8296629
 138.0542776  62.0900276  63.8807665 137.3124512  62.2382911  64.4672295
 137.7335520  62.3508542  63.0174414 138.4999389  69.9765705  55.9118059
 139.3257409  69.6769477  55.5316703 138.1493441  69.2073327  56.3607848
 136.7007994  67.8952031  56.8706993 135.8639903  67.4674205  56.6890994
 136.6731640  68.0884474  57.8077784 140.7847062  63.9061274  52.4635263
 140.5393104  63.0023604  52.6615473 140.9542977  63.9078424  51.5214741
 140.0542710  59.6389631  49.9621424 139.3611955  59.7133986  49.3061460
 139.8094462  58.8749975  50.4842941 136.0157491  60.9561379  56.6555925
 135.6960275  60.1026687  56.3630299 135.4690919  61.1709957  57.4113892
 139.7937398  63.6723820  60.3725432 140.0123408  64.6040928  60.3913465
 140.2063172  63.3131795  61.1580236 135.8845751  64.5764291  58.6249047
 135.1909222  64.1618243  58.1119001 136.6318742  64.6184827  58.0282466
 137.7982493  64.5082544  56.5015062 137.7753181  64.6070232  55.5496945
 138.1083130  65.3547695  56.8232228 138.8120100  72.1078319  57.6331874
 138.6774568  71.3478720  57.0669872 138.3952162  72.8319219  57.1660663
 136.3004168  59.4697949  63.8824671 136.9463031  58.9596903  64.3711896
 136.0921319  60.2066631  64.4568096 121.9196189  19.6058920  40.3155068
 121.8420218  20.5566745  40.3943549 121.3157832  19.2604792  40.9729995
 124.1934558  14.9641073  39.0360608 124.0580232  15.8092609  39.4645456
 124.7344370  15.1660351  38.2726542 119.4558840  15.5982267  41.6911286
 119.6325468  16.5200232  41.5032270 120.2515673  15.2840686  42.1205666
 120.5790155  17.1160441  47.6921629 121.1297580  16.9877504  46.9198622
 119.7401631  17.4155330  47.3416521 126.7930718  19.0375279  35.4716331
 126.1192417  19.3406975  36.0801289 127.1796540  19.8404359  35.1221788
 123.7036704  16.6553804  42.8678074 123.6612883  16.8814650  41.9386606
 124.6199403  16.4217178  43.0163875 126.6397350  15.9134928  47.0152404
 126.6934372  16.4825865  47.7830120 125.7712131  16.0836813  46.6506441
 124.9921933  19.2054951  37.6863410 125.1673689  18.7342994  38.5009033
 124.3054721  19.8320717  37.9144671 119.5583018  22.3544314  44.4603270
 119.7979617  22.9862838  45.1382289 118.7152215  22.0032354  44.7468629
 124.0710880  18.1623436  46.8644774 123.9981052  18.9678408  47.3764079
 123.6288273  18.3615402  46.0392796 123.8600660  17.3995206  40.3747596
 123.0768182  17.9416887  40.4685820 124.5593405  17.9169186  40.7741837
 126.5309564  18.0610270  49.0202933 127.2437536  18.6957735  48.9478834
 126.0399592  18.1574136  48.2042935 121.5821477  15.8104714  49.8408504
 122.2830937  16.4441197  49.9937898 121.1116592  16.1519445  49.0804143
 126.3429937  18.4009014  41.7689224 126.5252332  17.5830670  42.2316977
 127.1662923  18.6176707  41.3314114 126.6772103  17.3277200  39.0304273
 127.2059869  16.8169654  38.4174435 126.9400322  17.0119730  39.8949806
 117.1789195  15.3441069  46.7739606 117.7642632  14.5984757  46.9067511
 116.9814034  15.6545026  47.6576270 120.0327851  18.3792316  41.7902049
 119.3638226  18.8638444  41.3066089 119.8940720  18.6261537  42.7045427
 124.1733119  20.4136060  48.3884707 124.7251427  20.5767681  49.1533792
 124.5139313  21.0040498  47.7164732 127.3101506  18.3618035  45.3748389
 127.1852646  17.5607775  44.8659335 127.9680598  18.8564229  44.8862359
 124.3198930  17.9794541  50.4033361 124.6286057  17.7343688  51.2756061
 125.1174412  18.1841180  49.9152232 124.3419542  20.1332451  42.6338738
 123.9024533  19.6408830  43.3271595 125.0927659  19.5905419  42.3930813
 116.8211881  16.3243992  42.6363366 117.6469901  16.0247764  42.2562010
 116.4705933  15.5551614  43.0853155 121.7893415  15.6770460  44.7061040
 121.1673424  15.0141165  44.4063268 122.4598282  15.7031592  44.0234687
 115.0220487  14.2430318  43.5952300 114.1852395  13.8152493  43.4136301
 114.9944132  14.4362762  44.5323091 121.3506922  14.2274383  38.1819500
 121.4995042  14.9109848  37.5286173 122.1573365  14.2079474  38.6968956
 124.8502327  16.7222514  35.6531248 124.2776294  17.3412701  35.2001720
 125.4235121  17.2721876  36.1871170 128.0699587  17.0059664  36.7839830
 129.0030260  16.9405226  36.9872705 127.9822800  17.8415931  36.3254363
 117.1332592  18.4556606  44.3577181 116.9987060  17.6957007  43.7915179
 116.7164655  19.1797506  43.8905969 120.2901718  19.3525923  44.5695623
 120.1734102  20.2971356  44.4674313 119.4694164  19.0499485  44.9581422
 121.3156232  20.0054185  47.7851552 122.2183479  20.0377795  48.1018047
 121.0893602  19.0754636  47.7997887 123.0709834  18.7585172  44.4461630
 122.1205465  18.7587033  44.3326003 123.3742320  18.0117906  43.9297665
 138.8062528  24.5945710  45.5107393 139.4440938  24.4752457  44.8070733
 138.6883371  25.5426554  45.5695345 135.6152234  24.5473138  45.4468917
 135.2770746  24.4314203  44.5589452 136.4842002  24.1464303  45.4269923
 131.4739050  26.4008615  41.4365808 130.9103915  26.3098552  40.6682096
 131.3591445  25.5808519  41.9168301 136.0972017  25.7007990  51.4055123
 136.0860658  25.3060788  50.5335627 136.2592657  24.9674063  51.9988894
 129.0203482  27.8959806  44.2750029 129.8124774  27.5550631  43.8596328
 129.2600132  28.0054781  45.1952182 137.0538609  30.0679582  36.7480273
 136.4026588  30.6533663  36.3614287 137.8482971  30.5985777  36.8075311
 130.9794236  27.1568719  37.1467408 131.7525112  26.6097707  37.0080283
 131.3319635  28.0212969  37.3581869 132.8179278  28.4845102  50.3534307
 132.5269144  29.3890733  50.2380973 133.4536263  28.5261629  51.0678376
 133.7435485  25.8621950  46.9435666 134.3399057  25.6377973  46.2292629
 133.8010457  25.1206696  47.5461114 138.3603796  22.3197164  42.5860601
 139.1466886  21.9016587  42.2351018 138.6242501  23.2243256  42.7542249
 138.5313874  27.7570014  37.2849258 137.8959707  27.8304641  37.9970162
 138.2011280  28.3463613  36.6068337 133.0356802  25.2189492  36.9810232
 132.9193060  24.5434395  37.6491317 133.1459062  24.7321865  36.1642385
 135.3788343  24.6799639  40.6856922 135.0146550  24.1530260  41.3969843
 136.2355459  24.2898108  40.5123407 137.7769163  28.1706517  47.3484101
 137.4769886  29.0731556  47.2399908 137.4320223  27.9038700  48.2005253
 131.2281645  24.6220314  43.3820805 130.3032141  24.4896528  43.5898497
 131.4766058  25.4014533  43.8790747 134.9983051  22.1647196  36.6664937
 134.8782676  22.6104247  37.5050417 134.3035639  22.5132514  36.1078475
 128.5890456  24.2653588  44.2164594 128.7182837  24.5188067  45.1304006
 127.9087907  24.8581296  43.8969249 132.7589943  34.9350838  40.3155068
 132.6813973  35.8858663  40.3943549 132.1551587  34.5896710  40.9729995
 135.2507173  22.1078703  52.9716435 134.4740507  22.6672623  52.9619300
 135.8897736  22.5935486  53.4931305 133.5053545  24.9164156  52.5334402
 134.2468230  25.4549200  52.2569226 132.7990531  25.5430445  52.6905954
 138.9808885  27.0593297  51.1306564 139.3892241  26.6175707  50.3861196
 138.2586146  26.4845924  51.3840757 135.3339955  21.9965904  48.5040121
 136.1801150  22.4205317  48.6474770 135.2738593  21.3399528  49.1978684
 139.3037699  27.6194487  44.8858852 138.6746562  27.7840202  44.1834920
 138.9163362  28.0336097  45.6569817 140.4377863  26.2008884  48.8398560
 140.6494758  26.8440644  48.1632941 140.3907611  25.3671201  48.3720490
 134.8565661  27.3568896  42.1508938 135.3204007  27.6356599  41.3613560
 134.5922459  26.4552340  41.9682028 131.7489742  26.9040377  45.0888701
 132.3191099  27.3327645  44.4506185 132.3397854  26.6222962  45.7872887
 133.7934547  23.4792048  38.9598503 134.4958591  23.9313092  39.4272429
 133.4615176  22.8375867  39.5878396 132.2414909  22.0703805  53.3349712
 131.6113570  22.7520085  53.5685109 132.1350997  21.9586886  52.3902850
 127.5359881  21.7375601  44.2615636 126.7458935  21.9933129  43.7855747
 128.0271129  22.5523938  44.3667677 129.4874627  22.1020180  41.2199113
 128.6905790  22.2138874  41.7382609 129.2600219  22.4406832  40.3540004
 135.3180294  28.6264883  49.1681628 135.3824727  29.0885290  50.0039799
 134.6091218  27.9962248  49.2963937 125.8197584  21.9906091  46.6930627
 126.0705623  22.8753101  46.9588203 126.3557133  21.8110693  45.9205719
 135.0328312  30.2932991  39.0360608 134.8973987  31.1384526  39.4645456
 135.5738125  30.4952268  38.2726542 128.4857709  27.8108429  39.6088533
 128.9982230  28.6051679  39.7594098 129.1380422  27.1134719  39.5422135
 130.2952594  30.9274185  41.6911286 130.4719222  31.8492150  41.5032270
 131.0909428  30.6132604  42.1205666 129.5804951  22.9738817  51.5673449
 129.4658466  22.0724074  51.8680548 128.7249468  23.2202514  51.2158266
 136.6596788  30.9156557  53.1660950 136.2160643  30.1292936  52.8481855
 137.3214002  31.1035708  52.5004841 131.4183910  32.4452359  47.6921629
 131.9691335  32.3169422  46.9198622 130.5795385  32.7447248  47.3416521
 138.7578026  31.1959357  51.1942351 138.7396502  32.0168238  50.7022620
 139.6797947  31.0713432  51.4192492 135.2151081  28.7103486  52.0365860
 135.7479417  27.9491775  51.8065168 134.6865162  28.4177138  52.7790014
 126.4506626  26.1397083  40.3848104 127.2881848  26.5494091  40.1681811
 126.6284894  25.1996525  40.3548297 136.5803793  27.8389479  39.5484672
 136.0525155  27.1042239  39.2357909 136.0791296  28.6164155  39.3024640
 131.3122521  18.5009145  41.9091283 131.8866273  18.2784327  41.1764476
 131.8993503  18.5697840  42.6619885 140.3702098  24.3882872  42.7155660
 140.8833980  25.0212864  43.2177369 141.0203322  23.7884068  42.3499020
 131.6392108  20.5313606  35.9287168 130.8029420  20.8688293  36.2496443
 131.4996878  20.3962586  34.9914305 137.6324472  34.3667196  35.4716331
 136.9586171  34.6698893  36.0801289 138.0190294  35.1696277  35.1221788
 136.8482929  21.8632328  44.9614000 135.9305490  22.0847275  44.8035688
 137.2643073  21.9378638  44.1025708 137.6317977  23.2623743  40.0916681
 138.3789796  23.7745141  39.7823803 137.9009566  22.9407796  40.9521074
 135.9044627  25.7582284  37.0743635 134.9955846  25.4741317  37.1716105
 135.9339711  26.1781363  36.2146942 141.1363894  29.3688874  40.8434802
 140.6826221  28.5279783  40.8999993 140.5057861  30.0050272  41.1809583
 139.5796834  31.2065370  41.7784621 139.8719808  31.7670427  41.0596986
 140.0895454  31.4993931  42.5337780 126.4732797  23.4787798  41.0558837
 126.2757197  22.8857159  40.3309904 125.9179461  23.1740008  41.7734776
 134.4529521  23.3710905  43.1753430 134.5078131  22.4184741  43.0995907
 133.6420723  23.5270344  43.6594729 132.3921881  21.9887964  40.9343809
 131.5789746  22.2882135  41.3409001 132.8880875  21.5943653  41.6518291
 134.5430459  31.9845721  42.8678074 134.5006638  32.2106568  41.9386606
 135.4593158  31.7509096  43.0163875 137.9896093  22.4529789  49.7658703
 138.3445480  22.6801262  50.6253169 138.6368224  22.7848166  49.1435958
 131.8835956  19.5606320  46.5505044 132.5235335  19.4195079  45.8528007
 131.0513486  19.2740833  46.1743646 132.6596260  28.8608750  42.6640036
 133.4536858  28.3659071  42.4622611 131.9487952  28.3326614  42.3007742
 137.4791104  31.2426846  47.0152404 137.5328126  31.8117782  47.7830120
 136.6105885  31.4128731  46.6506441 128.9679023  23.0051832  38.7399789
 128.0376611  22.9436288  38.9569751 129.0636495  22.4827785  37.9436430
 128.8864572  19.5306645  41.3278031 129.1471389  20.4451978  41.2187191
 129.7081744  19.0631088  41.4774644 130.3589497  20.9444402  48.4976855
 131.0312551  20.7361764  47.8489504 129.5319284  20.7466488  48.0582088
 139.6693867  27.8355195  53.5893069 139.5179374  27.6065747  52.6723153
 139.6598547  28.7925797  53.6024414 136.4379204  25.4087108  48.5739336
 137.3671264  25.5598268  48.4008303 136.0170234  25.4971129  47.7187982
 135.2367536  29.4337772  46.3437874 135.0978621  29.0656557  47.2163812
 134.4482132  29.9485412  46.1721831 135.8315688  34.5346869  37.6863410
 136.0067443  34.0634912  38.5009033 135.1448476  35.1612635  37.9144671
 136.7872751  28.8119375  43.7326711 136.4522583  28.7720145  44.6284361
 136.2876696  28.1464091  43.2597122 130.7616995  24.2187005  49.2579292
 130.6236793  23.4867244  49.8590832 131.6721918  24.1295905  48.9763480
 133.3899295  23.9306964  48.7462972 134.0998914  23.2900157  48.7049591
 133.3468603  24.1819859  49.6689153 132.1028229  20.9172182  50.5658612
 131.5665586  20.4662921  51.2180208 131.5144938  21.0518091  49.8229076
 130.3976773  37.6836232  44.4603270 130.6373371  38.3154756  45.1382289
 129.5545969  37.3324272  44.7468629 123.0332628  25.1637993  43.2226582
 123.7203668  24.8499723  42.6347598 122.8780757  26.0679358  42.9493834
 127.8367351  20.0528190  47.6511606 127.7525539  19.4453860  46.9162016
 127.0150057  20.5437208  47.6521102 134.9104635  33.4915354  46.8644774
 134.8374806  34.2970326  47.3764079 134.4682028  33.6907320  46.0392796
 134.6994414  32.7287124  40.3747596 133.9161936  33.2708804  40.4685820
 135.3987159  33.2461104  40.7741837 137.3703318  33.3902188  49.0202933
 138.0831290  34.0249653  48.9478834 136.8793347  33.4866054  48.2042935
 139.0920845  27.2953441  40.5920225 138.1577124  27.4154903  40.4224929
 139.2697514  26.3925908  40.3280234 134.5926033  20.6799137  42.7453486
 134.2223821  20.1270177  43.4334391 135.0885126  20.0757270  42.1928486
 132.4215232  31.1396632  49.8408504 133.1224691  31.7733114  49.9937898
 131.9510347  31.4811363  49.0804143 140.5469628  29.4814581  38.1256411
 140.8229471  29.3671176  39.0350285 139.6774126  29.0832066  38.0868584
 140.2216518  23.6941239  47.6661054 139.5687968  23.9417146  47.0113507
 140.5996898  22.8805377  47.3323531 137.1823692  33.7300932  41.7689224
 137.3646086  32.9122588  42.2316977 138.0056678  33.9468624  41.3314114
 137.5165857  32.6569117  39.0304273 138.0453623  32.1461572  38.4174435
 137.7794077  32.3411647  39.8949806 136.2704091  24.4361050  54.1527091
 135.5944728  24.3355179  54.8229466 137.0931725  24.2800264  54.6163088
 128.0182950  30.6732987  46.7739606 128.6036387  29.9276674  46.9067511
 127.8207788  30.9836943  47.6576270 130.8721605  33.7084234  41.7902049
 130.2031980  34.1930362  41.3066089 130.7334475  33.9553454  42.7045427
 122.6100605  23.2438587  45.4944050 122.6484704  22.7102177  46.2881168
 122.1040897  22.7173792  44.8755027 135.0126874  35.7427977  48.3884707
 135.5645182  35.9059599  49.1533792 135.3533067  36.3332415  47.7164732
 129.9891367  18.0903127  48.9906592 130.0532693  18.9517958  48.5783990
 129.9258487  17.4777129  48.2578950 129.4643639  20.1626260  52.6379626
 130.0915678  19.7803337  53.2517150 128.6071558  19.9440462  53.0035319
 139.8637748  30.5689235  54.2433362 140.4077652  31.1819193  53.7488316
 139.2824593  31.1268813  54.7600375 126.2409182  21.9702689  38.5697981
 126.5362623  21.0613367  38.5165035 125.3397218  21.9490428  38.2478983
 138.1495261  33.6909953  45.3748389 138.0246400  32.8899693  44.8659335
 138.8074352  34.1856146  44.8862359 129.7703429  20.0458686  44.5525530
 129.0490015  20.6594653  44.4133003 130.5596685  20.5816450  44.4742175
 140.2130169  31.4918973  47.0027939 139.2660505  31.3724324  46.9306266
 140.5612942  30.6041471  47.0854201 127.9697024  19.6516787  38.6937306
 127.6409730  18.7714166  38.5112412 128.3236394  19.5964455  39.5813695
 137.2176603  31.2871689  43.2032292 137.0701565  30.3588397  43.3839862
 138.0430096  31.3091780  42.7189367 131.0838847  19.9389756  39.0612784
 131.4234919  20.4675678  38.3391392 131.5310967  20.2770163  39.8371350
 131.9537338  22.0995240  44.7735153 131.8081919  22.4135543  45.6659435
 131.4762542  22.7180141  44.2206052 135.6659852  19.5235128  46.8669170
 135.4077630  20.4452199  46.8653501 135.1344892  19.1265563  47.5569635
 140.6106041  32.6285915  39.6459256 140.7842918  32.0632338  38.8933108
 141.1034932  33.4286810  39.4638746 126.4283000  24.6400585  47.7122815
 125.8836468  25.4160393  47.8443089 127.3062350  24.9871389  47.5541936
 127.2149022  23.7670481  50.6052971 126.4730758  23.9153116  51.1917602
 126.8941767  24.0278746  49.7419721 135.1592685  33.3086459  50.4033361
 135.4679811  33.0635606  51.2756061 135.9568167  33.5133098  49.9152232
 135.1813297  35.4624369  42.6338738 134.7418287  34.9700747  43.3271595
 135.9321414  34.9197336  42.3930813 127.6605636  31.6535910  42.6363366
 128.4863656  31.3539681  42.2562010 127.3099688  30.8843532  43.0853155
 132.6287169  31.0062378  44.7061040 132.0067178  30.3433083  44.4063268
 133.2992036  31.0323510  44.0234687 125.8614241  29.5722236  43.5952300
 125.0246149  29.1444410  43.4136301 125.8337886  29.7654679  44.5323091
 132.7011697  19.4844166  54.2993546 132.7499852  20.3606289  53.9171315
 133.2434211  18.9421559  53.7265189 132.1900676  29.5566301  38.1819500
 132.3388796  30.2401766  37.5286173 132.9967119  29.5371391  38.6968956
 134.9310985  20.2375538  51.0539904 134.0614294  20.5309104  50.7822493
 135.1670465  20.8215983  51.7747168 129.9453309  25.5831479  39.1880569
 129.6999351  24.6793809  39.3860779 130.1149224  25.5848629  38.2460047
 129.2148957  21.3159836  36.6866731 128.5218201  21.3904191  36.0306767
 128.9700708  20.5520180  37.2088248 135.6896082  32.0514432  35.6531248
 135.1170049  32.6704619  35.2001720 136.2628875  32.6013793  36.1871170
 138.9093341  32.3351582  36.7839830 139.8424014  32.2697143  36.9872705
 138.8216554  33.1707849  36.3254363 135.9581573  27.4392990  54.4547957
 136.8784582  27.6171589  54.6488004 135.9231156  26.4949036  54.3027656
 125.1763738  22.6331584  43.3801232 124.8566522  21.7796892  43.0875606
 124.6297166  22.8480162  44.1359199 128.9543645  25.3494025  47.0970738
 129.1729655  26.2811133  47.1158772 129.3669419  24.9902000  47.8825542
 133.8271510  20.9227231  56.4873487 133.7268237  21.8721588  56.4185578
 133.6093053  20.5945470  55.6149557 125.0451998  26.2534496  45.3494353
 124.3515469  25.8388448  44.8364308 125.7924989  26.2955032  44.7527772
 133.6902781  24.3524370  55.3038549 133.2069862  25.1524730  55.5102438
 133.7763720  24.3632315  54.3505993 126.9588740  26.1852749  43.2260368
 126.9359428  26.2840437  42.2742251 127.2689377  27.0317900  43.5477534
 129.6176118  28.2428904  47.3406983 130.5719372  28.2112847  47.2736914
 129.4188642  27.7819528  48.1557209 130.2075500  26.8130020  49.9077780
 131.0268389  27.3074099  49.9312618 130.4812308  25.8961989  49.8795348
 127.9726347  33.7848524  44.3577181 127.8380815  33.0248925  43.7915179
 127.5558409  34.5089424  43.8905969 131.1295473  34.6817841  44.5695623
 131.0127857  35.6263273  44.4674313 130.3087919  34.3791402  44.9581422
 125.4610414  21.1468154  50.6069977 126.1069278  20.6367108  51.0957203
 125.2527565  21.8836836  51.1813403 137.9863807  28.2149002  56.1062118
 138.8554966  28.3889654  55.7448753 137.5070558  29.0343419  55.9837847
 132.1549987  35.3346103  47.7851552 133.0577233  35.3669713  48.1018047
 131.9287357  34.4046554  47.7997887 133.9103589  34.0877089  44.4461630
 132.9599220  34.0878951  44.3326003 134.2136075  33.3409824  43.9297665
 129.8007905  18.2935771  54.7044992 130.6639367  17.9372576  54.9148316
 129.2273316  17.9549666  55.3920396 139.8597236  43.2251724  44.2750029
 140.6518528  42.8842549  43.8596328 140.0993886  43.3346699  45.1952182
 139.4284210  39.5945505  44.2164594 139.5576591  39.8479984  45.1304006
 138.7481662  40.1873213  43.8969249 138.3753636  37.0667518  44.2615636
 137.5852690  37.3225047  43.7855747 138.8664883  37.8815856  44.3667677
 140.3268381  37.4312098  41.2199113 139.5299544  37.5430792  41.7382609
 140.0993973  37.7698750  40.3540004 136.6591339  37.3198009  46.6930627
 136.9099377  38.2045019  46.9588203 137.1950887  37.1402610  45.9205719
 139.3251464  43.1400346  39.6088533 139.8375984  43.9343597  39.7594098
 139.9774177  42.4426637  39.5422135 140.4198705  38.3030734  51.5673449
 140.3052220  37.4015992  51.8680548 139.5643223  38.5494431  51.2158266
 137.2900381  41.4689001  40.3848104 138.1275603  41.8786009  40.1681811
 137.4678648  40.5288443  40.3548297 137.3126552  38.8079716  41.0558837
 137.1150952  38.2149077  40.3309904 136.7573216  38.5031926  41.7734776
 139.8072778  38.3343750  38.7399789 138.8770366  38.2728205  38.9569751
 139.9030250  37.8119703  37.9436430 139.7258327  34.8598563  41.3278031
 139.9865144  35.7743896  41.2187191 140.5475499  34.3923005  41.4774644
 133.8726383  40.4929911  43.2226582 134.5597423  40.1791641  42.6347598
 133.7174512  41.3971276  42.9493834 138.6761105  35.3820108  47.6511606
 138.5919294  34.7745777  46.9162016 137.8543811  35.8729126  47.6521102
 138.8576704  46.0024904  46.7739606 139.4430141  45.2568592  46.9067511
 138.6601543  46.3128861  47.6576270 133.4494359  38.5730504  45.4944050
 133.4878459  38.0394095  46.2881168 132.9434652  38.0465710  44.8755027
 140.8285121  33.4195045  48.9906592 140.8926448  34.2809876  48.5783990
 140.7652242  32.8069047  48.2578950 140.3037394  35.4918178  52.6379626
 140.9309433  35.1095255  53.2517150 139.4465313  35.2732379  53.0035319
 137.0802937  37.2994607  38.5697981 137.3756378  36.3905285  38.5165035
 136.1790972  37.2782346  38.2478983 138.8090778  34.9808704  38.6937306
 138.4803484  34.1006083  38.5112412 139.1630149  34.9256373  39.5813695
 137.2676755  39.9692502  47.7122815 136.7230223  40.7452310  47.8443089
 138.1456105  40.3163307  47.5541936 138.0542777  39.0962399  50.6052971
 137.3124513  39.2445034  51.1917602 137.7335521  39.3570664  49.7419721
 138.4999390  46.9827827  42.6363366 139.3257410  46.6831599  42.2562010
 138.1493442  46.2135450  43.0853155 136.7007995  44.9014154  43.5952300
 135.8639904  44.4736328  43.4136301 136.6731641  45.0946597  44.5323091
 140.7847063  40.9123396  39.1880569 140.5393105  40.0085726  39.3860779
 140.9542978  40.9140547  38.2460047 140.0542711  36.6451754  36.6866731
 139.3611956  36.7196109  36.0306767 139.8094463  35.8812098  37.2088248
 136.0157492  37.9623502  43.3801232 135.6960276  37.1088810  43.0875606
 135.4690920  38.1772080  44.1359199 139.7937400  40.6785943  47.0970738
 140.0123409  41.6103051  47.1158772 140.2063173  40.3193917  47.8825542
 135.8845752  41.5826413  45.3494353 135.1909224  41.1680366  44.8364308
 136.6318743  41.6246950  44.7527772 137.7982495  41.5144667  43.2260368
 137.7753183  41.6132354  42.2742251 138.1083131  42.3609818  43.5477534
 138.8120101  49.1140442  44.3577181 138.6774569  48.3540842  43.7915179
 138.3952164  49.8381341  43.8905969 136.3004169  36.4760072  50.6069977
 136.9463032  35.9659026  51.0957203 136.0921320  37.2128754  51.1813403
  17.8207300  68.3909383 129.6763124  17.1695280  68.9763463 129.2897137
  18.6151663  68.9215578 129.7358161  14.0829205  61.6391186 127.7068708
  14.3354726  61.1172707 126.9452171  13.1453764  61.4757331 127.8095392
  19.2982565  66.0799815 130.2132108  18.6628398  66.1534441 130.9253013
  18.9679972  66.6693414 129.5351187  13.5258635  73.2580638 133.2437919
  13.4482665  74.2088463 133.3226399  12.9220278  72.9126511 133.9012845
  21.4636809  60.9598469 130.4228121  22.3754665  61.1925856 130.2475819
  20.9546456  61.5435514 129.8603200  23.9495623  66.8778726 135.1686067
  23.2646661  67.2577627 134.6183100  24.0339472  67.4874052 135.9018014
  15.7997004  68.6162791 131.9643458  15.6642679  69.4614327 132.3928306
  16.3406816  68.8182069 131.2009392  19.1139750  62.1301964 129.0014787
  18.5986374  62.9006569 129.2403174  18.8417059  61.4567100 129.6247848
  24.0874024  64.8834319 130.9367960  23.3103467  64.5445478 130.4923123
  24.7665505  64.8886942 130.2622926  15.4925085  63.9799490 125.4802495
  14.5852147  63.7488743 125.6793644  15.9896117  63.1837109 125.6676477
  18.3993164  72.6896997 128.3999181  17.7254863  72.9928694 129.0084139
  18.7858986  73.4926077 128.0504638  16.6713319  64.0812084 130.0026485
  15.7624538  63.7971117 130.0998955  16.7008403  64.5011163 129.1429792
  21.9032586  67.6918674 133.7717653  21.4494913  66.8509584 133.8282843
  21.2726553  68.3280072 134.1092433  20.3465525  69.5295171 134.7067471
  20.6388500  70.0900228 133.9879837  20.8564146  69.8223732 135.4620630
  16.3689407  65.6220828 127.3414564  15.9308836  64.9056687 126.8820201
  17.1099847  65.8496943 126.7799655  24.4862521  63.8978025 133.3990882
  24.3480420  64.0879621 132.4712072  24.1298740  64.6597408 133.8558934
  16.5984379  72.8576669 130.6146261  16.7736135  72.3864712 131.4291883
  15.9117167  73.4842435 130.8427521  20.4900634  64.4805210 126.9346621
  19.8729805  63.7552038 126.8379674  20.0217123  65.2414570 126.5913696
  15.4663106  71.0516924 133.3030446  14.6830628  71.5938605 133.3968671
  16.1655851  71.5690904 133.7024687  21.3138319  67.8044382 131.0539261
  21.5898163  67.6900976 131.9633135  20.4442818  67.4061867 131.0151434
  17.9492383  72.0530733 134.6972075  18.1314778  71.2352388 135.1599827
  18.7725369  72.2698425 134.2596965  18.2834549  70.9798918 131.9587123
  18.8122315  70.4691372 131.3457285  18.5462768  70.6641448 132.8232656
  21.3774732  70.9515716 132.5742106  21.5511610  70.3862138 131.8215959
  21.8703624  71.7516611 132.3921596  27.2314124  63.7152139 134.1932406
  27.6745270  62.9659464 133.7951529  26.3540634  63.7062275 133.8106138
  22.3649905  70.2682480 129.6739005  23.0600810  70.8889173 129.8926319
  22.7073055  69.4177832 129.9491382  24.2641328  67.7182186 131.2026335
  24.7892652  68.0569459 130.4775655  24.1763681  66.7829201 131.0189470
  12.9569368  67.8796102 131.1102351  13.1057488  68.5631566 130.4569023
  13.7635811  67.8601192 131.6251806  16.4564773  70.3744232 128.5814098
  15.8838740  70.9934419 128.1284570  17.0297567  70.9243594 129.1154020
  19.6762033  70.6581382 129.7122680  20.6092706  70.5926944 129.9155556
  19.5885246  71.4937649 129.2537213  22.3050050  69.9747252 126.6726628
  22.2263681  69.6407116 127.5662386  23.1259717  70.4669020 126.6718100
  16.8411572  61.7105045 125.9230151  17.7870677  61.5811253 125.9918569
  16.4625817  60.9719707 126.3999579  15.0254489  59.6355021 125.8585036
  14.1185944  59.3388134 125.9347749  15.3030470  59.3384839 124.9919322
  19.8754002  67.2915248 126.2936606  20.5789852  67.4965250 126.9094262
  19.1516650  67.8592010 126.5585690  21.7840699  67.7297777 128.3435066
  22.6186303  67.2978976 128.1612541  21.6225042  67.5579791 129.2711961
  21.4386591  64.2329890 129.7091406  21.3835395  64.0674162 128.7679850
  20.8132646  64.9405923 129.8653595  30.4124974  78.2467428 138.4390243
  31.0503384  78.1274176 137.7353583  30.2945817  79.1948272 138.4978195
  27.2214680  78.1994856 138.3751768  26.8833192  78.0835921 137.4872303
  28.0904449  77.7986021 138.3552774  23.0801496  80.0530333 134.3648659
  22.5166361  79.9620270 133.5964946  22.9653891  79.2330237 134.8451151
  20.6265928  81.5481524 137.2032879  21.4187220  81.2072349 136.7879179
  20.8662578  81.6576499 138.1235033  28.6601055  83.7201300 129.6763124
  28.0089035  84.3055381 129.2897137  29.4545418  84.2507495 129.7358161
  22.5856682  80.8090438 130.0750258  23.3587558  80.2619425 129.9363134
  22.9382081  81.6734687 130.2864719  25.3497931  79.5143668 139.8718517
  25.9461504  79.2899691 139.1575480  25.4072903  78.7728414 140.4743965
  24.9222960  76.9683104 127.7068708  25.1748480  76.4464625 126.9452171
  23.9847519  76.8049249 127.8095392  29.9666243  75.9718882 135.5143451
  30.7529332  75.5538305 135.1633868  30.2304947  76.8764974 135.6825100
  30.1376320  81.4091732 130.2132108  29.5022153  81.4826359 130.9253013
  29.8073726  81.9985331 129.5351187  35.3674670  75.9094115 136.4176430
  36.0999842  75.3393332 136.6514259  34.6114025  75.5215716 136.8582935
  24.6419249  78.8711210 129.9093083  24.5255507  78.1956113 130.5774167
  24.7521508  78.3843584 129.0925236  26.9850789  78.3321357 133.6139772
  26.6208997  77.8051978 134.3252694  27.8417905  77.9419826 133.4406258
  26.6256276  73.3611256 128.6101121  26.7930679  74.2291493 128.9771592
  26.4353445  73.5238538 127.6862410  29.3831610  81.8228235 140.2766951
  29.0832333  82.7253274 140.1682758  29.0382669  81.5560419 141.1288104
  22.8344091  78.2742032 136.3103655  21.9094588  78.1418246 136.5181347
  23.0828504  79.0536251 136.8073598  32.7828753  74.3410776 137.9564388
  31.8745631  74.2726184 137.6623149  32.7316349  74.8182720 138.7846214
  26.6045497  75.8168914 129.5947787  26.4845122  76.2625965 130.4333268
  25.9098086  76.1654232 129.0361326  20.1952902  77.9175306 137.1447444
  20.3245283  78.1709785 138.0586856  19.5150353  78.5103014 136.8252100
  24.3652389  88.5872556 133.2437919  24.2876419  89.5380381 133.3226399
  23.7614033  88.2418428 133.9012845  34.6490400  72.5427214 139.7342262
  34.0064780  72.8359747 139.0882057  34.1445328  72.4280134 140.5395459
  32.3030563  76.2890387 130.4228121  33.2148420  76.5217774 130.2475819
  31.7940211  76.8727431 129.8603200  30.5871331  80.7115015 144.0589414
  30.9954687  80.2697425 143.3144046  29.8648593  80.1367642 144.3123607
  30.9100146  81.2716206 137.8141703  30.2809008  81.4361920 137.1117771
  30.5225808  81.6857815 138.5852667  34.7889378  82.2070643 135.1686067
  34.1040416  82.5869545 134.6183100  34.8733227  82.8165970 135.9018014
  32.0440309  79.8530602 141.7681410  32.2557205  80.4962362 141.0915791
  31.9970058  79.0192919 141.3003340  29.6466538  72.4648423 138.6717982
  28.7851017  72.7629677 138.9634720  29.6728973  72.6818822 137.7399015
  26.4628108  81.0090614 135.0791788  26.9266453  81.2878317 134.2896411
  26.1984906  80.1074058 134.8964879  23.3552189  80.5562095 138.0171551
  23.9253546  80.9849364 137.3789036  23.9460301  80.2744680 138.7155737
  25.3996994  77.1313766 131.8881353  26.1021037  77.5834810 132.3555280
  25.0677622  76.4897585 132.5161246  19.1422328  75.3897319 137.1898487
  18.3521382  75.6454847 136.7138597  19.6333575  76.2045657 137.2950527
  33.1586137  82.7302558 139.9403768  33.9803581  82.3282745 139.6586449
  33.1548540  82.6270792 140.8919883  21.0937073  75.7541898 134.1481963
  20.2968236  75.8660592 134.6665459  20.8662665  76.0928550 133.2822854
  41.2492130  79.0741306 136.2888739  40.4955839  78.5048704 136.1332743
  41.3839671  79.0403971 137.2359374  26.6390758  83.9454709 131.9643458
  26.5036433  84.7906244 132.3928306  27.1800571  84.1473986 131.2009392
  20.0920156  81.4630147 132.5371383  20.6044676  82.2573397 132.6876948
  20.7442869  80.7656437 132.4704985  21.9015040  84.5795903 134.6194137
  22.0781669  85.5013868 134.4315121  22.6971874  84.2654322 135.0488516
  30.3640473  84.8481075 144.1225202  30.3458948  85.6689956 143.6305471
  31.2860393  84.7235150 144.3475343  18.0569072  79.7918801 133.3130954
  18.8944294  80.2015809 133.0964662  18.2347340  78.8518243 133.2831148
  29.9533505  77.4593882 129.0014787  29.4380128  78.2298486 129.2403174
  29.6810813  76.7859018 129.6247848  27.5380616  72.3043582 134.0600025
  26.6822212  71.9150433 133.8805664  27.9507567  72.3835543 133.1999811
  29.0679762  69.8389926 138.4591585  28.5644558  69.8020061 137.6459390
  29.3610369  70.7482668 138.5188242  34.9267779  80.2126236 130.9367960
  34.1497222  79.8737396 130.4923123  35.6059260  80.2178859 130.2622926
  29.7419808  75.3320974 130.8274568  29.4369943  75.6467123 131.6784711
  30.6950250  75.4102394 130.8701901  28.1866240  81.4911197 132.4767522
  27.6587601  80.7563957 132.1640760  27.6853742  82.2685873 132.2307490
  33.1659086  79.6860218 137.5934568  32.5082760  80.3759479 137.6814697
  33.9699485  80.0756649 137.9368555  22.9184967  72.1530863 134.8374134
  23.4928719  71.9306045 134.1047327  23.5055950  72.2219558 135.5902735
  31.9764544  78.0404590 135.6438510  32.4896426  78.6734582 136.1460220
  32.6265768  77.4405786 135.2781870  23.2454554  74.1835324 128.8570019
  22.4091867  74.5210011 129.1779294  23.1059324  74.0484304 127.9197156
  25.2207635  69.0272112 133.5649203  24.5672047  68.7121129 132.9405818
  25.1788109  68.4047853 134.2909026  26.3318840  79.3091407 125.4802495
  25.4245902  79.0780661 125.6793644  26.8289872  78.5129027 125.6676477
  29.2386919  88.0188914 128.3999181  28.5648617  88.3220611 129.0084139
  29.6252741  88.8217995 128.0504638  28.4545375  75.5154046 137.8896851
  27.5367937  75.7368993 137.7318539  28.8705519  75.5900356 137.0308558
  29.2380423  76.9145461 133.0199531  29.9852242  77.4266859 132.7106653
  29.5072013  76.5929514 133.8803925  27.5107073  79.4104002 130.0026485
  26.6018292  79.1263035 130.0998955  27.5402157  79.8303081 129.1429792
  32.7426341  83.0210592 133.7717653  32.2888668  82.1801502 133.8282843
  32.1120307  83.6571990 134.1092433  31.6859260  73.9502578 135.0018320
  30.9482017  73.4379964 135.3328563  31.9386034  73.5102959 134.1901597
  31.1859280  84.8587088 134.7067471  31.4782254  85.4192145 133.9879837
  31.6957900  85.1515649 135.4620630  31.7870888  66.7278830 135.5960090
  32.0929764  65.8676193 135.3086005  32.5123492  67.3196450 135.3959083
  18.0795244  77.1309516 133.9841687  17.8819643  76.5378877 133.2592754
  17.5241908  76.8261726 134.7017626  26.0591967  77.0232623 136.1036281
  26.1140577  76.0706459 136.0278757  25.2483169  77.1792062 136.5877579
  27.2083161  80.9512746 127.3414564  26.7702591  80.2348605 126.8820201
  27.9493602  81.1788861 126.7799655  23.9984327  75.6409683 133.8626659
  23.1852193  75.9403853 134.2691852  24.4943321  75.2465371 134.5801142
  26.1492905  85.6367439 135.7960924  26.1069084  85.8628286 134.8669456
  27.0655604  85.4030814 135.9446725  35.3256276  79.2269943 133.3990882
  35.1874174  79.4171539 132.4712072  34.9692495  79.9889326 133.8558934
  35.3525655  81.2946470 138.4102154  35.7862162  81.2021759 139.2585208
  36.0657236  81.2703970 137.7722170  24.2658706  82.5130468 135.5922887
  25.0599304  82.0180789 135.3905462  23.5550398  81.9848332 135.2290592
  29.0853550  84.8948564 139.9435255  29.1390573  85.4639500 140.7112970
  28.2168332  85.0650449 139.5789292  20.5741469  76.6573550 131.6682640
  19.6439057  76.5958006 131.8852602  20.6698941  76.1349503 130.8719281
  20.4927018  73.1828363 134.2560881  20.7533836  74.0973696 134.1470042
  21.3144191  72.7152806 134.4057494  36.2141205  81.3370171 140.9435039
  36.4077095  82.2415981 141.1894314  36.1141823  80.8777590 141.7773624
  31.2756314  81.4876913 146.5175920  31.1241820  81.2587465 145.6006004
  31.2660993  82.4447515 146.5307265  28.0441650  79.0608826 141.5022186
  28.9733710  79.2119986 141.3291154  27.6232680  79.1492847 140.6470833
  26.8429982  83.0859490 139.2720724  26.7041068  82.7178275 140.1446662
  26.0544578  83.6007130 139.1004682  27.4378134  88.1868587 130.6146261
  27.6129890  87.7156630 131.4291883  26.7510922  88.8134353 130.8427521
  28.3935197  82.4641093 136.6609562  28.0585030  82.4241863 137.5567212
  27.8939143  81.7985809 136.1879972  31.3294389  79.8097127 126.9346621
  30.7123559  79.0843956 126.8379674  30.8610877  80.5706488 126.5913696
  32.9848520  84.5196036 144.5952402  32.9261066  83.8355256 143.9282985
  33.3868039  85.2615026 144.1433028  23.1192935  74.0282552 126.0567926
  22.2422401  73.9071353 125.6930172  23.5950688  73.2368630 125.8046814
  32.9865928  82.4835620 142.8266381  32.0992706  82.1461542 142.9492780
  33.5564479  81.7518651 143.0635147  26.3056861  86.3808842 133.3030446
  25.5224382  86.9230522 133.3968671  27.0049606  86.8982822 133.7024687
  29.6153511  72.1903472 135.9464652  30.1122210  71.4373434 135.6265722
  28.8440492  72.2267788 135.3807861  37.4683268  77.8943837 137.5882943
  37.4573144  78.7768553 137.2176876  36.6000648  77.5415388 137.3937480
  28.9765764  87.0423906 141.9485783  29.6893737  87.6771371 141.8761685
  28.4855793  87.1387772 141.1325785  30.6983291  80.9475159 133.5203075
  29.7639570  81.0676621 133.3507779  30.8759960  80.0447626 133.2563085
  26.1988479  74.3320855 135.6736336  25.8286267  73.7791895 136.3617242
  26.6947572  73.7278988 135.1211336  34.0855843  76.7892478 134.0553109
  34.5516295  77.6220470 133.9813412  34.5363343  76.3237460 134.7598368
  32.1532074  83.1336299 131.0539261  32.4291918  83.0192894 131.9633135
  31.2836573  82.7353784 131.0151434  32.0572506  69.1573065 138.0944010
  31.1435585  69.3877292 138.2626217  32.4865607  69.2411509 138.9458043
  31.8278964  77.3462957 140.5943905  31.1750414  77.5938865 139.9396357
  32.2059344  76.5327095 140.2606382  28.7886138  87.3822650 134.6972075
  28.9708532  86.5644306 135.1599827  29.6119124  87.5990342 134.2596965
  29.1228303  86.3090835 131.9587123  29.6516070  85.7983290 131.3457285
  29.3856523  85.9933366 132.8232656  22.4784051  87.3605952 134.7184899
  21.8094427  87.8452080 134.2348939  22.3396921  87.6075173 135.6328278
  17.8471628  75.6224407 131.4980831  18.1425069  74.7135085 131.4447885
  16.9459664  75.6012146 131.1761834  29.7557707  87.3431671 138.3031240
  29.6308847  86.5421411 137.7942185  30.4136798  87.8377864 137.8145210
  21.3765875  73.6980404 137.4808380  20.6552461  74.3116371 137.3415853
  22.1659131  74.2338168 137.4025026  31.8192616  85.1440691 139.9310790
  30.8722951  85.0246042 139.8589117  32.1675389  84.2563189 140.0137051
  19.5759470  73.3038505 131.6220157  19.2472176  72.4235884 131.4395262
  19.9298841  73.2486173 132.5096546  28.8239049  84.9393407 136.1315142
  28.6764011  84.0110115 136.3122712  29.6492542  84.9613498 135.6472217
  22.6901293  73.5911474 131.9895634  23.0297366  74.1197396 131.2674243
  23.1373414  73.9291881 132.7654201  32.4273171  85.7621966 137.2180015
  33.3519718  85.5564827 137.0804466  32.2588474  85.5138367 138.1269356
  24.6769440  72.0886096 130.1888927  25.3977803  72.4667349 129.6852644
  24.0534744  72.8074973 130.2923905  28.8200563  72.7931245 131.1247259
  29.0364178  73.6755883 130.8236087  28.3394630  72.4017458 130.3952901
  23.5599785  75.7516958 137.7018004  23.4144365  76.0657261 138.5942285
  23.0824988  76.3701859 137.1488903  25.4196167  72.7419506 137.7498893
  25.4057736  71.8460600 137.4131191  26.1368596  72.7490170 138.3837179
  32.2168487  86.2807634 132.5742106  32.3905364  85.7154056 131.8215959
  32.7097378  87.0808528 132.3921596  24.8233063  71.6233887 133.0186464
  24.9448975  70.6950533 133.2177351  24.5335106  71.6372573 132.1064779
  27.6924254  69.3088797 136.1553183  27.7145951  69.3728130 135.2005163
  28.1092313  68.4693306 136.3493690  38.0707878  79.0444057 134.1932406
  38.5139024  78.2951382 133.7951529  37.1934388  79.0354193 133.8106138
  33.2043659  85.5974398 129.6739005  33.8994564  86.2181091 129.8926319
  33.5466810  84.7469749 129.9491382  35.1035083  83.0474104 131.2026335
  35.6286407  83.3861376 130.4775655  35.0157435  82.1121119 131.0189470
  26.7875743  89.1146087 135.5621588  26.3480734  88.6222465 136.2554445
  27.5383860  88.5719054 135.3213664  24.2349615  84.6584096 137.6343890
  23.6129625  83.9954801 137.3346118  24.9054482  84.6845228 136.9517538
  34.7928989  83.6807007 146.5077533  34.0024532  83.6631146 145.9682033
  34.5562343  84.2195301 147.2626570  34.9126864  80.5299474 143.8210262
  34.9624869  80.3649481 144.7625785  34.8040787  79.6626733 143.4308143
  23.7963122  83.2088019 131.1102351  23.9451243  83.8923484 130.4569023
  24.6029566  83.1893109 131.6251806  36.4145060  82.9496415 144.0652283
  36.1229869  83.3126396 144.9015744  35.8017192  82.2363423 143.8865615
  37.6140743  80.5149295 136.5854854  38.4487634  80.9539099 136.7492414
  37.7499872  80.0387948 135.7663099  34.6632249  78.0729030 142.5332341
  35.1386370  78.2656676 141.7251193  33.7397814  78.1288216 142.2875725
  21.5515755  79.2353197 132.1163420  21.3061797  78.3315527 132.3143630
  21.7211670  79.2370347 131.1742898  20.8211403  74.9681554 129.6149581
  20.1280648  75.0425909 128.9589617  20.5763155  74.2041898 130.1371098
  27.2958528  85.7036150 128.5814098  26.7232495  86.3226337 128.1284570
  27.8691322  86.2535511 129.1154020  33.3633918  74.9494790 140.7660647
  34.3151341  75.0492887 140.7872871  33.1937368  74.1573058 141.2758731
  31.3848297  72.0350373 140.9520048  30.7898229  72.3155386 140.2566536
  31.0997994  72.5244274 141.7236789  30.5155788  85.9873300 129.7122680
  31.4486461  85.9218861 129.9155556  30.4279000  86.8229567 129.2537213
  33.1443804  85.3039170 126.6726628  33.0657436  84.9699034 127.5662386
  33.9653471  85.7960938 126.6718100  35.8421995  78.1700909 139.8802947
  35.8098316  77.2316910 140.0662630  36.4522619  78.2484946 139.1468771
  27.6805326  77.0396962 125.9230151  28.6264431  76.9103171 125.9918569
  27.3019571  76.3011624 126.3999579  35.9916484  74.9611953 139.9261230
  35.4755533  74.1770410 139.7391159  36.8756433  74.6330670 140.0907749
  33.6527211  68.7052968 135.8857042  33.4552032  68.3968057 136.7700374
  34.2626916  69.4314607 136.0154972  41.6598545  79.2316916 139.0208983
  42.3901934  78.9702204 139.5816687  41.0505491  78.4945638 139.0611051
  39.7413842  77.3724779 139.6183435  39.0147006  77.2380744 139.0099926
  39.3261129  77.6801607 140.4240153  25.8648244  74.9646939 125.8585036
  24.9579699  74.6680052 125.9347749  26.1424225  74.6676757 124.9919322
  16.7826184  76.2853302 136.3084082  16.4628968  75.4318610 136.0158456
  16.2359612  76.5001880 137.0642050  27.4810309  69.5083829 132.0129277
  26.6711038  69.1630914 132.3884523  28.1694726  69.1991372 132.6016889
  29.4100858  68.5861875 133.6353574  29.9631896  69.0057329 134.2943597
  29.6470944  67.6597623 133.6776530  24.6347028  71.8233874 125.9997015
  25.4966192  72.1488772 126.2592832  24.8197372  71.0365370 125.4870081
  32.7879665  70.6962400 133.1432238  32.2078334  71.3547205 132.7610290
  32.5215597  69.8739745 132.7319656  31.2383231  70.0967458 135.3453558
  31.7383009  70.2083993 134.5367877  31.8818839  69.7928511 135.9854367
  18.5651186  79.8374467 136.1543219  18.5421875  79.9362155 135.2025102
  18.8751823  80.6839618 136.4760385  31.5704543  72.8562491 132.1988586
  30.6830398  73.1412142 131.9808781  31.9858532  72.6956254 131.3515863
  34.9219079  72.8809012 135.9142926  35.6979469  73.3705464 136.1867542
  34.1967213  73.3067066 136.3714795  37.3591637  73.5936631 136.9716866
  37.9536128  73.3532367 136.2610174  37.4318221  72.8743762 137.5990402
  30.7147756  82.6207166 126.2936606  31.4183606  82.8257168 126.9094262
  29.9910405  83.1883927 126.5585690  31.5445566  78.3717027 132.4138876
  31.4880768  78.8285578 131.5746509  32.0973909  77.6107711 132.2361719
  35.3550372  74.1606759 133.2388996  35.0987307  73.7603394 134.0697204
  34.7303240  74.8750553 133.1139135  39.6662710  76.9002832 135.7460287
  39.1062268  76.9696021 136.5191849  39.0606214  76.7243817 135.0259784
  32.6234453  83.0589695 128.3435066  33.4580057  82.6270893 128.1612541
  32.4618796  82.8871708 129.2711961  32.2780346  79.5621808 129.7091406
  32.2229149  79.3966079 128.7679850  31.6526401  80.2697841 129.8653595
  25.5876471  69.0629917 129.2876724  25.5755141  70.0071757 129.4444995
  26.4799893  68.8800062 128.9936185  25.5166035  87.7398807 137.3744481
  24.5661666  87.7400669 137.2608853  25.8198521  86.9931542 136.8580515
  29.4028591  65.6572694 133.5422661  28.6360986  65.1031180 133.6879343
  29.8139296  65.7294562 134.4036812  41.2518729  93.5759346 138.4390243
  41.8897139  93.4566093 137.7353583  41.1339571  94.5240190 138.4978195
  38.0608435  93.5286774 138.3751768  37.7226946  93.4127839 137.4872303
  38.9298203  93.1277939 138.3552774  33.9195251  95.3822250 134.3648659
  33.3560116  95.2912187 133.5964946  33.8047646  94.5622155 134.8451151
  38.5428218  94.6821626 144.3337973  38.5316859  94.2874424 143.4618477
  38.7048857  93.9487698 144.9271745  31.4659683  96.8773442 137.2032879
  32.2580974  96.5364267 136.7879179  31.7056333  96.9868417 138.1235033
  39.4994809  99.0493218 129.6763124  38.8482789  99.6347298 129.2897137
  40.2939172  99.5799413 129.7358161  33.4250436  96.1382355 130.0750258
  34.1981312  95.5911342 129.9363134  33.7775835  97.0026605 130.2864719
  36.1891686  94.8435586 139.8718517  36.7855258  94.6191608 139.1575480
  36.2466657  94.1020331 140.4743965  35.7616714  92.2975021 127.7068708
  36.0142235  91.7756543 126.9452171  34.8241273  92.1341167 127.8095392
  40.8059997  91.3010800 135.5143451  41.5923086  90.8830223 135.1633868
  41.0698701  92.2056892 135.6825100  40.9770074  96.7383650 130.2132108
  40.3415907  96.8118277 130.9253013  40.6467481  97.3277249 129.5351187
  46.2068424  91.2386033 136.4176430  46.9393596  90.6685250 136.6514259
  45.4507780  90.8507633 136.8582935  35.4813003  94.2003127 129.9093083
  35.3649261  93.5248031 130.5774167  35.5915263  93.7135501 129.0925236
  37.8244544  93.6613274 133.6139772  37.4602751  93.1343895 134.3252694
  38.6811660  93.2711743 133.4406258  43.7293845  84.9507607 140.8771038
  43.3977169  85.8203018 140.6532253  43.1339458  84.6343891 141.5565069
  37.4650031  88.6903174 128.6101121  37.6324433  89.5583411 128.9771592
  37.2747200  88.8530456 127.6862410  40.2225364  97.1520153 140.2766951
  39.9226087  98.0545192 140.1682758  39.8776424  96.8852336 141.1288104
  33.6737846  93.6033950 136.3103655  32.7488342  93.4710164 136.5181347
  33.9222259  94.3828169 136.8073598  43.6222508  89.6702693 137.9564388
  42.7139385  89.6018102 137.6623149  43.5710104  90.1474638 138.7846214
  37.4439252  91.1460832 129.5947787  37.3238877  91.5917882 130.4333268
  36.7491840  91.4946149 129.0361326  31.0346657  93.2467223 137.1447444
  31.1639038  93.5001702 138.0586856  30.3544108  93.8394931 136.8252100
  35.2046144 103.9164473 133.2437919  35.1270174 104.8672298 133.3226399
  34.6007787 103.5710346 133.9012845  37.6963374  91.0892339 145.8999286
  36.9196708  91.6486259 145.8902150  38.3353937  91.5749122 146.4214156
  45.4884154  87.8719132 139.7342262  44.8458535  88.1651665 139.0882057
  44.9839083  87.7572052 140.5395459  43.1424318  91.6182305 130.4228121
  44.0542174  91.8509692 130.2475819  42.6333965  92.2019349 129.8603200
  41.4265086  96.0406933 144.0589414  41.8348442  95.5989343 143.3144046
  40.7042347  95.4659560 144.3123607  37.7796156  90.9779539 141.4322971
  38.6257351  91.4018953 141.5757620  37.7194793  90.3213164 142.1261534
  41.7493900  96.6008123 137.8141703  41.1202763  96.7653837 137.1117771
  41.3619562  97.0149733 138.5852667  45.6283132  97.5362561 135.1686067
  44.9434170  97.9161462 134.6183100  45.7126981  98.1457888 135.9018014
  40.9295601  88.6383908 143.0904145  40.6856533  89.3925968 142.5538420
  41.2055531  89.0169255 143.9251392  42.8834064  95.1822520 141.7681410
  43.0950959  95.8254280 141.0915791  42.8363812  94.3484837 141.3003340
  40.4860293  87.7940341 138.6717982  39.6244772  88.0921594 138.9634720
  40.5122727  88.0110740 137.7399015  37.3021862  96.3382531 135.0791788
  37.7660208  96.6170234 134.2896411  37.0378660  95.4365976 134.8964879
  34.1945943  95.8854013 138.0171551  34.7647300  96.3141281 137.3789036
  34.7854055  95.6036598 138.7155737  36.2390748  92.4605684 131.8881353
  36.9414792  92.9126727 132.3555280  35.9071377  91.8189503 132.5161246
  29.9816082  90.7189236 137.1898487  29.1915136  90.9746765 136.7138597
  30.4727330  91.5337574 137.2950527  43.9979892  98.0594476 139.9403768
  44.8197335  97.6574663 139.6586449  43.9942295  97.9562710 140.8919883
  31.9330828  91.0833816 134.1481963  31.1361991  91.1952510 134.6665459
  31.7056420  91.4220468 133.2822854  52.0885885  94.4033224 136.2888739
  51.3349593  93.8340622 136.1332743  52.2233426  94.3695889 137.2359374
  37.4784513  99.2746626 131.9643458  37.3430188 100.1198162 132.3928306
  38.0194325  99.4765904 131.2009392  30.9313910  96.7922064 132.5371383
  31.4438431  97.5865315 132.6876948  31.5836623  96.0948355 132.4704985
  32.7408795  99.9087821 134.6194137  32.9175423 100.8305785 134.4315121
  33.5365628  99.5946240 135.0488516  36.8819813  86.7696085 146.2178070
  37.6229527  87.3703238 146.1382533  37.1137736  86.0273723 145.6596113
  41.2034227 100.1772993 144.1225202  41.1852703 100.9981874 143.6305471
  42.1254147 100.0527068 144.3475343  40.8276976  82.7977188 140.4942352
  40.4841246  83.6878830 140.4181462  41.1955939  82.6078846 139.6311937
  28.8962827  95.1210719 133.3130954  29.7338049  95.5307727 133.0964662
  29.0741095  94.1810161 133.2831148  40.7927259  92.7885799 129.0014787
  40.2773883  93.5590404 129.2403174  40.5204568  92.1150935 129.6247848
  38.3774370  87.6335500 134.0600025  37.5215966  87.2442350 133.8805664
  38.7901322  87.7127461 133.1999811  39.9073517  85.1681843 138.4591585
  39.4038312  85.1311979 137.6459390  40.2004124  86.0774586 138.5188242
  36.1516403  85.2520573 137.4657767  37.0169399  85.0563382 137.1063656
  36.2193912  85.0230925 138.3927124  45.7661533  95.5418154 130.9367960
  44.9890976  95.2029313 130.4923123  46.4453014  95.5470777 130.2622926
  40.5813562  90.6612891 130.8274568  40.2763698  90.9759041 131.6784711
  41.5344004  90.7394311 130.8701901  39.0259994  96.8203115 132.4767522
  38.4981356  96.0855874 132.1640760  38.5247497  97.5977791 132.2307490
  44.0052840  95.0152135 137.5934568  43.3476515  95.7051397 137.6814697
  44.8093239  95.4048567 137.9368555  33.7578722  87.4822781 134.8374134
  34.3322474  87.2597962 134.1047327  34.3449704  87.5511476 135.5902735
  42.8158299  93.3696508 135.6438510  43.3290181  94.0026500 136.1460220
  43.4659523  92.7697703 135.2781870  34.0848309  89.5127242 128.8570019
  33.2485621  89.8501929 129.1779294  33.9453078  89.3776222 127.9197156
  36.0601389  84.3564030 133.5649203  35.4065802  84.0413047 132.9405818
  36.0181864  83.7339770 134.2909026  37.1712594  94.6383325 125.4802495
  36.2639656  94.4072578 125.6793644  37.6683626  93.8420944 125.6676477
  40.0780673 103.3480832 128.3999181  39.4042372 103.6512529 129.0084139
  40.4646495 104.1509913 128.0504638  39.2939130  90.8445963 137.8896851
  38.3761691  91.0660910 137.7318539  39.7099273  90.9192274 137.0308558
  40.0774178  92.2437379 133.0199531  40.8245996  92.7558776 132.7106653
  40.3465767  91.9221432 133.8803925  38.3500828  94.7395920 130.0026485
  37.4412047  94.4554953 130.0998955  38.3795912  95.1594998 129.1429792
  43.5820095  98.3502509 133.7717653  43.1282422  97.5093419 133.8282843
  42.9514062  98.9863908 134.1092433  42.5253015  89.2794495 135.0018320
  41.7875772  88.7671882 135.3328563  42.7779788  88.8394877 134.1901597
  42.0253034 100.1879006 134.7067471  42.3176009 100.7484063 133.9879837
  42.5351655 100.4807567 135.4620630  42.6264642  82.0570747 135.5960090
  42.9323519  81.1968111 135.3086005  43.3517247  82.6488368 135.3959083
  28.9188998  92.4601434 133.9841687  28.7213398  91.8670795 133.2592754
  28.3635662  92.1553644 134.7017626  36.8985722  92.3524540 136.1036281
  36.9534332  91.3998377 136.0278757  36.0876924  92.5083980 136.5877579
  38.0476916  96.2804664 127.3414564  37.6096345  95.5640522 126.8820201
  38.7887356  96.5080778 126.7799655  34.8378082  90.9701600 133.8626659
  34.0245947  91.2695771 134.2691852  35.3337076  90.5757289 134.5801142
  36.9886660 100.9659357 135.7960924  36.9462838 101.1920203 134.8669456
  37.9049358 100.7322732 135.9446725  40.4352293  91.4343425 142.6941553
  40.7901681  91.6614898 143.5536019  41.0824425  91.7661801 142.0718809
  46.1650030  94.5561861 133.3990882  46.0267929  94.7463457 132.4712072
  45.8086249  95.3181243 133.8558934  34.3292156  88.5419956 139.4787894
  34.9691536  88.4008715 138.7810858  33.4969687  88.2554469 139.1026496
  46.1919410  96.6238388 138.4102154  46.6255917  96.5313677 139.2585208
  46.9050991  96.5995888 137.7722170  35.1052460  97.8422386 135.5922887
  35.8993059  97.3472706 135.3905462  34.3944153  97.3140249 135.2290592
  39.9247305 100.2240482 139.9435255  39.9784327 100.7931418 140.7112970
  39.0562086 100.3942367 139.5789292  31.4135224  91.9865468 131.6682640
  30.4832812  91.9249923 131.8852602  31.5092696  91.4641421 130.8719281
  31.3320773  88.5120281 134.2560881  31.5927590  89.4265614 134.1470042
  32.1537945  88.0444723 134.4057494  32.8045698  89.9258038 141.4259706
  33.4768752  89.7175400 140.7772355  31.9775485  89.7280124 140.9864938
  47.0534959  96.6662088 140.9435039  47.2470850  97.5707899 141.1894314
  46.9535578  96.2069507 141.7773624  38.7071270  86.5519979 143.4425367
  38.0599185  87.2509928 143.3489843  39.4772286  86.9856123 143.8101615
  42.1150068  96.8168831 146.5175920  41.9635575  96.5879383 145.6006004
  42.1054748  97.7739432 146.5307265  38.8835405  94.3900744 141.5022186
  39.8127465  94.5411903 141.3291154  38.4626435  94.4784764 140.6470833
  37.6823736  98.4151408 139.2720724  37.5434822  98.0470193 140.1446662
  36.8938333  98.9299048 139.1004682  38.2771888 103.5160505 130.6146261
  38.4523644 103.0448548 131.4291883  37.5904676 104.1426271 130.8427521
  39.2328951  97.7933011 136.6609562  38.8978784  97.7533781 137.5567212
  38.7332897  97.1277727 136.1879972  42.1688143  95.1389045 126.9346621
  41.5517314  94.4135873 126.8379674  41.7004632  95.8998405 126.5913696
  35.8355496  92.9120600 141.6745823  36.5455115  92.2713792 141.6332441
  35.7924804  93.1633495 142.5972003  43.8242275  99.8487954 144.5952402
  43.7654821  99.1647174 143.9282985  44.2261793 100.5906944 144.1433028
  34.5484430  89.8985818 143.4941462  34.0121787  89.4476557 144.1463058
  33.9601139  90.0331727 142.7511926  33.9586689  89.3574469 126.0567926
  33.0816155  89.2363270 125.6930172  34.4344442  88.5660548 125.8046814
  43.8259682  97.8127537 142.8266381  42.9386461  97.4753459 142.9492780
  44.3958233  97.0810569 143.0635147  30.2823551  89.0341826 140.5794457
  30.1981740  88.4267495 139.8444866  29.4606258  89.5250844 140.5803953
  37.1450615 101.7100760 133.3030446  36.3618137 102.2522440 133.3968671
  37.8443360 102.2274739 133.7024687  40.4547265  87.5195389 135.9464652
  40.9515965  86.7665352 135.6265722  39.6834247  87.5559706 135.3807861
  48.3077023  93.2235755 137.5882943  48.2966899  94.1060470 137.2176876
  47.4394402  92.8707306 137.3937480  39.8159519 102.3715824 141.9485783
  40.5287491 103.0063289 141.8761685  39.3249548 102.4679690 141.1325785
  41.5377046  96.2767077 133.5203075  40.6033325  96.3968539 133.3507779
  41.7153714  95.3739543 133.2563085  37.0382234  89.6612772 135.6736336
  36.6680021  89.1083813 136.3617242  37.5341326  89.0570906 135.1211336
  44.9249597  92.1184396 134.0553109  45.3910049  92.9512387 133.9813412
  45.3757098  91.6529377 134.7598368  42.9925828  98.4628217 131.0539261
  43.2685672  98.3484812 131.9633135  42.1230327  98.0645702 131.0151434
  42.8966260  84.4864983 138.0944010  41.9829340  84.7169210 138.2626217
  43.3259361  84.5703427 138.9458043  42.6672718  92.6754875 140.5943905
  42.0144169  92.9230782 139.9396357  43.0453098  91.8619013 140.2606382
  39.6279892 102.7114568 134.6972075  39.8102287 101.8936224 135.1599827
  40.4512878 102.9282260 134.2596965  39.9622058 101.6382753 131.9587123
  40.4909824 101.1275208 131.3457285  40.2250277 101.3225283 132.8232656
  33.3177806 102.6897870 134.7184899  32.6488181 103.1743997 134.2348939
  33.1790675 102.9367090 135.6328278  32.4347568  87.0716763 141.9189442
  32.4988894  87.9331594 141.5066840  32.3714688  86.4590765 141.1861801
  28.6865383  90.9516325 131.4980831  28.9818824  90.0427003 131.4447885
  27.7853419  90.9304064 131.1761834  40.5951462 102.6723589 138.3031240
  40.4702601 101.8713329 137.7942185  41.2530553 103.1669782 137.8145210
  32.2159630  89.0272321 137.4808380  31.4946216  89.6408289 137.3415853
  33.0052886  89.5630086 137.4025026  42.6586370 100.4732609 139.9310790
  41.7116706 100.3537960 139.8589117  43.0069143  99.5855107 140.0137051
  35.0185943  86.3626748 143.7549032  35.5420345  86.6089044 144.5175341
  34.7998277  87.1946783 143.3352169  30.4153224  88.6330422 131.6220157
  30.0865931  87.7527801 131.4395262  30.7692595  88.5778091 132.5096546
  39.6632803 100.2685325 136.1315142  39.5157766  99.3402032 136.3122712
  40.4886297 100.2905416 135.6472217  33.5295048  88.9203392 131.9895634
  33.8691120  89.4489313 131.2674243  33.9767168  89.2583798 132.7654201
  43.2666925 101.0913884 137.2180015  44.1913473 100.8856745 137.0804466
  43.0982229 100.8430285 138.1269356  36.2238488  87.3040443 141.4398702
  35.8835309  86.5048256 141.8419382  35.5177495  87.6042154 140.8675535
  36.8754960  84.3889755 139.8926025  37.6981030  83.9150234 139.7704916
  37.1193024  85.1680239 140.3924712  35.5163195  87.4178014 130.1888927
  36.2371557  87.7959267 129.6852644  34.8928499  88.1366891 130.2923905
  39.6594318  88.1223163 131.1247259  39.8757932  89.0047801 130.8236087
  39.1788385  87.7309376 130.3952901  34.3993539  91.0808876 137.7018004
  34.2538120  91.3949179 138.5942285  33.9218743  91.6993776 137.1488903
  36.2589922  88.0711424 137.7498893  36.2451491  87.1752517 137.4131191
  36.9762350  88.0782088 138.3837179  38.1116053  88.5048764 139.7952021
  37.8533830  89.4265835 139.7936351  37.5801093  88.1079199 140.4852485
  43.0562241 101.6099551 132.5742106  43.2299119 101.0445974 131.8215959
  43.5491133 102.4100446 132.3921596  35.6626818  86.9525804 133.0186464
  35.7842729  86.0242450 133.2177351  35.3728860  86.9664490 132.1064779
  38.5318008  84.6380715 136.1553183  38.5539705  84.7020048 135.2005163
  38.9486067  83.7985223 136.3493690  48.9101633  94.3735974 134.1932406
  49.3532779  93.6243299 133.7951529  48.0328143  94.3646111 133.8106138
  44.0437414 100.9266316 129.6739005  44.7388319 101.5473008 129.8926319
  44.3860564 100.0761667 129.9491382  45.9428837  98.3766021 131.2026335
  46.4680161  98.7153294 130.4775655  45.8551190  97.4413037 131.0189470
  37.6269498 104.4438004 135.5621588  37.1874488 103.9514383 136.2554445
  38.3777615 103.9010972 135.3213664  35.0743370  99.9876014 137.6343890
  34.4523379  99.3246719 137.3346118  35.7448237 100.0137145 136.9517538
  45.6322743  99.0098925 146.5077533  44.8418287  98.9923064 145.9682033
  45.3956098  99.5487219 147.2626570  45.7520618  95.8591391 143.8210262
  45.8018623  95.6941399 144.7625785  45.6434541  94.9918650 143.4308143
  34.6356877  98.5379937 131.1102351  34.7844997  99.2215401 130.4569023
  35.4423320  98.5185027 131.6251806  43.0424381  91.8422319 145.1369569
  43.9434243  91.7028784 144.8453566  43.1172355  92.0076774 146.0767746
  37.3767186  89.2189174 143.9822755  36.5070495  89.5122740 143.7105343
  37.6126666  89.8029619 144.7030018  47.2538815  98.2788333 144.0652283
  46.9623623  98.6418313 144.9015744  46.6410946  97.5655341 143.8865615
  48.4534497  95.8441213 136.5854854  49.2881389  96.2831017 136.7492414
  48.5893626  95.3679866 135.7663099  45.5026003  93.4020947 142.5332341
  45.9780125  93.5948594 141.7251193  44.5791569  93.4580133 142.2875725
  32.3909510  94.5645115 132.1163420  32.1455552  93.6607445 132.3143630
  32.5605424  94.5662265 131.1742898  40.0806220  85.4368791 141.4988175
  40.5988164  86.1729818 141.1734664  39.7261352  85.7432784 142.3334934
  31.6605157  90.2973472 129.6149581  30.9674402  90.3717827 128.9589617
  31.4156909  89.5333816 130.1371098  40.3318814  81.8569073 137.0189072
  40.6120568  81.1892263 137.6449498  41.1169421  82.0498169 136.5063736
  38.1352282 101.0328067 128.5814098  37.5626249 101.6518254 128.1284570
  38.7085076 101.5827429 129.1154020  44.2027672  90.2786707 140.7660647
  45.1545095  90.3784805 140.7872871  44.0331123  89.4864976 141.2758731
  42.2242052  87.3642291 140.9520048  41.6291984  87.6447303 140.2566536
  41.9391748  87.8536192 141.7236789  41.3549542 101.3165217 129.7122680
  42.2880215 101.2510779 129.9155556  41.2672755 102.1521484 129.2537213
  43.9837559 100.6331088 126.6726628  43.9051190 100.2990951 127.5662386
  44.8047226 101.1252856 126.6718100  46.6815750  93.4992827 139.8802947
  46.6492070  92.5608828 140.0662630  47.2916374  93.5776864 139.1468771
  38.5199081  92.3688880 125.9230151  39.4658186  92.2395088 125.9918569
  38.1413326  91.6303542 126.3999579  46.8310238  90.2903871 139.9261230
  46.3149287  89.5062327 139.7391159  47.7150187  89.9622587 140.0907749
  44.4920965  84.0344886 135.8857042  44.2945787  83.7259974 136.7700374
  45.1020671  84.7606525 136.0154972  52.4992300  94.5608834 139.0208983
  53.2295688  94.2994122 139.5816687  51.8899245  93.8237556 139.0611051
  50.5807597  92.7016697 139.6183435  49.8540761  92.5672661 139.0099926
  50.1654884  93.0093525 140.4240153  36.7041998  90.2938856 125.8585036
  35.7973453  89.9971969 125.9347749  36.9817979  89.9968675 124.9919322
  27.6219938  91.6145220 136.3084082  27.3022723  90.7610528 136.0158456
  27.0753367  91.8293798 137.0642050  38.3204064  84.8375746 132.0129277
  37.5104792  84.4922831 132.3884523  39.0088481  84.5283290 132.6016889
  40.2494612  83.9153793 133.6353574  40.8025651  84.3349246 134.2943597
  40.4864698  82.9889541 133.6776530  35.4740783  87.1525792 125.9997015
  36.3359947  87.4780690 126.2592832  35.6591127  86.3657288 125.4870081
  43.6273419  86.0254318 133.1432238  43.0472088  86.6839122 132.7610290
  43.3609352  85.2031663 132.7319656  42.0776985  85.4259376 135.3453558
  42.5776764  85.5375910 134.5367877  42.7212593  85.1220429 135.9854367
  29.4044941  95.1666385 136.1543219  29.3815629  95.2654072 135.2025102
  29.7145577  96.0131536 136.4760385  42.4098297  88.1854409 132.1988586
  41.5224152  88.4704059 131.9808781  42.8252286  88.0248172 131.3515863
  45.7612833  88.2100930 135.9142926  46.5373223  88.6997382 136.1867542
  45.0360967  88.6358984 136.3714795  48.1985392  88.9228549 136.9716866
  48.7929883  88.6824285 136.2610174  48.2711976  88.2035679 137.5990402
  41.5541511  97.9499083 126.2936606  42.2577361  98.1549086 126.9094262
  40.8304159  98.5175845 126.5585690  42.3839321  93.7008944 132.4138876
  42.3274522  94.1577496 131.5746509  42.9367663  92.9399629 132.2361719
  46.1944127  89.4898676 133.2388996  45.9381061  89.0895312 134.0697204
  45.5696995  90.2042470 133.1139135  50.5056465  92.2294750 135.7460287
  49.9456023  92.2987939 136.5191849  49.8999968  92.0535734 135.0259784
  43.4628208  98.3881612 128.3435066  44.2973812  97.9562811 128.1612541
  43.3012551  98.2163626 129.2711961  43.1174100  94.8913726 129.7091406
  43.0622904  94.7257997 128.7679850  42.4920155  95.5989759 129.8653595
  36.4270226  84.3921835 129.2876724  36.4148895  85.3363675 129.4444995
  37.3193647  84.2091980 128.9936185  36.3559790 103.0690725 137.3744481
  35.4055421 103.0692587 137.2608853  36.6592276 102.3223460 136.8580515
  40.2422345  80.9864611 133.5422661  39.4754741  80.4323098 133.6879343
  40.6533050  81.0586480 134.4036812  52.0912483 108.9051264 138.4390243
  52.7290893 108.7858011 137.7353583  51.9733326 109.8532107 138.4978195
  48.9002189 108.8578692 138.3751768  48.5620701 108.7419756 137.4872303
  49.7691958 108.4569857 138.3552774  44.7589005 110.7114168 134.3648659
  44.1953870 110.6204105 133.5964946  44.6441400 109.8914073 134.8451151
  42.3053437 112.2065360 137.2032879  43.0974729 111.8656184 136.7879179
  42.5450087 112.3160335 138.1235033  50.3388564 114.3785136 129.6763124
  49.6876544 114.9639216 129.2897137  51.1332927 114.9091331 129.7358161
  44.2644191 111.4674273 130.0750258  45.0375067 110.9203260 129.9363134
  44.6169590 112.3318522 130.2864719  47.0285440 110.1727504 139.8718517
  47.6249013 109.9483526 139.1575480  47.0860412 109.4312249 140.4743965
  46.6010469 107.6266939 127.7068708  46.8535989 107.1048460 126.9452171
  45.6635028 107.4633084 127.8095392  51.6453752 106.6302717 135.5143451
  52.4316841 106.2122141 135.1633868  51.9092456 107.5348810 135.6825100
  51.8163829 112.0675568 130.2132108  51.1809662 112.1410194 130.9253013
  51.4861235 112.6569167 129.5351187  57.0462179 106.5677951 136.4176430
  57.7787351 105.9977167 136.6514259  56.2901534 106.1799551 136.8582935
  46.3206757 109.5295045 129.9093083  46.2043016 108.8539948 130.5774167
  46.4309017 109.0427419 129.0925236  48.6638298 108.9905192 133.6139772
  48.2996506 108.4635813 134.3252694  49.5205414 108.6003661 133.4406258
  54.5687599 100.2799525 140.8771038  54.2370924 101.1494936 140.6532253
  53.9733212  99.9635809 141.5565069  48.3043785 104.0195092 128.6101121
  48.4718188 104.8875328 128.9771592  48.1140954 104.1822373 127.6862410
  51.0619119 112.4812071 140.2766951  50.7619842 113.3837109 140.1682758
  50.7170178 112.2144254 141.1288104  44.5131600 108.9325868 136.3103655
  43.5882097 108.8002082 136.5181347  44.7616013 109.7120087 136.8073598
  54.4616262 104.9994611 137.9564388  53.5533140 104.9310019 137.6623149
  54.4103858 105.4766556 138.7846214  48.2833006 106.4752749 129.5947787
  48.1632631 106.9209800 130.4333268  47.5885595 106.8238067 129.0361326
  41.8740411 108.5759141 137.1447444  42.0032792 108.8293620 138.0586856
  41.1937862 109.1686849 136.8252100  46.0439898 119.2456391 133.2437919
  45.9663928 120.1964216 133.3226399  45.4401542 118.9002264 133.9012845
  56.3277909 103.2011049 139.7342262  55.6852289 103.4943582 139.0882057
  55.8232837 103.0863970 140.5395459  53.9818072 106.9474222 130.4228121
  54.8935929 107.1801609 130.2475819  53.4727719 107.5311267 129.8603200
  48.6189910 106.3071457 141.4322971  49.4651105 106.7310871 141.5757620
  48.5588548 105.6505081 142.1261534  52.5887655 111.9300041 137.8141703
  51.9596517 112.0945755 137.1117771  52.2013317 112.3441650 138.5852667
  56.4676887 112.8654479 135.1686067  55.7827925 113.2453380 134.6183100
  56.5520736 113.4749805 135.9018014  51.7689355 103.9675825 143.0904145
  51.5250287 104.7217886 142.5538420  52.0449286 104.3461173 143.9251392
  51.3254047 103.1232258 138.6717982  50.4638526 103.4213512 138.9634720
  51.3516482 103.3402657 137.7399015  48.1415617 111.6674449 135.0791788
  48.6053962 111.9462152 134.2896411  47.8772415 110.7657894 134.8964879
  45.0339698 111.2145931 138.0171551  45.6041055 111.6433199 137.3789036
  45.6247810 110.9328515 138.7155737  47.0784503 107.7897601 131.8881353
  47.7808546 108.2418645 132.3555280  46.7465131 107.1481420 132.5161246
  40.8209837 106.0481154 137.1898487  40.0308891 106.3038683 136.7138597
  41.3121084 106.8629492 137.2950527  42.7724582 106.4125733 134.1481963
  41.9755745 106.5244428 134.6665459  42.5450174 106.7512385 133.2822854
  62.9279639 109.7325142 136.2888739  62.1743348 109.1632540 136.1332743
  63.0627180 109.6987806 137.2359374  48.3178267 114.6038544 131.9643458
  48.1823942 115.4490080 132.3928306  48.8588080 114.8057822 131.2009392
  41.7707665 112.1213982 132.5371383  42.2832185 112.9157232 132.6876948
  42.4230378 111.4240272 132.4704985  43.5802549 115.2379738 134.6194137
  43.7569178 116.1597703 134.4315121  44.3759383 114.9238158 135.0488516
  47.7213568 102.0988003 146.2178070  48.4623281 102.6995156 146.1382533
  47.9531491 101.3565641 145.6596113  51.6670731  98.1269106 140.4942352
  51.3235000  99.0170748 140.4181462  52.0349693  97.9370764 139.6311937
  39.7356581 110.4502636 133.3130954  40.5731803 110.8599645 133.0964662
  39.9134849 109.5102078 133.2831148  51.6321014 108.1177717 129.0014787
  51.1167637 108.8882322 129.2403174  51.3598322 107.4442853 129.6247848
  49.2168125 102.9627418 134.0600025  48.3609721 102.5734268 133.8805664
  49.6295076 103.0419379 133.1999811  50.7467271 100.4973761 138.4591585
  50.2432067 100.4603896 137.6459390  51.0397878 101.4066504 138.5188242
  46.9910157 100.5812491 137.4657767  47.8563154 100.3855299 137.1063656
  47.0587666 100.3522843 138.3927124  56.6055288 110.8710072 130.9367960
  55.8284730 110.5321231 130.4923123  57.2846769 110.8762695 130.2622926
  51.4207317 105.9904809 130.8274568  51.1157452 106.3050958 131.6784711
  52.3737759 106.0686229 130.8701901  49.8653749 112.1495032 132.4767522
  49.3375110 111.4147792 132.1640760  49.3641251 112.9269709 132.2307490
  54.8446595 110.3444053 137.5934568  54.1870269 111.0343314 137.6814697
  55.6486994 110.7340485 137.9368555  44.5972476 102.8114699 134.8374134
  45.1716228 102.5889880 134.1047327  45.1843459 102.8803393 135.5902735
  53.6552053 108.6988426 135.6438510  54.1683935 109.3318417 136.1460220
  54.3053277 108.0989621 135.2781870  44.9242063 104.8419160 128.8570019
  44.0879376 105.1793846 129.1779294  44.7846833 104.7068139 127.9197156
  46.8995144  99.6855948 133.5649203  46.2459556  99.3704965 132.9405818
  46.8575618  99.0631688 134.2909026  48.0106349 109.9675243 125.4802495
  47.1033411 109.7364496 125.6793644  48.5077381 109.1712862 125.6676477
  50.9174428 118.6772750 128.3999181  50.2436126 118.9804447 129.0084139
  51.3040250 119.4801830 128.0504638  50.1332884 106.1737881 137.8896851
  49.2155446 106.3952828 137.7318539  50.5493028 106.2484192 137.0308558
  50.9167932 107.5729297 133.0199531  51.6639751 108.0850694 132.7106653
  51.1859522 107.2513350 133.8803925  49.1894582 110.0687838 130.0026485
  48.2805801 109.7846870 130.0998955  49.2189666 110.4886916 129.1429792
  54.4213850 113.6794427 133.7717653  53.9676177 112.8385337 133.8282843
  53.7907816 114.3155825 134.1092433  53.3646769 104.6086413 135.0018320
  52.6269526 104.0963799 135.3328563  53.6173543 104.1686795 134.1901597
  52.8646789 115.5170924 134.7067471  53.1569763 116.0775981 133.9879837
  53.3745409 115.8099485 135.4620630  53.4658397  97.3862665 135.5960090
  53.7717273  96.5260028 135.3086005  54.1911001  97.9780285 135.3959083
  39.7582753 107.7893352 133.9841687  39.5607152 107.1962712 133.2592754
  39.2029417 107.4845562 134.7017626  47.7379476 107.6816458 136.1036281
  47.7928086 106.7290295 136.0278757  46.9270678 107.8375897 136.5877579
  48.8870670 111.6096581 127.3414564  48.4490100 110.8932440 126.8820201
  49.6281111 111.8372696 126.7799655  45.6771836 106.2993518 133.8626659
  44.8639702 106.5987688 134.2691852  46.1730830 105.9049207 134.5801142
  47.8280414 116.2951275 135.7960924  47.7856593 116.5212121 134.8669456
  48.7443113 116.0614649 135.9446725  51.2746048 106.7635342 142.6941553
  51.6295436 106.9906815 143.5536019  51.9218179 107.0953719 142.0718809
  57.0043785 109.8853778 133.3990882  56.8661683 110.0755374 132.4712072
  56.6480004 110.6473161 133.8558934  45.1685911 103.8711873 139.4787894
  45.8085290 103.7300632 138.7810858  44.3363441 103.5846387 139.1026496
  45.9446215 113.1714304 135.5922887  46.7386813 112.6764624 135.3905462
  45.2337907 112.6432167 135.2290592  42.2528978 107.3157386 131.6682640
  41.3226566 107.2541841 131.8852602  42.3486450 106.7933338 130.8719281
  42.1714527 103.8412198 134.2560881  42.4321345 104.7557532 134.1470042
  42.9931700 103.3736641 134.4057494  43.6439453 105.2549956 141.4259706
  44.3162506 105.0467318 140.7772355  42.8169239 105.0572042 140.9864938
  49.5465025 101.8811896 143.4425367  48.8992940 102.5801846 143.3489843
  50.3166040 102.3148040 143.8101615  49.7229159 109.7192661 141.5022186
  50.6521219 109.8703821 141.3291154  49.3020189 109.8076682 140.6470833
  48.5217491 113.7443326 139.2720724  48.3828577 113.3762110 140.1446662
  47.7332087 114.2590965 139.1004682  49.1165643 118.8452422 130.6146261
  49.2917398 118.3740465 131.4291883  48.4298431 119.4718188 130.8427521
  50.0722706 113.1224928 136.6609562  49.7372539 113.0825698 137.5567212
  49.5726652 112.4569644 136.1879972  53.0081898 110.4680963 126.9346621
  52.3911068 109.7427791 126.8379674  52.5398386 111.2290323 126.5913696
  46.6749251 108.2412518 141.6745823  47.3848869 107.6005710 141.6332441
  46.6318559 108.4925413 142.5972003  45.3878185 105.2277736 143.4941462
  44.8515542 104.7768474 144.1463058  44.7994893 105.3623645 142.7511926
  44.7980444 104.6866387 126.0567926  43.9209910 104.5655188 125.6930172
  45.2738197 103.8952465 125.8046814  41.1217306 104.3633743 140.5794457
  41.0375495 103.7559413 139.8444866  40.3000012 104.8542762 140.5803953
  47.9844370 117.0392678 133.3030446  47.2011891 117.5814358 133.3968671
  48.6837115 117.5566657 133.7024687  51.2941020 102.8487307 135.9464652
  51.7909719 102.0957269 135.6265722  50.5228001 102.8851624 135.3807861
  59.1470777 108.5527672 137.5882943  59.1360653 109.4352388 137.2176876
  58.2788157 108.1999223 137.3937480  52.3770800 111.6058994 133.5203075
  51.4427079 111.7260457 133.3507779  52.5547469 110.7031461 133.2563085
  47.8775988 104.9904690 135.6736336  47.5073776 104.4375730 136.3617242
  48.3735081 104.3862823 135.1211336  55.7643352 107.4476313 134.0553109
  56.2303804 108.2804305 133.9813412  56.2150852 106.9821295 134.7598368
  53.8319583 113.7920135 131.0539261  54.1079427 113.6776729 131.9633135
  52.9624082 113.3937620 131.0151434  53.7360014  99.8156900 138.0944010
  52.8223094 100.0461127 138.2626217  54.1653116  99.8995345 138.9458043
  53.5066473 108.0046792 140.5943905  52.8537923 108.2522700 139.9396357
  53.8846853 107.1910931 140.2606382  50.4673647 118.0406486 134.6972075
  50.6496041 117.2228142 135.1599827  51.2906633 118.2574178 134.2596965
  50.8015812 116.9674671 131.9587123  51.3303579 116.4567125 131.3457285
  51.0644032 116.6517201 132.8232656  44.1571560 118.0189787 134.7184899
  43.4881936 118.5035915 134.2348939  44.0184430 118.2659008 135.6328278
  43.2741322 102.4008681 141.9189442  43.3382649 103.2623512 141.5066840
  43.2108442 101.7882682 141.1861801  39.5259137 106.2808242 131.4980831
  39.8212578 105.3718921 131.4447885  38.6247173 106.2595982 131.1761834
  43.0553384 104.3564239 137.4808380  42.3339970 104.9700207 137.3415853
  43.8446640 104.8922004 137.4025026  45.8579698 101.6918665 143.7549032
  46.3814100 101.9380962 144.5175341  45.6392031 102.5238700 143.3352169
  41.2546979 103.9622340 131.6220157  40.9259685 103.0819719 131.4395262
  41.6086350 103.9070009 132.5096546  50.5026558 115.5977243 136.1315142
  50.3551520 114.6693950 136.3122712  51.3280051 115.6197333 135.6472217
  44.3688802 104.2495310 131.9895634  44.7084875 104.7781231 131.2674243
  44.8160923 104.5875716 132.7654201  47.0632243 102.6332361 141.4398702
  46.7229063 101.8340174 141.8419382  46.3571249 102.9334071 140.8675535
  47.7148715  99.7181673 139.8926025  48.5374784  99.2442151 139.7704916
  47.9586778 100.4972157 140.3924712  46.3556949 102.7469931 130.1888927
  47.0765312 103.1251184 129.6852644  45.7322253 103.4658808 130.2923905
  50.4988072 103.4515080 131.1247259  50.7151687 104.3339718 130.8236087
  50.0182139 103.0601294 130.3952901  45.2387294 106.4100794 137.7018004
  45.0931874 106.7241097 138.5942285  44.7612497 107.0285694 137.1488903
  47.0983676 103.4003342 137.7498893  47.0845245 102.5044435 137.4131191
  47.8156105 103.4074005 138.3837179  48.9509807 103.8340682 139.7952021
  48.6927585 104.7557752 139.7936351  48.4194848 103.4371116 140.4852485
  53.8955996 116.9391469 132.5742106  54.0692873 116.3737891 131.8215959
  54.3884887 117.7392364 132.3921596  46.5020572 102.2817722 133.0186464
  46.6236484 101.3534368 133.2177351  46.2122615 102.2956408 132.1064779
  49.3711763  99.9672632 136.1553183  49.3933460 100.0311965 135.2005163
  49.7879822  99.1277141 136.3493690  59.7495387 109.7027892 134.1932406
  60.1926533 108.9535217 133.7951529  58.8721897 109.6938028 133.8106138
  54.8831168 116.2558233 129.6739005  55.5782073 116.8764926 129.8926319
  55.2254319 115.4053585 129.9491382  56.7822592 113.7057939 131.2026335
  57.3073916 114.0445212 130.4775655  56.6944944 112.7704954 131.0189470
  48.4663252 119.7729922 135.5621588  48.0268243 119.2806301 136.2554445
  49.2171369 119.2302890 135.3213664  45.9137124 115.3167931 137.6343890
  45.2917134 114.6538636 137.3346118  46.5841991 115.3429063 136.9517538
  45.4750631 113.8671855 131.1102351  45.6238752 114.5507319 130.4569023
  46.2817075 113.8476945 131.6251806  48.2160940 104.5481092 143.9822755
  47.3464250 104.8414658 143.7105343  48.4520421 105.1321537 144.7030018
  59.2928252 111.1733130 136.5854854  60.1275143 111.6122934 136.7492414
  59.4287381 110.6971783 135.7663099  43.2303264 109.8937032 132.1163420
  42.9849306 108.9899362 132.3143630  43.3999179 109.8954183 131.1742898
  50.9199974 100.7660709 141.4988175  51.4381918 101.5021736 141.1734664
  50.5655107 101.0724702 142.3334934  42.4998912 105.6265390 129.6149581
  41.8068157 105.7009745 128.9589617  42.2550664 104.8625733 130.1371098
  51.1712568  97.1860991 137.0189072  51.4514322  96.5184180 137.6449498
  51.9563175  97.3790087 136.5063736  48.9746037 116.3619985 128.5814098
  48.4020004 116.9810172 128.1284570  49.5478831 116.9119347 129.1154020
  55.0421427 105.6078625 140.7660647  55.9938850 105.7076723 140.7872871
  54.8724877 104.8156894 141.2758731  53.0635806 102.6934208 140.9520048
  52.4685738 102.9739221 140.2566536  52.7785503 103.1828109 141.7236789
  52.1943297 116.6457135 129.7122680  53.1273970 116.5802697 129.9155556
  52.1066509 117.4813402 129.2537213  54.8231313 115.9623006 126.6726628
  54.7444945 115.6282869 127.5662386  55.6440980 116.4544773 126.6718100
  57.5209504 108.8284745 139.8802947  57.4885825 107.8900746 140.0662630
  58.1310128 108.9068782 139.1468771  49.3592835 107.6980798 125.9230151
  50.3051940 107.5687006 125.9918569  48.9807080 106.9595460 126.3999579
  57.6703993 105.6195788 139.9261230  57.1543042 104.8354245 139.7391159
  58.5543941 105.2914505 140.0907749  55.3314720  99.3636804 135.8857042
  55.1339541  99.0551892 136.7700374  55.9414425 100.0898443 136.0154972
  47.5435752 105.6230774 125.8585036  46.6367208 105.3263887 125.9347749
  47.8211733 105.3260592 124.9919322  38.4613693 106.9437138 136.3084082
  38.1416477 106.0902446 136.0158456  37.9147121 107.1585716 137.0642050
  49.1597818 100.1667664 132.0129277  48.3498547  99.8214749 132.3884523
  49.8482235  99.8575208 132.6016889  51.0888366  99.2445711 133.6353574
  51.6419405  99.6641164 134.2943597  51.3258453  98.3181459 133.6776530
  46.3134537 102.4817709 125.9997015  47.1753701 102.8072608 126.2592832
  46.4984881 101.6949205 125.4870081  54.4667174 101.3546236 133.1432238
  53.8865843 102.0131040 132.7610290  54.2003106 100.5323580 132.7319656
  52.9170740 100.7551294 135.3453558  53.4170518 100.8667828 134.5367877
  53.5606348 100.4512346 135.9854367  40.2438695 110.4958303 136.1543219
  40.2209384 110.5945990 135.2025102  40.5539332 111.3423454 136.4760385
  53.2492052 103.5146326 132.1988586  52.3617907 103.7995977 131.9808781
  53.6646041 103.3540090 131.3515863  56.6006588 103.5392847 135.9142926
  57.3766978 104.0289300 136.1867542  55.8754722 103.9650901 136.3714795
  59.0379146 104.2520466 136.9716866  59.6323637 104.0116202 136.2610174
  59.1105730 103.5327597 137.5990402  52.3935265 113.2791001 126.2936606
  53.0971115 113.4841003 126.9094262  51.6697914 113.8467763 126.5585690
  53.2233075 109.0300862 132.4138876  53.1668277 109.4869414 131.5746509
  53.7761418 108.2691547 132.2361719  57.0337881 104.8190594 133.2388996
  56.7774815 104.4187230 134.0697204  56.4090749 105.5334388 133.1139135
  61.3450219 107.5586667 135.7460287  60.7849777 107.6279857 136.5191849
  60.7393722 107.3827652 135.0259784  54.3021962 113.7173530 128.3435066
  55.1367566 113.2854729 128.1612541  54.1406305 113.5455544 129.2711961
  53.9567855 110.2205643 129.7091406  53.9016658 110.0549915 128.7679850
  53.3313910 110.9281676 129.8653595  47.2663980  99.7213752 129.2876724
  47.2542650 100.6655592 129.4444995  48.1587402  99.5383898 128.9936185
  47.1953544 118.3982643 137.3744481  46.2449175 118.3984504 137.2608853
  47.4986030 117.6515377 136.8580515  51.0816100  96.3156529 133.5422661
  50.3148495  95.7615016 133.6879343  51.4926805  96.3878398 134.4036812
  55.1037945 126.7966191 130.0750258  55.8768821 126.2495178 129.9363134
  55.4563344 127.6610440 130.2864719  57.4404223 122.9558857 127.7068708
  57.6929744 122.4340378 126.9452171  56.5028782 122.7925002 127.8095392
  57.1600512 124.8586963 129.9093083  57.0436770 124.1831866 130.5774167
  57.2702772 124.3719337 129.0925236  59.1437540 119.3487009 128.6101121
  59.3111942 120.2167246 128.9771592  58.9534709 119.5114291 127.6862410
  59.1226761 121.8044667 129.5947787  59.0026386 122.2501718 130.4333268
  58.4279349 122.1529985 129.0361326  53.6118336 121.7417651 134.1481963
  52.8149500 121.8536345 134.6665459  53.3843929 122.0804303 133.2822854
  62.4714768 123.4469635 129.0014787  61.9561392 124.2174239 129.2403174
  62.1992077 122.7734771 129.6247848  55.7635818 120.1711077 128.8570019
  54.9273130 120.5085764 129.1779294  55.6240587 120.0360057 127.9197156
  57.7388898 115.0147865 133.5649203  57.0853311 114.6996882 132.9405818
  57.6969373 114.3923606 134.2909026  58.8500103 125.2967160 125.4802495
  57.9427165 125.0656414 125.6793644  59.3471135 124.5004780 125.6676477
  50.5976507 123.1185269 133.9841687  50.4000907 122.5254630 133.2592754
  50.0423171 122.8137480 134.7017626  59.7264425 126.9388499 127.3414564
  59.2883854 126.2224358 126.8820201  60.4674865 127.1664614 126.7799655
  53.0922733 122.6449303 131.6682640  52.1620321 122.5833759 131.8852602
  53.1880205 122.1225256 130.8719281  53.0108282 119.1704116 134.2560881
  53.2715099 120.0849449 134.1470042  53.8325454 118.7028559 134.4057494
  63.8475652 125.7972881 126.9346621  63.2304823 125.0719709 126.8379674
  63.3792141 126.5582241 126.5913696  55.6374198 120.0158305 126.0567926
  54.7603664 119.8947106 125.6930172  56.1131951 119.2244383 125.8046814
  50.3652892 121.6100160 131.4980831  50.6606333 120.7010838 131.4447885
  49.4640928 121.5887900 131.1761834  52.0940733 119.2914258 131.6220157
  51.7653440 118.4111637 131.4395262  52.4480104 119.2361926 132.5096546
  55.2082557 119.5787228 131.9895634  55.5478629 120.1073149 131.2674243
  55.6554677 119.9167634 132.7654201  57.1950704 118.0761849 130.1888927
  57.9159066 118.4543102 129.6852644  56.5716008 118.7950726 130.2923905
  61.3381827 118.7806998 131.1247259  61.5545441 119.6631636 130.8236087
  60.8575894 118.3893211 130.3952901  57.3414327 117.6109640 133.0186464
  57.4630238 116.6826286 133.2177351  57.0516369 117.6248326 132.1064779
  54.0697019 125.2228950 132.1163420  53.8243061 124.3191280 132.3143630
  54.2392933 125.2246100 131.1742898  53.3392666 120.9557307 129.6149581
  52.6461911 121.0301662 128.9589617  53.0944418 120.1917651 130.1371098
  60.1986590 123.0272715 125.9230151  61.1445695 122.8978924 125.9918569
  59.8200835 122.2887377 126.3999579  58.3829507 120.9522692 125.8585036
  57.4760962 120.6555805 125.9347749  58.6605488 120.6552510 124.9919322
  59.9991573 115.4959582 132.0129277  59.1892301 115.1506667 132.3884523
  60.6875990 115.1867125 132.6016889  61.9282121 114.5737628 133.6353574
  62.4813160 114.9933082 134.2943597  62.1652207 113.6473376 133.6776530
  57.1528292 117.8109627 125.9997015  58.0147456 118.1364525 126.2592832
  57.3378636 117.0241123 125.4870081  58.1057735 115.0505670 129.2876724
  58.0936404 115.9947510 129.4444995  58.9981156 114.8675816 128.9936185
  61.9209854 111.6448447 133.5422661  61.1542250 111.0906933 133.6879343
  62.3320559 111.7170315 134.4036812  17.8207302  45.3971505 116.4008430
  17.1695281  45.9825586 116.0142444  18.6151664  45.9277700 116.4603468
  14.0829207  38.6453309 114.4314015  14.3354727  38.1234830 113.6697478
  13.1453766  38.4819454 114.5340698  19.2982567  43.0861937 116.9377415
  18.6628400  43.1596564 117.6498319  18.9679973  43.6755536 116.2596494
  13.5258636  50.2642761 119.9683225  13.4482666  51.2150586 120.0471706
  12.9220280  49.9188633 120.6258152  21.4636810  37.9660592 117.1473428
  22.3754666  38.1987979 116.9721126  20.9546457  38.5497636 116.5848507
  23.9495624  43.8840848 121.8931373  23.2646663  44.2639750 121.3428407
  24.0339474  44.4936175 122.6263321  15.7997005  45.6224914 118.6888765
  15.6642680  46.4676449 119.1173613  16.3406818  45.8244191 117.9254699
  19.1139751  39.1364087 115.7260094  18.5986375  39.9068691 115.9648481
  18.8417060  38.4629223 116.3493155  24.0874026  41.8896441 117.6613267
  23.3103468  41.5507601 117.2168429  24.7665506  41.8949064 116.9868232
  15.4925087  40.9861612 112.2047802  14.5852148  40.7550866 112.4038951
  15.9896119  40.1899231 112.3921783  18.3993165  49.6959119 115.1244488
  17.7254864  49.9990816 115.7329446  18.7858987  50.4988200 114.7749945
  16.6713320  41.0874207 116.7271792  15.7624539  40.8033240 116.8244262
  16.7008404  41.5073286 115.8675099  21.9032587  44.6980797 120.4962959
  21.4494915  43.8571706 120.5528150  21.2726554  45.3342195 120.8337740
  20.3465527  46.5357293 121.4312778  20.6388501  47.0962350 120.7125143
  20.8564147  46.8285854 122.1865937  16.3689408  42.6282951 114.0659870
  15.9308838  41.9118810 113.6065508  17.1099849  42.8559066 113.5044962
  24.4862523  40.9040148 120.1236189  24.3480421  41.0941744 119.1957378
  24.1298741  41.6659531 120.5804240  16.5984381  49.8638792 117.3391567
  16.7736136  49.3926835 118.1537190  15.9117169  50.4904558 117.5672828
  20.4900635  41.4867332 113.6591928  19.8729806  40.7614161 113.5624981
  20.0217124  42.2476693 113.3159002  15.4663107  48.0579047 120.0275753
  14.6830629  48.6000727 120.1213977  16.1655853  48.5753027 120.4269994
  21.3138321  44.8106504 117.7784568  21.5898165  44.6963099 118.6878442
  20.4442819  44.4123989 117.7396741  17.9492385  49.0592855 121.4217381
  18.1314779  48.2414511 121.8845134  18.7725371  49.2760547 120.9842271
  18.2834550  47.9861040 118.6832430  18.8122317  47.4753495 118.0702592
  18.5462770  47.6703571 119.5477963  21.3774734  47.9577839 119.2987413
  21.5511611  47.3924261 118.5461265  21.8703625  48.7578733 119.1166903
  27.2314125  40.7214261 120.9177713  27.6745271  39.9721587 120.5196836
  26.3540635  40.7124398 120.5351445  22.3649906  47.2744603 116.3984311
  23.0600811  47.8951296 116.6171626  22.7073056  46.4239954 116.6736689
  24.2641329  44.7244308 117.9271642  24.7892653  45.0631581 117.2020962
  24.1763682  43.7891324 117.7434777  12.9569369  44.8858224 117.8347657
  13.1057489  45.5693689 117.1814330  13.7635813  44.8663314 118.3497113
  16.4564775  47.3806355 115.3059405  15.8838742  47.9996542 114.8529877
  17.0297568  47.9305716 115.8399327  19.6762034  47.6643505 116.4367987
  20.6092708  47.5989066 116.6400863  19.5885247  48.4999772 115.9782520
  22.3050051  46.9809375 113.3971935  22.2263683  46.6469239 114.2907693
  23.1259718  47.4731143 113.3963407  16.8411573  38.7167167 112.6475457
  17.7870678  38.5873375 112.7163875  16.4625818  37.9781829 113.1244885
  15.0254490  36.6417144 112.5830342  14.1185946  36.3450256 112.6593056
  15.3030471  36.3446962 111.7164629  19.8754003  44.2977370 113.0181913
  20.5789853  44.5027373 113.6339569  19.1516652  44.8654132 113.2830996
  21.7840700  44.7359900 115.0680373  22.6186304  44.3041098 114.8857848
  21.6225043  44.5641913 115.9957267  21.4386592  41.2392013 116.4336712
  21.3835396  41.0736284 115.4925156  20.8132648  41.9468046 116.5898902
  30.4124975  55.2529551 125.1635550  31.0503385  55.1336298 124.4598890
  30.2945818  56.2010395 125.2223502  27.2214682  55.2056979 125.0997074
  26.8833193  55.0898044 124.2117609  28.0904450  54.8048144 125.0798081
  23.0801497  57.0592455 121.0893965  22.5166362  56.9682392 120.3210253
  22.9653892  56.2392360 121.5696458  20.6265929  58.5543647 123.9278186
  21.4187221  58.2134472 123.5124485  20.8662579  58.6638622 124.8480339
  28.6601056  60.7263423 116.4008430  28.0089036  61.3117503 116.0142444
  29.4545419  61.2569618 116.4603468  22.5856683  57.8152560 116.7995565
  23.3587559  57.2681547 116.6608440  22.9382082  58.6796809 117.0110026
  24.4241726  59.1428942 130.0062464  24.1331592  60.0474573 129.8909130
  25.0598710  59.1845470 130.7206533  25.3497933  56.5205791 126.5963824
  25.9461505  56.2961813 125.8820787  25.4072904  55.7790536 127.1989271
  24.9222961  53.9745226 114.4314015  25.1748482  53.4526748 113.6697478
  23.9847520  53.8111372 114.5340698  29.9666244  52.9781005 122.2388758
  30.7529333  52.5600428 121.8879175  30.2304948  53.8827097 122.4070406
  30.1376321  58.4153855 116.9377415  29.5022154  58.4888481 117.6498319
  29.8073728  59.0047454 116.2596494  35.3674671  52.9156238 123.1421736
  36.0999843  52.3455455 123.3759566  34.6114027  52.5277838 123.5828242
  24.6419250  55.8773332 116.6338390  24.5255508  55.2018236 117.3019474
  24.7521510  55.3905706 115.8170543  26.9850791  55.3383479 120.3385079
  26.6208998  54.8114100 121.0498000  27.8417907  54.9481948 120.1651564
  26.6256278  50.3673379 115.3346427  26.7930680  51.2353615 115.7016898
  26.4353447  50.5300661 114.4107717  29.3831611  58.8290358 127.0012258
  29.0832334  59.7315397 126.8928065  29.0382670  58.5622541 127.8533411
  22.8344092  55.2804155 123.0348962  21.9094589  55.1480369 123.2426654
  23.0828506  56.0598374 123.5318904  32.7828755  51.3472898 124.6809695
  31.8745632  51.2788307 124.3868456  32.7316350  51.8244843 125.5091520
  26.6045499  52.8231037 116.3193094  26.4845124  53.2688087 117.1578574
  25.9098087  53.1716354 115.7606632  20.1952903  54.9237428 123.8692751
  20.3245285  55.1771907 124.7832163  19.5150355  55.5165136 123.5497406
  24.3652391  65.5934678 119.9683225  24.2876420  66.5442503 120.0471706
  23.7614034  65.2480551 120.6258152  34.6490401  49.5489337 126.4587569
  34.0064781  49.8421870 125.8127363  34.1445330  49.4342257 127.2640766
  32.3030565  53.2952510 117.1473428  33.2148421  53.5279896 116.9721126
  31.7940212  53.8789554 116.5848507  30.5871332  57.7177138 130.7834721
  30.9954688  57.2759548 130.0389353  29.8648594  57.1429765 131.0368914
  30.9100147  58.2778328 124.5387010  30.2809009  58.4424042 123.8363077
  30.5225809  58.6919938 125.3097974  34.7889379  59.2132766 121.8931373
  34.1040417  59.5931667 121.3428407  34.8733228  59.8228093 122.6263321
  32.0440311  56.8592725 128.4926717  32.2557206  57.5024485 127.8161098
  31.9970059  56.0255042 128.0248647  29.6466539  49.4710546 125.3963289
  28.7851019  49.7691799 125.6880027  29.6728974  49.6880945 124.4644322
  26.4628109  58.0152736 121.8037095  26.9266454  58.2940439 121.0141717
  26.1984907  57.1136181 121.6210185  23.3552190  57.5624218 124.7416858
  23.9253547  57.9911486 124.1034342  23.9460302  57.2806802 125.4401044
  25.3996995  54.1375889 118.6126660  26.1021038  54.5896932 119.0800586
  25.0677623  53.4959707 119.2406553  19.1422329  52.3959441 123.9143793
  18.3521383  52.6516970 123.4383904  19.6333576  53.2107779 124.0195834
  33.1586138  59.7364680 126.6649074  33.9803582  59.3344868 126.3831756
  33.1548541  59.6332915 127.6165190  21.0937074  52.7604021 120.8727270
  20.2968238  52.8722715 121.3910766  20.8662666  53.0990673 120.0068161
  26.9242742  59.2848724 128.8209785  26.9887174  59.7469131 129.6567957
  26.2153666  58.6546089 128.9492095  41.2492132  56.0803429 123.0134046
  40.4955840  55.5110827 122.8578050  41.3839673  56.0466093 123.9604680
  26.6390760  60.9516831 118.6888765  26.5036434  61.7968367 119.1173613
  27.1800572  61.1536109 117.9254699  20.0920157  58.4692269 119.2616690
  20.6044678  59.2635520 119.4122255  20.7442870  57.7718560 119.1950292
  21.9015042  61.5858026 121.3439443  22.0781670  62.5075990 121.1560427
  22.6971875  61.2716445 121.7733823  28.2659236  61.5740398 132.8189107
  27.8223090  60.7876776 132.5010012  28.9276450  61.7619548 132.1532998
  23.0246357  63.1036199 127.3449786  23.5753782  62.9753263 126.5726780
  22.1857833  63.4031088 126.9944678  30.3640474  61.8543198 130.8470508
  30.3458949  62.6752079 130.3550778  31.2860394  61.7297273 131.0720650
  18.0569074  56.7980924 120.0376261  18.8944296  57.2077932 119.8209968
  18.2347341  55.8580366 120.0076455  29.9533506  54.4656004 115.7260094
  29.4380129  55.2360609 115.9648481  29.6810814  53.7921140 116.3493155
  27.5380617  49.3105705 120.7845332  26.6822213  48.9212555 120.6050971
  27.9507569  49.3897666 119.9245118  29.0679764  46.8452048 125.1836892
  28.5644559  46.8082183 124.3704697  29.3610370  47.7544791 125.2433548
  34.9267780  57.2188359 117.6613267  34.1497223  56.8799518 117.2168429
  35.6059261  57.2240982 116.9868232  29.7419809  52.3383096 117.5519875
  29.4369945  52.6529245 118.4030018  30.6950251  52.4164516 117.5947208
  28.1866241  58.4973320 119.2012829  27.6587602  57.7626079 118.8886066
  27.6853744  59.2747996 118.9552797  33.1659087  56.6922340 124.3179875
  32.5082761  57.3821602 124.4060004  33.9699486  57.0818772 124.6613861
  22.9184968  49.1592986 121.5619440  23.4928720  48.9368167 120.8292633
  23.5055951  49.2281680 122.3148042  31.9764546  55.0466713 122.3683817
  32.4896427  55.6796705 122.8705527  32.6265770  54.4467908 122.0027177
  23.2454556  51.1897447 115.5815326  22.4091868  51.5272133 115.9024600
  23.1059325  51.0546427 114.6442463  25.2207636  46.0334235 120.2894510
  24.5672049  45.7183252 119.6651125  25.1788110  45.4109975 121.0154333
  26.3318841  56.3153530 112.2047802  25.4245903  56.0842783 112.4038951
  26.8289873  55.5191149 112.3921783  29.2386920  65.0251037 115.1244488
  28.5648619  65.3282734 115.7329446  29.6252742  65.8280117 114.7749945
  28.4545377  52.5216168 124.6142157  27.5367938  52.7431115 124.4563845
  28.8705520  52.5962479 123.7553865  29.2380424  53.9207584 119.7444838
  29.9852243  54.4328981 119.4351960  29.5072014  53.5991637 120.6049231
  27.5107074  56.4166125 116.7271792  26.6018294  56.1325158 116.8244262
  27.5402158  56.8365203 115.8675099  32.7426342  60.0272714 120.4962959
  32.2888669  59.1863624 120.5528150  32.1120309  60.6634113 120.8337740
  31.6859261  50.9564700 121.7263627  30.9482018  50.4442087 122.0573869
  31.9386035  50.5165082 120.9146904  31.1859281  61.8649211 121.4312778
  31.4782256  62.4254268 120.7125143  31.6957902  62.1577772 122.1865937
  31.7870889  43.7340952 122.3205396  32.0929766  42.8738316 122.0331311
  32.5123494  44.3258572 122.1204390  18.0795245  54.1371639 120.7086994
  17.8819645  53.5441000 119.9838061  17.5241909  53.8323849 121.4262933
  26.0591969  54.0294745 122.8281587  26.1140578  53.0768582 122.7524064
  25.2483171  54.1854184 123.3122886  27.2083162  57.9574868 114.0659870
  26.7702592  57.2410727 113.6065508  27.9493603  58.1850983 113.5044962
  23.9984328  52.6471805 120.5871966  23.1852194  52.9465976 120.9937158
  24.4943323  52.2527494 121.3046448  26.1492906  62.6429562 122.5206231
  26.1069085  62.8690408 121.5914763  27.0655605  62.4092937 122.6692032
  35.3256277  56.2332065 120.1236189  35.1874176  56.4233661 119.1957378
  34.9692496  56.9951448 120.5804240  35.3525657  58.3008592 125.1347461
  35.7862163  58.2083882 125.9830515  36.0657237  58.2766093 124.4967477
  24.2658707  59.5192591 122.3168194  25.0599306  59.0242911 122.1150768
  23.5550400  58.9910454 121.9535899  29.0853552  61.9010687 126.6680561
  29.1390574  62.4701623 127.4358277  28.2168333  62.0712572 126.3034598
  20.5741471  53.6635673 118.3927946  19.6439059  53.6020128 118.6097908
  20.6698943  53.1411626 117.5964587  20.4927020  50.1890486 120.9806188
  20.7533837  51.1035819 120.8715348  21.3144192  49.7214928 121.1302801
  36.2141206  58.3432293 127.6680346  36.4077096  59.2478104 127.9139621
  36.1141824  57.8839712 128.5018931  31.2756315  58.4939036 133.2421227
  31.1241821  58.2649588 132.3251310  31.2660994  59.4509637 133.2552572
  28.0441651  56.0670949 128.2267493  28.9733711  56.2182108 128.0536460
  27.6232681  56.1554969 127.3716140  26.8429983  60.0921613 125.9966031
  26.7041069  59.7240397 126.8691969  26.0544579  60.6069252 125.8249988
  27.4378135  65.1930710 117.3391567  27.6129891  64.7218753 118.1537190
  26.7510923  65.8196476 117.5672828  28.3935198  59.4703216 123.3854868
  28.0585031  59.4303986 124.2812518  27.8939144  58.8047932 122.9125279
  31.3294390  56.8159250 113.6591928  30.7123561  56.0906078 113.5624981
  30.8610878  57.5768610 113.3159002  32.9848522  61.5258158 131.3197708
  32.9261068  60.8417379 130.6528291  33.3868040  62.2677148 130.8678334
  22.0039220  68.3420072 124.1131427  22.2435819  68.9738596 124.7910446
  21.1608417  67.9908112 124.3996787  23.1192936  51.0344674 112.7813232
  22.2422402  50.9133475 112.4175479  23.5950689  50.2430753 112.5292121
  32.9865929  59.4897742 129.5511688  32.0992708  59.1523664 129.6738087
  33.5564480  58.7580774 129.7880453  14.6395076  55.8221834 122.8754739
  15.3266116  55.5083564 122.2875755  14.4843205  56.7263199 122.6021991
  26.5167082  64.1499195 126.5172931  26.4437254  64.9554166 127.0292236
  26.0744475  64.3491161 125.6920953  26.3056862  63.3870965 120.0275753
  25.5224384  63.9292645 120.1213977  27.0049607  63.9044944 120.4269994
  29.6153512  49.1965594 122.6709958  30.1122212  48.4435557 122.3511028
  28.8440493  49.2329911 122.1053168  37.4683269  54.9005960 124.3128250
  37.4573146  55.7830675 123.9422183  36.6000649  54.5477511 124.1182787
  28.9765766  64.0486029 128.6731090  29.6893738  64.6833494 128.6006991
  28.4855794  64.1449895 127.8571092  30.6983293  57.9537281 120.2448382
  29.7639571  58.0738744 120.0753086  30.8759961  57.0509748 119.9808391
  26.1988481  51.3382977 122.3981643  25.8286268  50.7854018 123.0862548
  26.6947573  50.7341111 121.8456643  34.0855844  53.7954601 120.7798416
  34.5516296  54.6282592 120.7058718  34.5363345  53.3299582 121.4843674
  24.0277679  61.7980472 129.4936661  24.7287139  62.4316955 129.6466055
  23.5572794  62.1395204 128.7332300  32.1532075  60.1398422 117.7784568
  32.4291919  60.0255017 118.6878442  31.2836574  59.7415907 117.7396741
  32.0572507  46.1635188 124.8189317  31.1435587  46.3939415 124.9871524
  32.4865608  46.2473632 125.6703349  31.8278965  54.3525080 127.3189211
  31.1750415  54.6000987 126.6641664  32.2059345  53.5389218 126.9851688
  28.7886139  64.3884773 121.4217381  28.9708534  63.5706429 121.8845134
  29.6119125  64.6052465 120.9842271  29.1228305  63.3152958 118.6832430
  29.6516071  62.8045413 118.0702592  29.3856524  62.9995488 119.5477963
  19.6245397  61.3316827 126.4267763  20.2098834  60.5860515 126.5595668
  19.4270236  61.6420784 127.3104427  22.4784053  64.3668075 121.4430206
  21.8094428  64.8514202 120.9594246  22.3396922  64.6137295 122.3573584
  26.6189321  66.4011818 128.0412864  27.1707629  66.5643440 128.8061949
  26.9595515  66.9916256 127.3692889  31.4700195  61.2273076 133.8961519
  32.0140099  61.8403034 133.4016473  30.8887040  61.7852654 134.4128532
  17.8471630  52.6286530 118.2226138  18.1425071  51.7197208 118.1693192
  16.9459665  52.6074269 117.9007140  29.7557708  64.3493794 125.0276546
  29.6308848  63.5483534 124.5187492  30.4136800  64.8439987 124.5390516
  21.3765877  50.7042526 124.2053687  20.6552462  51.3178494 124.0661160
  22.1659132  51.2400291 124.1270333  31.8192617  62.1502814 126.6556096
  30.8722952  62.0308165 126.5834423  32.1675390  61.2625312 126.7382358
  19.5759471  50.3100627 118.3465463  19.2472177  49.4298006 118.1640569
  19.9298842  50.2548296 119.2341852  28.8239050  61.9455530 122.8560449
  28.6764013  61.0172237 123.0368019  29.6492544  61.9675621 122.3717524
  22.6901294  50.5973597 118.7140941  23.0297367  51.1259518 117.9919549
  23.1373415  50.9354003 119.4899507  32.4273172  62.7684089 123.9425321
  33.3519719  62.5626950 123.8049773  32.2588475  62.5200490 124.8514663
  24.6769442  49.0948219 116.9134234  25.3977804  49.4729471 116.4097950
  24.0534746  49.8137095 117.0169212  28.8200564  49.7993368 117.8492566
  29.0364179  50.6818006 117.5481394  28.3394632  49.4079581 117.1198208
  23.5599786  52.7579081 124.4263311  23.4144367  53.0719384 125.3187592
  23.0824989  53.3763981 123.8734209  25.4196169  49.7481629 124.4744200
  25.4057737  48.8522722 124.1376498  26.1368597  49.7552293 125.1082486
  32.2168488  63.2869756 119.2987413  32.3905366  62.7216179 118.5461265
  32.7097379  64.0870651 119.1166903  24.8233065  48.6296009 119.7431770
  24.9448976  47.7012655 119.9422658  24.5335107  48.6434695 118.8310086
  27.6924255  46.3150920 122.8798490  27.7145952  46.3790253 121.9250470
  28.1092314  45.4755428 123.0738996  38.0707879  56.0506179 120.9177713
  38.5139025  55.3013504 120.5196836  37.1934390  56.0416315 120.5351445
  33.2043661  62.6036521 116.3984311  33.8994565  63.2243213 116.6171626
  33.5466811  61.7531872 116.6736689  35.1035084  60.0536226 117.9271642
  35.6286408  60.3923499 117.2020962  35.0157436  59.1183241 117.7434777
  26.7655132  63.9670300 130.0561519  27.0742259  63.7219447 130.9284218
  27.5630615  64.1716938 129.5680389  26.7875745  66.1208209 122.2866895
  26.3480735  65.6284588 122.9799752  27.5383861  65.5781177 122.0458970
  19.2668084  62.3119750 122.2891523  20.0926103  62.0123522 121.9090167
  18.9162136  61.5427373 122.7381312  24.2349617  61.6646218 124.3589197
  23.6129626  61.0016924 124.0591425  24.9054484  61.6907350 123.6762845
  17.4676689  60.2306077 123.2480457  16.6308597  59.8028251 123.0664458
  17.4400334  60.4238520 124.1851248  34.7928990  60.6869130 133.2322840
  34.0024534  60.6693269 132.6927339  34.5562344  61.2257423 133.9871876
  34.9126865  57.5361596 130.5455568  34.9624870  57.3711604 131.4871091
  34.8040788  56.6688855 130.1553449  23.7963124  60.2150142 117.8347657
  23.9451244  60.8985606 117.1814330  24.6029567  60.1955232 118.3497113
  36.4145062  59.9558538 130.7897590  36.1229870  60.3188518 131.6261051
  35.8017193  59.2425546 130.6110922  37.6140744  57.5211417 123.3100160
  38.4487635  57.9601221 123.4737721  37.7499873  57.0450071 122.4908406
  34.6632250  55.0791152 129.2577648  35.1386372  55.2718799 128.4496499
  33.7397815  55.1350338 129.0121032  21.5515757  56.2415319 118.8408726
  21.3061799  55.3377649 119.0388936  21.7211671  56.2432470 117.8988204
  20.8211404  51.9743677 116.3394888  20.1280649  52.0488032 115.6834924
  20.5763156  51.2104021 116.8616405  27.2958529  62.7098272 115.3059405
  26.7232496  63.3288459 114.8529877  27.8691323  63.2597634 115.8399327
  33.3633919  51.9556912 127.4905954  34.3151342  52.0555010 127.5118178
  33.1937369  51.1635181 128.0004038  31.3848298  49.0412496 127.6765355
  30.7898231  49.3217508 126.9811843  31.0997995  49.5306397 128.4482096
  30.5155789  62.9935422 116.4367987  31.4486462  62.9280984 116.6400863
  30.4279002  63.8291689 115.9782520  33.1443806  62.3101293 113.3971935
  33.0657437  61.9761156 114.2907693  33.9653472  62.8023061 113.3963407
  35.8421997  55.1763032 126.6048253  35.8098317  54.2379033 126.7907937
  36.4522620  55.2547069 125.8714078  27.6805328  54.0459085 112.6475457
  28.6264432  53.9165293 112.7163875  27.3019573  53.3073747 113.1244885
  35.9916485  51.9674075 126.6506536  35.4755534  51.1832532 126.4636465
  36.8756434  51.6392792 126.8153056  33.6527212  45.7115091 122.6102349
  33.4552033  45.4030179 123.4945681  34.2626918  46.4376730 122.7400279
  41.6598547  56.2379039 125.7454290  42.3901935  55.9764327 126.3061993
  41.0505492  55.5007761 125.7856358  39.7413844  54.3786901 126.3428741
  39.0147007  54.2442866 125.7345233  39.3261131  54.6863730 127.1485459
  25.8648245  51.9709061 112.5830342  24.9579700  51.6742174 112.6593056
  26.1424226  51.6738879 111.7164629  16.7826185  53.2915425 123.0329389
  16.4628969  52.4380733 122.7403763  16.2359613  53.5064003 123.7887356
  20.5606093  56.0077866 126.7498895  20.7792102  56.9394974 126.7686929
  20.9731867  55.6485840 127.5353699  27.4810310  46.5145951 118.7374584
  26.6711039  46.1693036 119.1129830  28.1694727  46.2053495 119.3262195
  29.4100859  45.5923998 120.3598880  29.9631897  46.0119451 121.0188904
  29.6470945  44.6659746 120.4021836  24.6347029  48.8295997 112.7242322
  25.4966193  49.1550895 112.9838139  24.8197374  48.0427493 112.2115387
  16.6514445  56.9118336 125.0022510  15.9577917  56.4972289 124.4892465
  17.3987436  56.9538873 124.4055929  32.7879666  47.7024523 119.8677545
  32.2078335  48.3609327 119.4855597  32.5215599  46.8801868 119.4564962
  31.2383232  47.1029581 122.0698865  31.7383011  47.2146115 121.2613184
  31.8818840  46.7990634 122.7099673  18.5651188  56.8436590 122.8788525
  18.5421876  56.9424277 121.9270408  18.8751824  57.6901741 123.2005691
  21.2238566  58.9012745 126.9935140  22.1781819  58.8696687 126.9265071
  21.0251089  58.4403369 127.8085366  31.5704544  49.8624613 118.9233893
  30.6830399  50.1474264 118.7054088  31.9858533  49.7018377 118.0761170
  34.9219080  49.8871134 122.6388232  35.6979470  50.3767587 122.9112849
  34.1967214  50.3129189 123.0960102  37.3591639  50.5998754 123.6962173
  37.9536129  50.3594490 122.9855481  37.4318222  49.8805884 124.3235709
  19.5788794  64.4432365 124.0105338  19.4443262  63.6832765 123.4443336
  19.1620857  65.1673264 123.5434127  30.7147757  59.6269288 113.0181913
  31.4183607  59.8319291 113.6339569  29.9910406  60.1946050 113.2830996
  31.5445568  55.3779149 119.1384183  31.4880769  55.8347701 118.2991816
  32.0973910  54.6169834 118.9607026  35.3550374  51.1668881 119.9634303
  35.0987308  50.7665517 120.7942510  34.7303242  51.8812675 119.8384442
  39.6662711  53.9064955 122.4705594  39.1062269  53.9758144 123.2437156
  39.0606215  53.7305939 121.7505090  22.7357920  65.3401682 124.2223780
  22.6190304  66.2847114 124.1202471  21.9150366  65.0375243 124.6109579
  32.6234455  60.0651817 115.0680373  33.4580059  59.6333016 114.8857848
  32.4618798  59.8933831 115.9957267  32.2780347  56.5683931 116.4336712
  32.2229151  56.4028202 115.4925156  31.6526402  57.2759964 116.5898902
  25.5876472  46.0692040 116.0122031  25.5755142  47.0133880 116.1690302
  26.4799894  45.8862185 115.7181492  23.7612434  65.9929944 127.4379709
  24.6639681  66.0253554 127.7546204  23.5349804  65.0630394 127.4526045
  25.5166036  64.7460930 124.0989787  24.5661667  64.7462792 123.9854160
  25.8198523  63.9993665 123.5825822  29.4028592  42.6634816 120.2667967
  28.6360988  42.1093303 120.4124650  29.8139297  42.7356685 121.1282119
  41.2518730  70.5821468 125.1635550  41.8897140  70.4628216 124.4598890
  41.1339573  71.5302312 125.2223502  38.0608436  70.5348897 125.0997074
  37.7226948  70.4189961 124.2117609  38.9298204  70.1340062 125.0798081
  33.9195252  72.3884373 121.0893965  33.3560117  72.2974310 120.3210253
  33.8047647  71.5684277 121.5696458  38.5428219  71.6883748 131.0583280
  38.5316860  71.2936547 130.1863784  38.7048859  70.9549821 131.6517051
  31.4659684  73.8835565 123.9278186  32.2580976  73.5426389 123.5124485
  31.7056334  73.9930540 124.8480339  39.4994811  76.0555341 116.4008430
  38.8482790  76.6409421 116.0142444  40.2939173  76.5861536 116.4603468
  33.4250438  73.1444478 116.7995565  34.1981314  72.5973465 116.6608440
  33.7775837  74.0088727 117.0110026  35.2635480  74.4720860 130.0062464
  34.9725346  75.3766491 129.8909130  35.8992465  74.5137388 130.7206533
  36.1891687  71.8497709 126.5963824  36.7855259  71.6253731 125.8820787
  36.2466659  71.1082454 127.1989271  35.7616716  69.3037144 114.4314015
  36.0142236  68.7818665 113.6697478  34.8241275  69.1403289 114.5340698
  40.8059998  68.3072922 122.2388758  41.5923088  67.8892345 121.8879175
  41.0698703  69.2119014 122.4070406  40.9770076  73.7445773 116.9377415
  40.3415909  73.8180399 117.6498319  40.6467482  74.3339371 116.2596494
  46.2068425  68.2448156 123.1421736  46.9393597  67.6747372 123.3759566
  45.4507781  67.8569756 123.5828242  35.4813004  71.2065250 116.6338390
  35.3649262  70.5310153 117.3019474  35.5915264  70.7197624 115.8170543
  37.8244545  70.6675397 120.3385079  37.4602752  70.1406018 121.0498000
  38.6811661  70.2773866 120.1651564  43.7293846  61.9569730 127.6016345
  43.3977171  62.8265141 127.3777560  43.1339459  61.6406014 128.2810375
  37.4650032  65.6965297 115.3346427  37.6324435  66.5645533 115.7016898
  37.2747201  65.8592578 114.4107717  40.2225365  74.1582276 127.0012258
  39.9226088  75.0607314 126.8928065  39.8776425  73.8914459 127.8533411
  33.6737847  70.6096072 123.0348962  32.7488343  70.4772287 123.2426654
  33.9222260  71.3890292 123.5318904  43.6222509  66.6764816 124.6809695
  42.7139386  66.6080224 124.3868456  43.5710105  67.1536761 125.5091520
  37.4439253  68.1522954 116.3193094  37.3238878  68.5980005 117.1578574
  36.7491841  68.5008272 115.7606632  31.0346658  70.2529346 123.8692751
  31.1639039  70.5063825 124.7832163  30.3544109  70.8457054 123.5497406
  35.2046145  80.9226596 119.9683225  35.1270175  81.8734421 120.0471706
  34.6007789  80.5772468 120.6258152  37.6963375  68.0954461 132.6244592
  36.9196709  68.6548382 132.6147457  38.3353938  68.5811244 133.1459462
  45.4884156  64.8781254 126.4587569  44.8458536  65.1713787 125.8127363
  44.9839084  64.7634175 127.2640766  43.1424319  68.6244427 117.1473428
  44.0542175  68.8571814 116.9721126  42.6333966  69.2081472 116.5848507
  35.9509747  70.9039915 132.1862559  36.6924432  71.4424959 131.9097383
  35.2446733  71.5306203 132.3434111  41.4265087  73.0469055 130.7834721
  41.8348443  72.6051466 130.0389353  40.7042348  72.4721683 131.0368914
  37.7796157  67.9841662 128.1568278  38.6257352  68.4081076 128.3002927
  37.7194795  67.3275286 128.8506841  41.7493902  73.6070246 124.5387010
  41.1202764  73.7715960 123.8363077  41.3619564  74.0211855 125.3097974
  45.6283133  74.5424684 121.8931373  44.9434172  74.9223585 121.3428407
  45.7126983  75.1520010 122.6263321  40.9295602  65.6446030 129.8149451
  40.6856534  66.3988091 129.2783727  41.2055533  66.0231378 130.6496698
  42.8834065  72.1884643 128.4926717  43.0950960  72.8316403 127.8161098
  42.8363813  71.3546959 128.0248647  40.4860294  64.8002463 125.3963289
  39.6244773  65.0983717 125.6880027  40.5122729  65.0172862 124.4644322
  37.3021863  73.3444654 121.8037095  37.7660209  73.6232357 121.0141717
  37.0378661  72.4428098 121.6210185  34.1945944  72.8916135 124.7416858
  34.7647302  73.3203404 124.1034342  34.7854056  72.6098720 125.4401044
  36.2390749  69.4667806 118.6126660  36.9414793  69.9188850 119.0800586
  35.9071378  68.8251625 119.2406553  34.6871111  68.0579563 132.9877869
  34.0569772  68.7395844 133.2213266  34.5807199  67.9462645 132.0431007
  29.9816083  67.7251359 123.9143793  29.1915137  67.9808887 123.4383904
  30.4727331  68.5399697 124.0195834  43.9979893  75.0656598 126.6649074
  44.8197337  74.6636785 126.3831756  43.9942296  74.9624832 127.6165190
  31.9330829  68.0895938 120.8727270  31.1361992  68.2014632 121.3910766
  31.7056421  68.4282590 120.0068161  37.7636496  74.6140641 128.8209785
  37.8280929  75.0761049 129.6567957  37.0547420  73.9838006 128.9492095
  28.2653786  67.9781849 126.3458784  28.5161825  68.8628859 126.6116360
  28.8013335  67.7986451 125.5733876  52.0885886  71.4095347 123.0134046
  51.3349594  70.8402745 122.8578050  52.2233427  71.3758011 123.9604680
  37.4784514  76.2808749 118.6888765  37.3430189  77.1260285 119.1173613
  38.0194327  76.4828027 117.9254699  33.9651854  62.3600329 135.3503120
  33.5718799  61.8066527 136.0250765  34.7817994  62.6710907 135.7409638
  30.9313911  73.7984187 119.2616690  31.4438432  74.5927437 119.4122255
  31.5836624  73.1010477 119.1950292  32.7408796  76.9149943 121.3439443
  32.9175424  77.8367908 121.1560427  33.5365630  76.6008362 121.7733823
  36.8819815  63.7758208 132.9423377  37.6229528  64.3765361 132.8627839
  37.1137738  63.0335846 132.3841419  32.0261153  68.9614575 131.2201607
  31.9114668  68.0599832 131.5208705  31.1705670  69.2078272 130.8686423
  39.1052990  76.9032315 132.8189107  38.6616845  76.1168694 132.5010012
  39.7670204  77.0911466 132.1532998  33.8640112  78.4328117 127.3449786
  34.4147537  78.3045180 126.5726780  33.0251588  78.7323006 126.9944678
  41.2034229  77.1835115 130.8470508  41.1852704  78.0043996 130.3550778
  42.1254149  77.0589191 131.0720650  37.6607283  74.6979245 131.6894017
  38.1935619  73.9367533 131.4593325  37.1321364  74.4052897 132.4318171
  40.8276978  59.8039311 127.2187659  40.4841247  60.6940952 127.1426769
  41.1955940  59.6140968 126.3557244  28.8962828  72.1272841 120.0376261
  29.7338050  72.5369850 119.8209968  29.0741096  71.1872283 120.0076455
  40.7927260  69.7947922 115.7260094  40.2773884  70.5652527 115.9648481
  40.5204569  69.1213058 116.3493155  38.3774371  64.6397623 120.7845332
  37.5215968  64.2504473 120.6050971  38.7901323  64.7189583 119.9245118
  39.9073518  62.1743966 125.1836892  39.4038314  62.1374101 124.3704697
  40.2004125  63.0836709 125.2433548  36.1516404  62.2582696 124.1903073
  37.0169401  62.0625504 123.8308963  36.2193913  62.0293047 125.1172430
  45.7661534  72.5480277 117.6613267  44.9890977  72.2091436 117.2168429
  46.4453015  72.5532900 116.9868232  40.5813564  67.6675014 117.5519875
  40.2763699  67.9821163 118.4030018  41.5344006  67.7456434 117.5947208
  39.0259995  73.8265237 119.2012829  38.4981357  73.0917997 118.8886066
  38.5247498  74.6039914 118.9552797  44.0052841  72.0214258 124.3179875
  43.3476516  72.7113519 124.4060004  44.8093241  72.4110690 124.6613861
  33.7578723  64.4884904 121.5619440  34.3322475  64.2660085 120.8292633
  34.3449705  64.5573598 122.3148042  42.8158300  70.3758630 122.3683817
  43.3290182  71.0088622 122.8705527  43.4659524  69.7759826 122.0027177
  34.0848310  66.5189365 115.5815326  33.2485622  66.8564051 115.9024600
  33.9453080  66.3838344 114.6442463  36.0601391  61.3626152 120.2894510
  35.4065803  61.0475170 119.6651125  36.0181865  60.7401893 121.0154333
  37.1712596  71.6445448 112.2047802  36.2639657  71.4134701 112.4038951
  37.6683628  70.8483067 112.3921783  40.0780674  80.3542955 115.1244488
  39.4042373  80.6574652 115.7329446  40.4646496  81.1572035 114.7749945
  39.2939131  67.8508086 124.6142157  38.3761692  68.0723033 124.4563845
  39.7099275  67.9254397 123.7553865  40.0774179  69.2499502 119.7444838
  40.8245998  69.7620899 119.4351960  40.3465768  68.9283554 120.6049231
  38.3500829  71.7458042 116.7271792  37.4412048  71.4617075 116.8244262
  38.3795913  72.1657121 115.8675099  43.5820096  75.3564632 120.4962959
  43.1282424  74.5155542 120.5528150  42.9514063  75.9926030 120.8337740
  42.5253016  66.2856618 121.7263627  41.7875773  65.7734004 122.0573869
  42.7779789  65.8457000 120.9146904  42.0253036  77.1941129 121.4312778
  42.3176010  77.7546186 120.7125143  42.5351656  77.4869690 122.1865937
  42.6264643  59.0632870 122.3205396  42.9323520  58.2030233 122.0331311
  43.3517248  59.6550490 122.1204390  28.9188999  69.4663557 120.7086994
  28.7213399  68.8732917 119.9838061  28.3635663  69.1615767 121.4262933
  36.8985723  69.3586663 122.8281587  36.9534333  68.4060499 122.7524064
  36.0876925  69.5146102 123.3122886  38.0476917  73.2866786 114.0659870
  37.6096347  72.5702645 113.6065508  38.7887358  73.5142901 113.5044962
  34.8378083  67.9763723 120.5871966  34.0245948  68.2757893 120.9937158
  35.3337077  67.5819412 121.3046448  36.9886661  77.9721480 122.5206231
  36.9462840  78.1982326 121.5914763  37.9049360  77.7384854 122.6692032
  40.4352295  68.4405547 129.4186860  40.7901682  68.6677020 130.2781326
  41.0824426  68.7723924 128.7964115  46.1650032  71.5623983 120.1236189
  46.0267930  71.7525579 119.1957378  45.8086250  72.3243366 120.5804240
  34.3292158  65.5482078 126.2033201  34.9691537  65.4070837 125.5056164
  33.4969688  65.2616592 125.8271803  46.1919411  73.6300510 125.1347461
  46.6255918  73.5375799 125.9830515  46.9050992  73.6058011 124.4967477
  35.1052462  74.8484509 122.3168194  35.8993060  74.3534829 122.1150768
  34.3944154  74.3202372 121.9535899  39.9247306  77.2302604 126.6680561
  39.9784328  77.7993541 127.4358277  39.0562087  77.4004489 126.3034598
  31.4135225  68.9927590 118.3927946  30.4832813  68.9312046 118.6097908
  31.5092697  68.4703543 117.5964587  31.3320774  65.5182403 120.9806188
  31.5927591  66.4327737 120.8715348  32.1537946  65.0506846 121.1302801
  32.8045699  66.9320160 128.1505012  33.4768753  66.7237523 127.5017661
  31.9775486  66.7342246 127.7110245  47.0534961  73.6724211 127.6680346
  47.2470851  74.5770021 127.9139621  46.9535579  73.2131630 128.5018931
  38.7071271  63.5582101 130.1670673  38.0599187  64.2572051 130.0735150
  39.4772287  63.9918245 130.5346921  42.1150069  73.8230954 133.2421227
  41.9635576  73.5941505 132.3251310  42.1054749  74.7801555 133.2552572
  38.8835406  71.3962866 128.2267493  39.8127466  71.5474026 128.0536460
  38.4626436  71.4846887 127.3716140  37.6823738  75.4213531 125.9966031
  37.5434823  75.0532315 126.8691969  36.8938334  75.9361170 125.8249988
  38.2771890  80.5222627 117.3391567  38.4523645  80.0510670 118.1537190
  37.5904678  81.1488393 117.5672828  39.2328953  74.7995133 123.3854868
  38.8978785  74.7595903 124.2812518  38.7332898  74.1339849 122.9125279
  33.2073197  70.2062763 128.9107450  33.0692995  69.4743002 129.5118989
  34.1178120  70.1171664 128.6291637  42.1688144  72.1451168 113.6591928
  41.5517315  71.4197996 113.5624981  41.7004633  72.9060528 113.3159002
  35.8355497  69.9182723 128.3991129  36.5455116  69.2775915 128.3577748
  35.7924806  70.1695618 129.3217310  43.8242276  76.8550076 131.3197708
  43.7654822  76.1709296 130.6528291  44.2261794  77.5969066 130.8678334
  34.5484431  66.9047941 130.2186769  34.0121788  66.4538679 130.8708365
  33.9601140  67.0393849 129.4757233  32.8432975  83.6711990 124.1131427
  33.0829573  84.3030514 124.7910446  32.0002171  83.3200030 124.3996787
  33.9586690  66.3636592 112.7813232  33.0816157  66.2425393 112.4175479
  34.4344443  65.5722670 112.5292121  43.8259683  74.8189660 129.5511688
  42.9386462  74.4815582 129.6738087  44.3958234  74.0872691 129.7880453
  25.4788830  71.1513752 122.8754739  26.1659870  70.8375482 122.2875755
  25.3236959  72.0555116 122.6021991  30.2823553  66.0403948 127.3039763
  30.1981741  65.4329618 126.5690173  29.4606259  66.5312967 127.3049260
  37.3560837  79.4791112 126.5172931  37.2831008  80.2846084 127.0292236
  36.9138230  79.6783078 125.6920953  37.1450616  78.7162882 120.0275753
  36.3618138  79.2584563 120.1213977  37.8443362  79.2336862 120.4269994
  40.4547266  64.5257512 122.6709958  40.9515966  63.7727474 122.3511028
  39.6834248  64.5621829 122.1053168  48.3077024  70.2297877 124.3128250
  48.2966900  71.1122593 123.9422183  47.4394403  69.8769428 124.1182787
  39.8159520  79.3777946 128.6731090  40.5287492  80.0125411 128.6006991
  39.3249549  79.4741812 127.8571092  41.5377047  73.2829199 120.2448382
  40.6033326  73.4030662 120.0753086  41.7153716  72.3801666 119.9808391
  37.0382235  66.6674895 122.3981643  36.6680023  66.1145935 123.0862548
  37.5341328  66.0633028 121.8456643  44.9249598  69.1246518 120.7798416
  45.3910051  69.9574510 120.7058718  45.3757099  68.6591500 121.4843674
  34.8671434  77.1272390 129.4936661  35.5680893  77.7608873 129.6466055
  34.3966549  77.4687121 128.7332300  42.9925830  75.4690340 117.7784568
  43.2685674  75.3546934 118.6878442  42.1230328  75.0707825 117.7396741
  42.8966261  61.4927105 124.8189317  41.9829341  61.7231332 124.9871524
  43.3259363  61.5765549 125.6703349  42.6672720  69.6816997 127.3189211
  42.0144170  69.9292905 126.6641664  43.0453100  68.8681136 126.9851688
  39.6279894  79.7176691 121.4217381  39.8102288  78.8998346 121.8845134
  40.4512880  79.9344383 120.9842271  39.9622059  78.6444876 118.6832430
  40.4909826  78.1337330 118.0702592  40.2250279  78.3287406 119.5477963
  38.7160293  70.4236808 133.8055248  38.0400930  70.3230938 134.4757623
  39.5387927  70.2676022 134.2691245  30.4639152  76.6608745 126.4267763
  31.0492589  75.9152433 126.5595668  30.2663990  76.9712702 127.3104427
  33.3177807  79.6959992 121.4430206  32.6488182  80.1806120 120.9594246
  33.1790677  79.9429213 122.3573584  25.0556807  69.2314345 125.1472207
  25.0940906  68.6977936 125.9409325  24.5497099  68.7049551 124.5283184
  37.4583076  81.7303736 128.0412864  38.0101384  81.8935357 128.8061949
  37.7989269  82.3208174 127.3692889  32.4347569  64.0778886 128.6434749
  32.4988895  64.9393717 128.2312147  32.3714689  63.4652887 127.9107107
  31.9099841  66.1502018 132.2907783  32.5371880  65.7679096 132.9045308
  31.0527760  65.9316220 132.6563476  42.3093950  76.5564993 133.8961519
  42.8533854  77.1694952 133.4016473  41.7280795  77.1144572 134.4128532
  28.6865384  67.9578447 118.2226138  28.9818825  67.0489126 118.1693192
  27.7853420  67.9366187 117.9007140  40.5951463  79.6785711 125.0276546
  40.4702602  78.8775451 124.5187492  41.2530554  80.1731905 124.5390516
  32.2159631  66.0334444 124.2053687  31.4946217  66.6470412 124.0661160
  33.0052887  66.5692209 124.1270333  42.6586371  77.4794731 126.6556096
  41.7116707  77.3600083 126.5834423  43.0069144  76.5917230 126.7382358
  35.0185945  63.3688870 130.4794338  35.5420346  63.6151167 131.2420648
  34.7998278  64.2008905 130.0597476  30.4153226  65.6392545 118.3465463
  30.0865932  64.7589924 118.1640569  30.7692596  65.5840214 119.2341852
  39.6632805  77.2747448 122.8560449  39.5157767  76.3464155 123.0368019
  40.4886298  77.2967538 122.3717524  33.5295049  65.9265515 118.7140941
  33.8691121  66.4551436 117.9919549  33.9767169  66.2645921 119.4899507
  43.2666926  78.0976006 123.9425321  44.1913474  77.8918868 123.8049773
  43.0982230  77.8492408 124.8514663  36.2238490  64.3102565 128.1644009
  35.8835310  63.5110379 128.5664689  35.5177496  64.6104276 127.5920842
  36.8754962  61.3951878 126.6171332  37.6981031  60.9212356 126.4950222
  37.1193025  62.1742362 127.1170018  35.5163196  64.4240136 116.9134234
  36.2371559  64.8021389 116.4097950  34.8928500  65.1429013 117.0169212
  39.6594319  65.1285285 117.8492566  39.8757933  66.0109923 117.5481394
  39.1788386  64.7371499 117.1198208  34.3993540  68.0870999 124.4263311
  34.2538121  68.4011302 125.3187592  33.9218744  68.7055899 123.8734209
  36.2589923  65.0773547 124.4744200  36.2451492  64.1814640 124.1376498
  36.9762351  65.0844210 125.1082486  38.1116054  65.5110887 126.5197328
  37.8533832  66.4327957 126.5181658  37.5801094  65.1141321 127.2097792
  43.0562243  78.6161674 119.2987413  43.2299120  78.0508096 118.5461265
  43.5491134  79.4162569 119.1166903  28.8739202  70.6276343 127.3650972
  28.3292671  71.4036151 127.4971246  29.7518552  70.9747147 127.2070093
  35.6626819  63.9587927 119.7431770  35.7842730  63.0304573 119.9422658
  35.3728861  63.9726613 118.8310086  38.5318010  61.6442837 122.8798490
  38.5539706  61.7082170 121.9250470  38.9486069  60.8047346 123.0738996
  48.9101634  71.3798097 120.9177713  49.3532780  70.6305422 120.5196836
  48.0328144  71.3708233 120.5351445  44.0437415  77.9328438 116.3984311
  44.7388320  78.5535131 116.6171626  44.3860565  77.0823789 116.6736689
  29.6605224  69.7546239 130.2581129  28.9186960  69.9028875 130.8445759
  29.3397969  70.0154505 129.3947878  45.9428838  75.3828144 117.9271642
  46.4680162  75.7215417 117.2020962  45.8551191  74.4475159 117.7434777
  37.6048887  79.2962217 130.0561519  37.9136013  79.0511364 130.9284218
  38.4024369  79.5008856 129.5680389  37.6269499  81.4500127 122.2866895
  37.1874489  80.9576506 122.9799752  38.3777616  80.9073095 122.0458970
  30.1061838  77.6411668 122.2891523  30.9319858  77.3415440 121.9090167
  29.7555890  76.8719290 122.7381312  35.0743371  76.9938136 124.3589197
  34.4523380  76.3308841 124.0591425  35.7448238  77.0199268 123.6762845
  28.3070443  75.5597994 123.2480457  27.4702351  75.1320169 123.0664458
  28.2794088  75.7530438 124.1851248  35.1467899  65.4719924 133.9521703
  35.1956054  66.3482047 133.5699472  35.6890413  64.9297317 133.3793346
  45.6322744  76.0161047 133.2322840  44.8418288  75.9985186 132.6927339
  45.3956099  76.5549341 133.9871876  45.7520619  72.8653514 130.5455568
  45.8018624  72.7003521 131.4871091  45.6434543  71.9980773 130.1553449
  34.6356878  75.5442060 117.8347657  34.7844998  76.2277524 117.1814330
  35.4423322  75.5247150 118.3497113  43.0424382  68.8484442 131.8614875
  43.9434245  68.7090907 131.5698873  43.1172356  69.0138897 132.8013053
  37.3767187  66.2251297 130.7068061  36.5070497  66.5184863 130.4350650
  37.6126667  66.8091742 131.4275325  47.2538816  75.2850455 130.7897590
  46.9623625  75.6480436 131.6261051  46.6410947  74.5717464 130.6110922
  48.4534499  72.8503335 123.3100160  49.2881390  73.2893139 123.4737721
  48.5893627  72.3741988 122.4908406  45.5026004  70.4083070 129.2577648
  45.9780126  70.6010716 128.4496499  44.5791570  70.4642256 129.0121032
  32.3909511  71.5707237 118.8408726  32.1455553  70.6669567 119.0388936
  32.5605426  71.5724388 117.8988204  40.0806221  62.4430914 128.2233482
  40.5988165  63.1791940 127.8979970  39.7261354  62.7494907 129.0580241
  31.6605159  67.3035595 116.3394888  30.9674404  67.3779950 115.6834924
  31.4156910  66.5395938 116.8616405  40.3318815  58.8631196 123.7434378
  40.6120569  58.1954385 124.3694805  41.1169422  59.0560292 123.2309042
  38.1352284  78.0390190 115.3059405  37.5626251  78.6580377 114.8529877
  38.7085077  78.5889552 115.8399327  44.2027673  67.2848830 127.4905954
  45.1545096  67.3846928 127.5118178  44.0331124  66.4927099 128.0004038
  42.2242053  64.3704413 127.6765355  41.6291985  64.6509426 126.9811843
  41.9391750  64.8598314 128.4482096  41.3549543  78.3227340 116.4367987
  42.2880217  78.2572902 116.6400863  41.2672756  79.1583607 115.9782520
  43.9837560  77.6393210 113.3971935  43.9051192  77.3053074 114.2907693
  44.8047227  78.1314978 113.3963407  46.6815751  70.5054950 126.6048253
  46.6492071  69.5670950 126.7907937  47.2916375  70.5838986 125.8714078
  38.5199082  69.3751003 112.6475457  39.4658187  69.2457211 112.7163875
  38.1413327  68.6365665 113.1244885  46.8310240  67.2965993 126.6506536
  46.3149288  66.5124450 126.4636465  47.7150188  66.9684710 126.8153056
  44.4920967  61.0407009 122.6102349  44.2945788  60.7322097 123.4945681
  45.1020672  61.7668648 122.7400279  52.4992301  71.5670957 125.7454290
  53.2295690  71.3056245 126.3061993  51.8899247  70.8299679 125.7856358
  50.5807598  69.7078819 126.3428741  49.8540762  69.5734784 125.7345233
  50.1654885  70.0155648 127.1485459  38.4037775  73.4268749 134.1076114
  39.3240784  73.6047348 134.3016161  38.3687358  72.4824794 133.9555814
  36.7041999  67.3000979 112.5830342  35.7973455  67.0034092 112.6593056
  36.9817980  67.0030797 111.7164629  27.6219940  68.6207343 123.0329389
  27.3022724  67.7672651 122.7403763  27.0753368  68.8355921 123.7887356
  31.3999847  71.3369784 126.7498895  31.6185857  72.2686891 126.7686929
  31.8125621  70.9777758 127.5353699  38.3204065  61.8437869 118.7374584
  37.5104793  61.4984954 119.1129830  39.0088482  61.5345413 119.3262195
  40.2494613  60.9215916 120.3598880  40.8025652  61.3411369 121.0188904
  40.4864700  59.9951664 120.4021836  36.2727712  66.9102989 136.1401644
  36.1724439  67.8597346 136.0713735  36.0549255  66.5821228 135.2677714
  35.4740784  64.1587914 112.7242322  36.3359948  64.4842813 112.9838139
  35.6591128  63.3719410 112.2115387  27.4908200  72.2410254 125.0022510
  26.7971671  71.8264207 124.4892465  28.2381191  72.2830791 124.4055929
  43.6273420  63.0316441 119.8677545  43.0472089  63.6901245 119.4855597
  43.3609353  62.2093785 119.4564962  42.0776987  62.4321498 122.0698865
  42.5776765  62.5438033 121.2613184  42.7212595  62.1282551 122.7099673
  36.1358983  70.3400128 134.9566706  35.6526064  71.1400488 135.1630595
  36.2219922  70.3508073 134.0034150  29.4044942  72.1728508 122.8788525
  29.3815630  72.2716195 121.9270408  29.7145579  73.0193659 123.2005691
  32.0632320  74.2304663 126.9935140  33.0175574  74.1988605 126.9265071
  31.8644844  73.7695287 127.8085366  32.6531702  72.8005779 129.5605937
  33.4724591  73.2949858 129.5840775  32.9268510  71.8837747 129.5323505
  42.4098298  65.1916531 118.9233893  41.5224153  65.4766182 118.7054088
  42.8252287  65.0310295 118.0761170  45.7612835  65.2163052 122.6388232
  46.5373225  65.7059505 122.9112849  45.0360969  65.6421106 123.0960102
  48.1985393  65.9290671 123.6962173  48.7929884  65.6886407 122.9855481
  48.2711977  65.2097802 124.3235709  30.4182549  79.7724282 124.0105338
  30.2837017  79.0124683 123.4443336  30.0014611  80.4965182 123.5434127
  41.5541512  74.9561206 113.0181913  42.2577362  75.1611208 113.6339569
  40.8304161  75.5237968 113.2830996  42.3839322  70.7071067 119.1384183
  42.3274524  71.1639619 118.2991816  42.9367665  69.9461752 118.9607026
  46.1944128  66.4960799 119.9634303  45.9381062  66.0957435 120.7942510
  45.5696996  67.2104593 119.8384442  50.5056466  69.2356872 122.4705594
  49.9456024  69.3050062 123.2437156  49.8999969  69.0597857 121.7505090
  33.5751675  80.6693599 124.2223780  33.4584059  81.6139032 124.1202471
  32.7544121  80.3667161 124.6109579  43.4628209  75.3943735 115.0680373
  44.2973813  74.9624934 114.8857848  43.3012552  75.2225749 115.9957267
  43.1174101  71.8975848 116.4336712  43.0622905  71.7320120 115.4925156
  42.4920157  72.6051881 116.5898902  27.9066616  67.1343913 130.2598134
  28.5525480  66.6242867 130.7485360  27.6983768  67.8712594 130.8341560
  40.4320009  74.2024760 135.7590275  41.3011168  74.3765412 135.3976910
  39.9526760  75.0219177 135.6366004  36.4270227  61.3983957 116.0122031
  36.4148897  62.3425797 116.1690302  37.3193649  61.2154103 115.7181492
  34.6006189  81.3221861 127.4379709  35.5033436  81.3545471 127.7546204
  34.3743559  80.3922312 127.4526045  36.3559791  80.0752848 124.0989787
  35.4055422  80.0754709 123.9854160  36.6592277  79.3285582 123.5825822
  40.2422346  57.9926734 120.2667967  39.4754742  57.4385221 120.4124650
  40.6533051  58.0648603 121.1282119  32.2464107  64.2811530 134.3573149
  33.1095569  63.9248335 134.5676473  31.6729518  63.9425425 135.0448553
  52.0912484  85.9113386 125.1635550  52.7290894  85.7920133 124.4598890
  51.9733327  86.8594230 125.2223502  48.9002191  85.8640814 125.0997074
  48.5620702  85.7481879 124.2117609  49.7691959  85.4631979 125.0798081
  44.7589006  87.7176291 121.0893965  44.1953871  87.6266228 120.3210253
  44.6441401  86.8976195 121.5696458  49.3821974  87.0175666 131.0583280
  49.3710614  86.6228464 130.1863784  49.5442613  86.2841739 131.6517051
  42.3053438  89.2127482 123.9278186  43.0974730  88.8718307 123.5124485
  42.5450088  89.3222457 124.8480339  50.3388565  91.3847258 116.4008430
  49.6876545  91.9701339 116.0142444  51.1332928  91.9153453 116.4603468
  44.2644192  88.4736396 116.7995565  45.0375068  87.9265383 116.6608440
  44.6169591  89.3380645 117.0110026  46.1029235  89.8012778 130.0062464
  45.8119101  90.7058409 129.8909130  46.7386219  89.8429305 130.7206533
  47.0285442  87.1789626 126.5963824  47.6249014  86.9545649 125.8820787
  47.0860413  86.4374372 127.1989271  46.6010470  84.6329062 114.4314015
  46.8535991  84.1110583 113.6697478  45.6635029  84.4695207 114.5340698
  51.6453753  83.6364840 122.2388758  52.4316842  83.2184263 121.8879175
  51.9092457  84.5410932 122.4070406  51.8163830  89.0737690 116.9377415
  51.1809663  89.1472317 117.6498319  51.4861237  89.6631289 116.2596494
  57.0462180  83.5740073 123.1421736  57.7787352  83.0039290 123.3759566
  56.2901536  83.1861674 123.5828242  46.3206759  86.5357168 116.6338390
  46.2043017  85.8602071 117.3019474  46.4309019  86.0489542 115.8170543
  48.6638300  85.9967315 120.3385079  48.2996507  85.4697936 121.0498000
  49.5205416  85.6065784 120.1651564  54.5687600  77.2861647 127.6016345
  54.2370925  78.1557058 127.3777560  53.9733214  76.9697931 128.2810375
  48.3043787  81.0257214 115.3346427  48.4718189  81.8937451 115.7016898
  48.1140956  81.1884496 114.4107717  51.0619120  89.4874193 127.0012258
  50.7619843  90.3899232 126.8928065  50.7170179  89.2206376 127.8533411
  44.5131601  85.9387990 123.0348962  43.5882098  85.8064204 123.2426654
  44.7616015  86.7182209 123.5318904  54.4616264  82.0056733 124.6809695
  53.5533141  81.9372142 124.3868456  54.4103859  82.4828678 125.5091520
  48.2833008  83.4814872 116.3193094  48.1632633  83.9271923 117.1578574
  47.5885596  83.8300190 115.7606632  41.8740412  85.5821264 123.8692751
  42.0032794  85.8355743 124.7832163  41.1937864  86.1748972 123.5497406
  46.0439900  96.2518514 119.9683225  45.9663929  97.2026339 120.0471706
  45.4401543  95.9064386 120.6258152  48.5357129  83.4246379 132.6244592
  47.7590463  83.9840299 132.6147457  49.1747692  83.9103162 133.1459462
  56.3277910  80.2073172 126.4587569  55.6852290  80.5005705 125.8127363
  55.8232839  80.0926092 127.2640766  53.9818074  83.9536345 117.1473428
  54.8935930  84.1863732 116.9721126  53.4727721  84.5373389 116.5848507
  46.7903502  86.2331832 132.1862559  47.5318186  86.7716876 131.9097383
  46.0840487  86.8598121 132.3434111  52.2658841  88.3760973 130.7834721
  52.6742197  87.9343383 130.0389353  51.5436103  87.8013600 131.0368914
  48.6189911  83.3133580 128.1568278  49.4651107  83.7372993 128.3002927
  48.5588549  82.6567204 128.8506841  52.5887656  88.9362164 124.5387010
  51.9596518  89.1007878 123.8363077  52.2013318  89.3503773 125.3097974
  56.4676888  89.8716601 121.8931373  55.7827926  90.2515503 121.3428407
  56.5520737  90.4811928 122.6263321  51.7689357  80.9737948 129.8149451
  51.5250289  81.7280009 129.2783727  52.0449287  81.3523296 130.6496698
  53.7227819  87.5176560 128.4926717  53.9344715  88.1608320 127.8161098
  53.6757568  86.6838877 128.0248647  51.3254048  80.1294381 125.3963289
  50.4638527  80.4275635 125.6880027  51.3516483  80.3464780 124.4644322
  48.1415618  88.6736572 121.8037095  48.6053963  88.9524275 121.0141717
  47.8772416  87.7720016 121.6210185  45.0339699  88.2208053 124.7416858
  45.6041056  88.6495322 124.1034342  45.6247811  87.9390638 125.4401044
  47.0784504  84.7959724 118.6126660  47.7808547  85.2480768 119.0800586
  46.7465132  84.1543543 119.2406553  45.5264865  83.3871481 132.9877869
  44.8963526  84.0687761 133.2213266  45.4200953  83.2754562 132.0431007
  40.8209838  83.0543277 123.9143793  40.0308892  83.3100805 123.4383904
  41.3121085  83.8691614 124.0195834  54.8373647  90.3948516 126.6649074
  55.6591091  89.9928703 126.3831756  54.8336050  90.2916750 127.6165190
  42.7724583  83.4187856 120.8727270  41.9755747  83.5306550 121.3910766
  42.5450175  83.7574508 120.0068161  48.6030251  89.9432559 128.8209785
  48.6674683  90.4052966 129.6567957  47.8941175  89.3129924 128.9492095
  39.1047541  83.3073767 126.3458784  39.3555579  84.1920777 126.6116360
  39.6407089  83.1278369 125.5733876  62.9279640  86.7387264 123.0134046
  62.1743349  86.1694662 122.8578050  63.0627182  86.7049929 123.9604680
  48.3178269  91.6100667 118.6888765  48.1823943  92.4552202 119.1173613
  48.8588081  91.8119944 117.9254699  44.8045608  77.6892246 135.3503120
  44.4112554  77.1358445 136.0250765  45.6211749  78.0002825 135.7409638
  41.7707666  89.1276105 119.2616690  42.2832187  89.9219355 119.4122255
  42.4230379  88.4302395 119.1950292  43.5802551  92.2441861 121.3439443
  43.7569179  93.1659826 121.1560427  44.3759384  91.9300280 121.7733823
  47.7213569  79.1050126 132.9423377  48.4623283  79.7057279 132.8627839
  47.9531492  78.3627763 132.3841419  42.8654907  84.2906493 131.2201607
  42.7508422  83.3891750 131.5208705  42.0099425  84.5370190 130.8686423
  49.9446745  92.2324233 132.8189107  49.5010599  91.4460612 132.5010012
  50.6063959  92.4203384 132.1532998  44.7033866  93.7620035 127.3449786
  45.2541291  93.6337098 126.5726780  43.8645342  94.0614924 126.9944678
  52.0427983  92.5127033 130.8470508  52.0246458  93.3335914 130.3550778
  52.9647903  92.3881108 131.0720650  48.5001037  90.0271163 131.6894017
  49.0329374  89.2659451 131.4593325  47.9715118  89.7344814 132.4318171
  51.6670732  75.1331228 127.2187659  51.3235002  76.0232870 127.1426769
  52.0349695  74.9432886 126.3557244  39.7356583  87.4564759 120.0376261
  40.5731805  87.8661767 119.8209968  39.9134850  86.5164201 120.0076455
  51.6321015  85.1239840 115.7260094  51.1167638  85.8944444 115.9648481
  51.3598323  84.4504976 116.3493155  49.2168126  79.9689540 120.7845332
  48.3609722  79.5796391 120.6050971  49.6295078  80.0481501 119.9245118
  50.7467273  77.5035884 125.1836892  50.2432068  77.4666019 124.3704697
  51.0397879  78.4128626 125.2433548  46.9910158  77.5874613 124.1903073
  47.8563155  77.3917422 123.8308963  47.0587667  77.3584965 125.1172430
  56.6055289  87.8772194 117.6613267  55.8284732  87.5383354 117.2168429
  57.2846770  87.8824817 116.9868232  51.4207318  82.9966932 117.5519875
  51.1157454  83.3113081 118.4030018  52.3737760  83.0748352 117.5947208
  49.8653750  89.1557155 119.2012829  49.3375111  88.4209915 118.8886066
  49.3641253  89.9331831 118.9552797  54.8446596  87.3506175 124.3179875
  54.1870270  88.0405437 124.4060004  55.6486995  87.7402607 124.6613861
  44.5972477  79.8176821 121.5619440  45.1716229  79.5952003 120.8292633
  45.1843460  79.8865516 122.3148042  53.6552055  85.7050548 122.3683817
  54.1683936  86.3380540 122.8705527  54.3053279  85.1051744 122.0027177
  44.9242065  81.8481282 115.5815326  44.0879377  82.1855969 115.9024600
  44.7846834  81.7130262 114.6442463  46.8995145  76.6918070 120.2894510
  46.2459558  76.3767087 119.6651125  46.8575619  76.0693811 121.0154333
  48.0106350  86.9737365 112.2047802  47.1033412  86.7426619 112.4038951
  48.5077382  86.1774985 112.3921783  50.9174429  95.6834872 115.1244488
  50.2436128  95.9866569 115.7329446  51.3040251  96.4863953 114.7749945
  50.1332886  83.1800004 124.6142157  49.2155447  83.4014951 124.4563845
  50.5493029  83.2546314 123.7553865  50.9167933  84.5791419 119.7444838
  51.6639752  85.0912817 119.4351960  51.1859523  84.2575472 120.6049231
  49.1894583  87.0749960 116.7271792  48.2805803  86.7908993 116.8244262
  49.2189667  87.4949039 115.8675099  54.4213851  90.6856550 120.4962959
  53.9676178  89.8447460 120.5528150  53.7907818  91.3217948 120.8337740
  53.3646770  81.6148536 121.7263627  52.6269527  81.1025922 122.0573869
  53.6173544  81.1748917 120.9146904  52.8646790  92.5233046 121.4312778
  53.1569765  93.0838103 120.7125143  53.3745411  92.8161607 122.1865937
  53.4658398  74.3924788 122.3205396  53.7717275  73.5322151 122.0331311
  54.1911003  74.9842408 122.1204390  39.7582754  84.7955474 120.7086994
  39.5607154  84.2024835 119.9838061  39.2029418  84.4907684 121.4262933
  47.7379478  84.6878581 122.8281587  47.7928087  83.7352417 122.7524064
  46.9270680  84.8438020 123.3122886  48.8870671  88.6158704 114.0659870
  48.4490101  87.8994563 113.6065508  49.6281112  88.8434819 113.5044962
  45.6771837  83.3055640 120.5871966  44.8639703  83.6049811 120.9937158
  46.1730832  82.9111329 121.3046448  47.8280415  93.3013397 122.5206231
  47.7856594  93.5274244 121.5914763  48.7443114  93.0676772 122.6692032
  51.2746049  83.7697465 129.4186860  51.6295437  83.9968938 130.2781326
  51.9218180  84.1015842 128.7964115  57.0043786  86.8915901 120.1236189
  56.8661685  87.0817497 119.1957378  56.6480005  87.6535284 120.5804240
  45.1685912  80.8773996 126.2033201  45.8085292  80.7362755 125.5056164
  44.3363443  80.5908509 125.8271803  57.0313166  88.9592428 125.1347461
  57.4649672  88.8667717 125.9830515  57.7444746  88.9349928 124.4967477
  45.9446216  90.1776426 122.3168194  46.7386815  89.6826747 122.1150768
  45.2337908  89.6494290 121.9535899  50.7641061  92.5594522 126.6680561
  50.8178083  93.1285458 127.4358277  49.8955842  92.7296407 126.3034598
  42.2528980  84.3219508 118.3927946  41.3226568  84.2603964 118.6097908
  42.3486452  83.7995461 117.5964587  42.1714529  80.8474321 120.9806188
  42.4321346  81.7619654 120.8715348  42.9931701  80.3798764 121.1302801
  43.6439454  82.2612078 128.1505012  44.3162507  82.0529440 127.5017661
  42.8169240  82.0634164 127.7110245  57.8928715  89.0016128 127.6680346
  58.0864605  89.9061939 127.9139621  57.7929333  88.5423548 128.5018931
  49.5465026  78.8874019 130.1670673  48.8992941  79.5863969 130.0735150
  50.3166041  79.3210163 130.5346921  52.9543824  89.1522871 133.2421227
  52.8029330  88.9233423 132.3251310  52.9448503  90.1093473 133.2552572
  49.7229160  86.7254784 128.2267493  50.6521220  86.8765944 128.0536460
  49.3020190  86.8138805 127.3716140  48.5217492  90.7505448 125.9966031
  48.3828578  90.3824233 126.8691969  47.7332088  91.2653088 125.8249988
  49.1165644  95.8514545 117.3391567  49.2917400  95.3802588 118.1537190
  48.4298432  96.4780311 117.5672828  50.0722707  90.1287051 123.3854868
  49.7372540  90.0887821 124.2812518  49.5726653  89.4631767 122.9125279
  44.0466951  85.5354681 128.9107450  43.9086749  84.8034920 129.5118989
  44.9571875  85.4463581 128.6291637  53.0081899  87.4743085 113.6591928
  52.3911070  86.7489914 113.5624981  52.5398387  88.2352446 113.3159002
  46.6749252  85.2474640 128.3991129  47.3848870  84.6067833 128.3577748
  46.6318560  85.4987535 129.3217310  54.6636031  92.1841994 131.3197708
  54.6048577  91.5001214 130.6528291  55.0655549  92.9260984 130.8678334
  45.3878186  82.2339858 130.2186769  44.8515543  81.7830597 130.8708365
  44.7994894  82.3685767 129.4757233  43.6826729  99.0003908 124.1131427
  43.9223328  99.6322432 124.7910446  42.8395926  98.6491948 124.3996787
  44.7980445  81.6928510 112.7813232  43.9209911  81.5717311 112.4175479
  45.2738198  80.9014588 112.5292121  54.6653438  90.1481578 129.5511688
  53.7780217  89.8107500 129.6738087  55.2351989  89.4164609 129.7880453
  36.3182585  86.4805669 122.8754739  37.0053625  86.1667399 122.2875755
  36.1630714  87.3847034 122.6021991  41.1217307  81.3695866 127.3039763
  41.0375496  80.7621536 126.5690173  40.3000013  81.8604884 127.3049260
  48.1954591  94.8083030 126.5172931  48.1224763  95.6138002 127.0292236
  47.7531984  95.0074996 125.6920953  47.9844371  94.0454800 120.0275753
  47.2011893  94.5876480 120.1213977  48.6837116  94.5628780 120.4269994
  51.2941021  79.8549430 122.6709958  51.7909720  79.1019392 122.3511028
  50.5228002  79.8913746 122.1053168  59.1470778  85.5589795 124.3128250
  59.1360655  86.4414511 123.9422183  58.2788158  85.2061346 124.1182787
  50.6553275  94.7069864 128.6731090  51.3681247  95.3417329 128.6006991
  50.1643303  94.8033730 127.8571092  52.3770802  88.6121117 120.2448382
  51.4427080  88.7322579 120.0753086  52.5547470  87.7093584 119.9808391
  47.8775990  81.9966813 122.3981643  47.5073777  81.4437853 123.0862548
  48.3735082  81.3924946 121.8456643  55.7643353  84.4538436 120.7798416
  56.2303805  85.2866428 120.7058718  56.2150853  83.9883418 121.4843674
  45.7065188  92.4564308 129.4936661  46.4074648  93.0900791 129.6466055
  45.2360303  92.7979039 128.7332300  53.8319584  90.7982257 117.7784568
  54.1079428  90.6838852 118.6878442  52.9624083  90.3999742 117.7396741
  53.7360016  76.8219023 124.8189317  52.8223096  77.0523250 124.9871524
  54.1653117  76.9057467 125.6703349  53.5066474  85.0108915 127.3189211
  52.8537924  85.2584822 126.6641664  53.8846854  84.1973053 126.9851688
  50.4673648  95.0468608 121.4217381  50.6496043  94.2290264 121.8845134
  51.2906634  95.2636300 120.9842271  50.8015814  93.9736793 118.6832430
  51.3303580  93.4629248 118.0702592  51.0644033  93.6579324 119.5477963
  49.5554047  85.7528726 133.8055248  48.8794684  85.6522855 134.4757623
  50.3781681  85.5967940 134.2691245  41.3032906  91.9900663 126.4267763
  41.8886343  91.2444351 126.5595668  41.1057745  92.3004619 127.3104427
  44.1571562  95.0251910 121.4430206  43.4881937  95.5098038 120.9594246
  44.0184431  95.2721130 122.3573584  35.8950561  84.5606263 125.1472207
  35.9334661  84.0269854 125.9409325  35.3890854  84.0341468 124.5283184
  48.2976830  97.0595654 128.0412864  48.8495138  97.2227275 128.8061949
  48.6383024  97.6500091 127.3692889  43.2741323  79.4070803 128.6434749
  43.3382650  80.2685634 128.2312147  43.2108444  78.7944805 127.9107107
  42.7493596  81.4793936 132.2907783  43.3765635  81.0971013 132.9045308
  41.8921515  81.2608138 132.6563476  53.1487704  91.8856911 133.8961519
  53.6927608  92.4986869 133.4016473  52.5674549  92.4436489 134.4128532
  39.5259139  83.2870365 118.2226138  39.8212580  82.3781043 118.1693192
  38.6247174  83.2658104 117.9007140  51.4345217  95.0077629 125.0276546
  51.3096357  94.2067369 124.5187492  52.0924309  95.5023822 124.5390516
  43.0553386  81.3626362 124.2053687  42.3339971  81.9762329 124.0661160
  43.8446641  81.8984126 124.1270333  53.4980126  92.8086649 126.6556096
  52.5510461  92.6892000 126.5834423  53.8462899  91.9209147 126.7382358
  45.8579699  78.6980788 130.4794338  46.3814101  78.9443085 131.2420648
  45.6392032  79.5300823 130.0597476  41.2546980  80.9684463 118.3465463
  40.9259686  80.0881842 118.1640569  41.6086351  80.9132131 119.2341852
  50.5026559  92.6039365 122.8560449  50.3551522  91.6756073 123.0368019
  51.3280053  92.6259456 122.3717524  44.3688803  81.2557432 118.7140941
  44.7084876  81.7843354 117.9919549  44.8160924  81.5937839 119.4899507
  54.1060681  93.4267924 123.9425321  55.0307228  93.2210785 123.8049773
  53.9375984  93.1784325 124.8514663  47.0632244  79.6394483 128.1644009
  46.7229065  78.8402296 128.5664689  46.3571250  79.9396194 127.5920842
  47.7148716  76.7243796 126.6171332  48.5374785  76.2504274 126.4950222
  47.9586780  77.5034279 127.1170018  46.3556951  79.7532054 116.9134234
  47.0765313  80.1313307 116.4097950  45.7322255  80.4720931 117.0169212
  50.4988073  80.4577203 117.8492566  50.7151688  81.3401841 117.5481394
  50.0182141  80.0663416 117.1198208  45.2387295  83.4162916 124.4263311
  45.0931876  83.7303219 125.3187592  44.7612498  84.0347817 123.8734209
  47.0983678  80.4065464 124.4744200  47.0845246  79.5106558 124.1376498
  47.8156106  80.4136128 125.1082486  48.9509808  80.8402804 126.5197328
  48.6927586  81.7619875 126.5181658  48.4194849  80.4433239 127.2097792
  53.8955997  93.9453592 119.2987413  54.0692875  93.3800014 118.5461265
  54.3884888  94.7454486 119.1166903  39.7132957  85.9568261 127.3650972
  39.1686425  86.7328069 127.4971246  40.5912307  86.3039065 127.2070093
  46.5020574  79.2879844 119.7431770  46.6236485  78.3596491 119.9422658
  46.2122616  79.3018530 118.8310086  49.3711764  76.9734755 122.8798490
  49.3933461  77.0374088 121.9250470  49.7879823  76.1339264 123.0738996
  59.7495388  86.7090014 120.9177713  60.1926534  85.9597340 120.5196836
  58.8721899  86.7000151 120.5351445  54.8831170  93.2620356 116.3984311
  55.5782074  93.8827049 116.6171626  55.2254320  92.4115707 116.6736689
  40.4998979  85.0838157 130.2581129  39.7580715  85.2320792 130.8445759
  40.1791723  85.3446423 129.3947878  56.7822593  90.7120061 117.9271642
  57.3073917  91.0507334 117.2020962  56.6944945  89.7767077 117.7434777
  48.4442641  94.6254135 130.0561519  48.7529768  94.3803282 130.9284218
  49.2418123  94.8300774 129.5680389  48.4663254  96.7792045 122.2866895
  48.0268244  96.2868423 122.9799752  49.2171370  96.2365012 122.0458970
  40.9455592  92.9703586 122.2891523  41.7713612  92.6707357 121.9090167
  40.5949644  92.2011208 122.7381312  45.9137126  92.3230054 124.3589197
  45.2917135  91.6600759 124.0591425  46.5841993  92.3491186 123.6762845
  39.1464198  90.8889912 123.2480457  38.3096106  90.4612086 123.0664458
  39.1187843  91.0822355 124.1851248  45.9861653  80.8011842 133.9521703
  46.0349809  81.6773965 133.5699472  46.5284167  80.2589235 133.3793346
  56.4716499  91.3452965 133.2322840  55.6812043  91.3277104 132.6927339
  56.2349853  91.8841259 133.9871876  56.5914374  88.1945431 130.5455568
  56.6412379  88.0295439 131.4871091  56.4828297  87.3272691 130.1553449
  45.4750633  90.8733977 117.8347657  45.6238753  91.5569442 117.1814330
  46.2817076  90.8539067 118.3497113  53.8818136  84.1776360 131.8614875
  54.7827999  84.0382824 131.5698873  53.9566111  84.3430814 132.8013053
  48.2160942  81.5543214 130.7068061  47.3464251  81.8476780 130.4350650
  48.4520422  82.1383659 131.4275325  58.0932571  90.6142373 130.7897590
  57.8017379  90.9772354 131.6261051  57.4804702  89.9009381 130.6110922
  59.2928253  88.1795253 123.3100160  60.1275144  88.6185057 123.4737721
  59.4287382  87.7033906 122.4908406  56.3419759  85.7374988 129.2577648
  56.8173881  85.9302634 128.4496499  55.4185324  85.7934173 129.0121032
  43.2303266  86.8999155 118.8408726  42.9849307  85.9961485 119.0388936
  43.3999180  86.9016305 117.8988204  50.9199975  77.7722831 128.2233482
  51.4381919  78.5083858 127.8979970  50.5655108  78.0786824 129.0580241
  42.4998913  82.6327512 116.3394888  41.8068158  82.7071867 115.6834924
  42.2550665  81.8687856 116.8616405  51.1712570  74.1923114 123.7434378
  51.4514323  73.5246303 124.3694805  51.9563177  74.3852209 123.2309042
  48.9746038  93.3682108 115.3059405  48.4020005  93.9872295 114.8529877
  49.5478832  93.9181469 115.8399327  55.0421428  82.6140748 127.4905954
  55.9938851  82.7138845 127.5118178  54.8724878  81.8219016 128.0004038
  53.0635807  79.6996331 127.6765355  52.4685740  79.9801344 126.9811843
  52.7785504  80.1890232 128.4482096  52.1943298  93.6519258 116.4367987
  53.1273971  93.5864819 116.6400863  52.1066511  94.4875525 115.9782520
  54.8231315  92.9685128 113.3971935  54.7444946  92.6344992 114.2907693
  55.6440981  93.4606896 113.3963407  57.5209506  85.8346867 126.6048253
  57.4885826  84.8962868 126.7907937  58.1310129  85.9130904 125.8714078
  49.3592837  84.7042920 112.6475457  50.3051941  84.5749128 112.7163875
  48.9807082  83.9657582 113.1244885  57.6703994  82.6257911 126.6506536
  57.1543043  81.8416367 126.4636465  58.5543943  82.2976627 126.8153056
  55.3314721  76.3698926 122.6102349  55.1339542  76.0614015 123.4945681
  55.9414427  77.0960565 122.7400279  63.3386056  86.8962874 125.7454290
  64.0689444  86.6348162 126.3061993  62.7293001  86.1591596 125.7856358
  61.4201353  85.0370737 126.3428741  60.6934516  84.9026702 125.7345233
  61.0048640  85.3447565 127.1485459  49.2431529  88.7560667 134.1076114
  50.1634539  88.9339266 134.3016161  49.2081112  87.8116712 133.9555814
  47.5435754  82.6292897 112.5830342  46.6367209  82.3326009 112.6593056
  47.8211735  82.3322715 111.7164629  38.4613694  83.9499260 123.0329389
  38.1416478  83.0964568 122.7403763  37.9147122  84.1647838 123.7887356
  42.2393602  86.6661701 126.7498895  42.4579611  87.5978809 126.7686929
  42.6519375  86.3069676 127.5353699  49.1597819  77.1729786 118.7374584
  48.3498548  76.8276871 119.1129830  49.8482236  76.8637330 119.3262195
  51.0888368  76.2507833 120.3598880  51.6419406  76.6703287 121.0188904
  51.3258454  75.3243581 120.4021836  47.1121467  82.2394907 136.1401644
  47.0118194  83.1889264 136.0713735  46.8943009  81.9113146 135.2677714
  46.3134538  79.4879832 112.7242322  47.1753702  79.8134730 112.9838139
  46.4984883  78.7011328 112.2115387  38.3301954  87.5702172 125.0022510
  37.6365426  87.1556124 124.4892465  39.0774945  87.6122708 124.4055929
  54.4667175  78.3608358 119.8677545  53.8865844  79.0193162 119.4855597
  54.2003108  77.5385703 119.4564962  52.9170741  77.7613416 122.0698865
  53.4170520  77.8729951 121.2613184  53.5606349  77.4574469 122.7099673
  46.9752737  85.6692046 134.9566706  46.4919819  86.4692406 135.1630595
  47.0613676  85.6799991 134.0034150  40.2438697  87.5020425 122.8788525
  40.2209385  87.6008113 121.9270408  40.5539333  88.3485576 123.2005691
  42.9026075  89.5596580 126.9935140  43.8569328  89.5280523 126.9265071
  42.7038598  89.0987204 127.8085366  43.4925457  88.1297697 129.5605937
  44.3118346  88.6241775 129.5840775  43.7662264  87.2129665 129.5323505
  53.2492053  80.5208449 118.9233893  52.3617908  80.8058099 118.7054088
  53.6646042  80.3602212 118.0761170  56.6006589  80.5454970 122.6388232
  57.3766979  81.0351422 122.9112849  55.8754723  80.9713024 123.0960102
  59.0379148  81.2582589 123.6962173  59.6323638  81.0178325 122.9855481
  59.1105731  80.5389720 124.3235709  41.2576303  95.1016200 124.0105338
  41.1230771  94.3416601 123.4443336  40.8408366  95.8257100 123.5434127
  52.3935266  90.2853123 113.0181913  53.0971116  90.4903126 113.6339569
  51.6697915  90.8529885 113.2830996  53.2233077  86.0362985 119.1384183
  53.1668278  86.4931536 118.2991816  53.7761419  85.2753669 118.9607026
  57.0337883  81.8252717 119.9634303  56.7774817  81.4249352 120.7942510
  56.4090751  82.5396511 119.8384442  61.3450220  84.5648790 122.4705594
  60.7849778  84.6341979 123.2437156  60.7393724  84.3889774 121.7505090
  44.4145429  95.9985517 124.2223780  44.2977813  96.9430949 124.1202471
  43.5937875  95.6959079 124.6109579  54.3021964  90.7235653 115.0680373
  55.1367568  90.2916851 114.8857848  54.1406307  90.5517666 115.9957267
  53.9567856  87.2267766 116.4336712  53.9016660  87.0612037 115.4925156
  53.3313911  87.9343799 116.5898902  38.7460371  82.4635830 130.2598134
  39.3919235  81.9534784 130.7485360  38.5377522  83.2004512 130.8341560
  51.2713763  89.5316678 135.7590275  52.1404923  89.7057330 135.3976910
  50.7920515  90.3511095 135.6366004  47.2663981  76.7275875 116.0122031
  47.2542651  77.6717715 116.1690302  48.1587403  76.5446020 115.7181492
  45.4399943  96.6513779 127.4379709  46.3427190  96.6837389 127.7546204
  45.2137313  95.7214230 127.4526045  47.1953545  95.4044765 124.0989787
  46.2449176  95.4046627 123.9854160  47.4986031  94.6577500 123.5825822
  51.0816101  73.3218652 120.2667967  50.3148497  72.7677138 120.4124650
  51.4926806  73.3940520 121.1282119  43.0857862  79.6103447 134.3573149
  43.9489323  79.2540252 134.5676473  42.5123273  79.2717342 135.0448553
  62.9306239 101.2405304 125.1635550  63.5684649 101.1212051 124.4598890
  62.8127082 102.1886148 125.2223502  59.7395945 101.1932732 125.0997074
  59.4014457 101.0773797 124.2117609  60.6085713 100.7923897 125.0798081
  55.5982761 103.0468208 121.0893965  55.0347626 102.9558145 120.3210253
  55.4835156 102.2268113 121.5696458  60.2215728 102.3467584 131.0583280
  60.2104369 101.9520382 130.1863784  60.3836368 101.6133656 131.6517051
  53.1447193 104.5419400 123.9278186  53.9368485 104.2010225 123.5124485
  53.3843843 104.6514375 124.8480339  61.1782320 106.7139176 116.4008430
  60.5270299 107.2993256 116.0142444  61.9726682 107.2445371 116.4603468
  55.1037947 103.8028313 116.7995565  55.8768823 103.2557300 116.6608440
  55.4563346 104.6672563 117.0110026  56.9422989 105.1304695 130.0062464
  56.6512855 106.0350326 129.8909130  57.5779974 105.1721223 130.7206533
  57.8679196 102.5081544 126.5963824  58.4642768 102.2837566 125.8820787
  57.9254168 101.7666289 127.1989271  57.4404225  99.9620979 114.4314015
  57.6929745  99.4402501 113.6697478  56.5028784  99.7987125 114.5340698
  62.4847507  98.9656758 122.2388758  63.2710597  98.5476181 121.8879175
  62.7486212  99.8702850 122.4070406  62.6557585 104.4029608 116.9377415
  62.0203418 104.4764234 117.6498319  62.3254991 104.9923207 116.2596494
  67.8855934  98.9031991 123.1421736  68.6181106  98.3331208 123.3759566
  67.1295290  98.5153591 123.5828242  57.1600513 101.8649085 116.6338390
  57.0436771 101.1893989 117.3019474  57.2702773 101.3781459 115.8170543
  59.5032054 101.3259232 120.3385079  59.1390261 100.7989853 121.0498000
  60.3599170 100.9357701 120.1651564  65.4081355  92.6153565 127.6016345
  65.0764680  93.4848976 127.3777560  64.8126968  92.2989849 128.2810375
  59.1437541  96.3549132 115.3346427  59.3111943  97.2229368 115.7016898
  58.9534710  96.5176414 114.4107717  61.9012874 104.8166111 127.0012258
  61.6013597 105.7191150 126.8928065  61.5563934 104.5498294 127.8533411
  55.3525356 101.2679908 123.0348962  54.4275852 101.1356122 123.2426654
  55.6009769 102.0474127 123.5318904  65.3010018  97.3348651 124.6809695
  64.3926895  97.2664060 124.3868456  65.2497614  97.8120596 125.5091520
  59.1226762  98.8106790 116.3193094  59.0026387  99.2563840 117.1578574
  58.4279350  99.1592107 115.7606632  52.7134167 100.9113181 123.8692751
  52.8426548 101.1647660 124.7832163  52.0331618 101.5040889 123.5497406
  56.8833654 111.5810431 119.9683225  56.8057684 112.5318256 120.0471706
  56.2795298 111.2356304 120.6258152  59.3750884  98.7538297 132.6244592
  58.5984218  99.3132217 132.6147457  60.0141447  99.2395080 133.1459462
  67.1671665  95.5365090 126.4587569  66.5246045  95.8297623 125.8127363
  66.6626593  95.4218010 127.2640766  64.8211828  99.2828263 117.1473428
  65.7329684  99.5155649 116.9721126  64.3121475  99.8665307 116.5848507
  57.6297256 101.5623750 132.1862559  58.3711941 102.1008794 131.9097383
  56.9234242 102.1890039 132.3434111  63.1052596 103.7052891 130.7834721
  63.5135952 103.2635301 130.0389353  62.3829857 103.1305518 131.0368914
  59.4583666  98.6425497 128.1568278  60.3044861  99.0664911 128.3002927
  59.3982304  97.9859122 128.8506841  63.4281410 104.2654081 124.5387010
  62.7990273 104.4299795 123.8363077  63.0407073 104.6795691 125.3097974
  67.3070642 105.2008519 121.8931373  66.6221681 105.5807420 121.3428407
  67.3914492 105.8103846 122.6263321  62.6083111  96.3029866 129.8149451
  62.3644043  97.0571926 129.2783727  62.8843042  96.6815213 130.6496698
  64.5621574 102.8468478 128.4926717  64.7738469 103.4900238 127.8161098
  64.5151322 102.0130795 128.0248647  62.1647803  95.4586299 125.3963289
  61.3032282  95.7567552 125.6880027  62.1910238  95.6756698 124.4644322
  58.9809372 104.0028489 121.8037095  59.4447718 104.2816192 121.0141717
  58.7166170 103.1011934 121.6210185  55.8733453 103.5499971 124.7416858
  56.4434810 103.9787239 124.1034342  56.4641565 103.2682556 125.4401044
  57.9178258 100.1251642 118.6126660  58.6202302 100.5772685 119.0800586
  57.5858887  99.4835461 119.2406553  56.3658620  98.7163398 132.9877869
  55.7357281  99.3979679 133.2213266  56.2594708  98.6046480 132.0431007
  51.6603592  98.3835194 123.9143793  50.8702646  98.6392723 123.4383904
  52.1514840  99.1983532 124.0195834  65.6767402 105.7240433 126.6649074
  66.4984846 105.3220621 126.3831756  65.6729805 105.6208668 127.6165190
  53.6118338  98.7479774 120.8727270  52.8149501  98.8598468 121.3910766
  53.3843930  99.0866426 120.0068161  59.4424005 105.2724477 128.8209785
  59.5068438 105.7344884 129.6567957  58.7334929 104.6421842 128.9492095
  49.9441295  98.6365685 126.3458784  50.1949334  99.5212695 126.6116360
  50.4800844  98.4570286 125.5733876  73.7673395 102.0679182 123.0134046
  73.0137103 101.4986580 122.8578050  73.9020936 102.0341846 123.9604680
  59.1572023 106.9392584 118.6888765  59.0217698 107.7844120 119.1173613
  59.6981836 107.1411862 117.9254699  55.6439363  93.0184164 135.3503120
  55.2506308  92.4650363 136.0250765  56.4605503  93.3294743 135.7409638
  52.6101420 104.4568022 119.2616690  53.1225941 105.2511273 119.4122255
  53.2624133 103.7594313 119.1950292  54.4196305 107.5733779 121.3439443
  54.5962933 108.4951743 121.1560427  55.2153139 107.2592198 121.7733823
  58.5607324  94.4342043 132.9423377  59.3017037  95.0349196 132.8627839
  58.7925246  93.6919681 132.3841419  53.7048662  99.6198410 131.2201607
  53.5902177  98.7183668 131.5208705  52.8493179  99.8662107 130.8686423
  60.7840499 107.5616151 132.8189107  60.3404354 106.7752529 132.5010012
  61.4457713 107.7495301 132.1532998  55.5427621 109.0911952 127.3449786
  56.0935046 108.9629016 126.5726780  54.7039096 109.3906841 126.9944678
  62.8821737 107.8418951 130.8470508  62.8640213 108.6627832 130.3550778
  63.8041658 107.7173026 131.0720650  59.3394792 105.3563080 131.6894017
  59.8723128 104.5951368 131.4593325  58.8108873 105.0636732 132.4318171
  62.5064487  90.4623146 127.2187659  62.1628756  91.3524788 127.1426769
  62.8743449  90.2724804 126.3557244  50.5750337 102.7856677 120.0376261
  51.4125559 103.1953685 119.8209968  50.7528605 101.8456119 120.0076455
  62.4714769 100.4531757 115.7260094  61.9561393 101.2236362 115.9648481
  62.1992078  99.7796893 116.3493155  60.0561880  95.2981458 120.7845332
  59.2003477  94.9088308 120.6050971  60.4688832  95.3773419 119.9245118
  61.5861027  92.8327801 125.1836892  61.0825823  92.7957936 124.3704697
  61.8791634  93.7420544 125.2433548  57.8303913  92.9166531 124.1903073
  58.6956910  92.7209340 123.8308963  57.8981422  92.6876883 125.1172430
  67.4449043 103.2064112 117.6613267  66.6678486 102.8675271 117.2168429
  68.1240524 103.2116735 116.9868232  62.2601072  98.3258849 117.5519875
  61.9551208  98.6404999 118.4030018  63.2131515  98.4040269 117.5947208
  60.7047504 104.4849073 119.2012829  60.1768866 103.7501832 118.8886066
  60.2035007 105.2623749 118.9552797  65.6840350 102.6798093 124.3179875
  65.0264025 103.3697355 124.4060004  66.4880750 103.0694525 124.6613861
  55.4366232  95.1468739 121.5619440  56.0109984  94.9243920 120.8292633
  56.0237214  95.2157433 122.3148042  64.4945809 101.0342466 122.3683817
  65.0077691 101.6672458 122.8705527  65.1447033 100.4343661 122.0027177
  55.7635819  97.1773200 115.5815326  54.9273131  97.5147887 115.9024600
  55.6240589  97.0422180 114.6442463  57.7388900  92.0209988 120.2894510
  57.0853312  91.7059005 119.6651125  57.6969374  91.3985728 121.0154333
  58.8500105 102.3029283 112.2047802  57.9427166 102.0718536 112.4038951
  59.3471137 101.5066902 112.3921783  61.7568183 111.0126790 115.1244488
  61.0829882 111.3158487 115.7329446  62.1434005 111.8155870 114.7749945
  60.9726640  98.5091921 124.6142157  60.0549201  98.7306868 124.4563845
  61.3886784  98.5838232 123.7553865  61.7561688  99.9083337 119.7444838
  62.5033507 100.4204734 119.4351960  62.0253277  99.5867390 120.6049231
  60.0288338 102.4041878 116.7271792  59.1199557 102.1200911 116.8244262
  60.0583422 102.8240956 115.8675099  65.2607605 106.0148467 120.4962959
  64.8069932 105.1739377 120.5528150  64.6301572 106.6509866 120.8337740
  64.2040525  96.9440453 121.7263627  63.4663282  96.4317840 122.0573869
  64.4567298  96.5040835 120.9146904  63.7040545 107.8524964 121.4312778
  63.9963519 108.4130021 120.7125143  64.2139165 108.1453525 122.1865937
  64.3052152  89.7216705 122.3205396  64.6111029  88.8614069 122.0331311
  65.0304757  90.3134326 122.1204390  50.5976508 100.1247392 120.7086994
  50.4000908  99.5316753 119.9838061  50.0423172  99.8199602 121.4262933
  58.5773232 100.0170498 122.8281587  58.6321842  99.0644335 122.7524064
  57.7664434 100.1729937 123.3122886  59.7264426 103.9450621 114.0659870
  59.2883856 103.2286480 113.6065508  60.4674867 104.1726736 113.5044962
  56.5165592  98.6347558 120.5871966  55.7033457  98.9341729 120.9937158
  57.0124586  98.2403247 121.3046448  58.6674170 108.6305315 122.5206231
  58.6250349 108.8566161 121.5914763  59.5836869 108.3968690 122.6692032
  62.1139804  99.0989383 129.4186860  62.4689191  99.3260856 130.2781326
  62.7611935  99.4307759 128.7964115  67.8437541 102.2207819 120.1236189
  67.7055439 102.4109414 119.1957378  67.4873759 102.9827201 120.5804240
  56.0079667  96.2065914 126.2033201  56.6479046  96.0654673 125.5056164
  55.1757197  95.9200427 125.8271803  67.8706920 104.2884346 125.1347461
  68.3043427 104.1959635 125.9830515  68.5838501 104.2641846 124.4967477
  56.7839971 105.5068344 122.3168194  57.5780569 105.0118664 122.1150768
  56.0731663 104.9786207 121.9535899  61.6034815 107.8886440 126.6680561
  61.6571837 108.4577376 127.4358277  60.7349596 108.0588325 126.3034598
  53.0922734  99.6511426 118.3927946  52.1620322  99.5895881 118.6097908
  53.1880206  99.1287379 117.5964587  53.0108283  96.1766239 120.9806188
  53.2715100  97.0911572 120.8715348  53.8325455  95.7090681 121.1302801
  54.4833208  97.5903996 128.1505012  55.1556262  97.3821358 127.5017661
  53.6562995  97.3926082 127.7110245  68.7322470 104.3308046 127.6680346
  68.9258360 105.2353857 127.9139621  68.6323088 103.8715465 128.5018931
  60.3858780  94.2165937 130.1670673  59.7386695  94.9155886 130.0735150
  61.1559796  94.6502081 130.5346921  63.7937578 104.4814789 133.2421227
  63.6423085 104.2525341 132.3251310  63.7842258 105.4385390 133.2552572
  60.5622915 102.0546702 128.2267493  61.4914975 102.2057861 128.0536460
  60.1413945 102.1430722 127.3716140  59.3611247 106.0797366 125.9966031
  59.2222332 105.7116150 126.8691969  58.5725843 106.5945006 125.8249988
  59.9559399 111.1806463 117.3391567  60.1311154 110.7094506 118.1537190
  59.2692187 111.8072229 117.5672828  60.9116462 105.4578969 123.3854868
  60.5766294 105.4179739 124.2812518  60.4120407 104.7923685 122.9125279
  54.8860706 100.8646599 128.9107450  54.7480504 100.1326838 129.5118989
  55.7965629 100.7755499 128.6291637  63.8475653 102.8035003 113.6591928
  63.2304824 102.0781831 113.5624981  63.3792142 103.5644363 113.3159002
  57.5143006 100.5766558 128.3991129  58.2242625  99.9359750 128.3577748
  57.4712315 100.8279453 129.3217310  65.5029785 107.5133911 131.3197708
  65.4442331 106.8293132 130.6528291  65.9049303 108.2552901 130.8678334
  56.2271940  97.5631776 130.2186769  55.6909297  97.1122514 130.8708365
  55.6388649  97.6977685 129.4757233  54.5220484 114.3295825 124.1131427
  54.7617082 114.9614349 124.7910446  53.6789680 113.9783865 124.3996787
  55.6374199  97.0220427 112.7813232  54.7603666  96.9009228 112.4175479
  56.1131952  96.2306506 112.5292121  65.5047192 105.4773495 129.5511688
  64.6173971 105.1399417 129.6738087  66.0745743 104.7456527 129.7880453
  47.1576339 101.8097587 122.8754739  47.8447379 101.4959317 122.2875755
  47.0024468 102.7138952 122.6021991  51.9611062  96.6987784 127.3039763
  51.8769250  96.0913453 126.5690173  51.1393768  97.1896802 127.3049260
  59.0348346 110.1374948 126.5172931  58.9618517 110.9429919 127.0292236
  58.5925739 110.3366914 125.6920953  58.8238125 109.3746718 120.0275753
  58.0405647 109.9168398 120.1213977  59.5230870 109.8920697 120.4269994
  62.1334775  95.1841347 122.6709958  62.6303475  94.4311310 122.3511028
  61.3621757  95.2205664 122.1053168  69.9864533 100.8881713 124.3128250
  69.9754409 101.7706428 123.9422183  69.1181912 100.5353264 124.1182787
  61.4947029 110.0361782 128.6731090  62.2075001 110.6709247 128.6006991
  61.0037058 110.1325648 127.8571092  63.2164556 103.9413034 120.2448382
  62.2820835 104.0614497 120.0753086  63.3941225 103.0385501 119.9808391
  58.7169744  97.3258730 122.3981643  58.3467532  96.7729771 123.0862548
  59.2128837  96.7216864 121.8456643  66.6037107  99.7830354 120.7798416
  67.0697560 100.6158345 120.7058718  67.0544608  99.3175335 121.4843674
  56.5458943 107.7856225 129.4936661  57.2468402 108.4192708 129.6466055
  56.0754058 108.1270957 128.7332300  64.6713339 106.1274175 117.7784568
  64.9473182 106.0130770 118.6878442  63.8017837 105.7291660 117.7396741
  64.5753770  92.1510941 124.8189317  63.6616850  92.3815168 124.9871524
  65.0046872  92.2349385 125.6703349  64.3460229 100.3400833 127.3189211
  63.6931679 100.5876740 126.6641664  64.7240609  99.5264971 126.9851688
  61.3067403 110.3760526 121.4217381  61.4889797 109.5582182 121.8845134
  62.1300389 110.5928218 120.9842271  61.6409568 109.3028711 118.6832430
  62.1697335 108.7921166 118.0702592  61.9037788 108.9871241 119.5477963
  60.3947802 101.0820644 133.8055248  59.7188439 100.9814773 134.4757623
  61.2175436 100.9259857 134.2691245  52.1426661 107.3192580 126.4267763
  52.7280098 106.5736268 126.5595668  51.9451499 107.6296537 127.3104427
  54.9965316 110.3543828 121.4430206  54.3275691 110.8389955 120.9594246
  54.8578186 110.6013048 122.3573584  46.7344316  99.8898181 125.1472207
  46.7728415  99.3561771 125.9409325  46.2284608  99.3633386 124.5283184
  59.1370585 112.3887571 128.0412864  59.6888893 112.5519193 128.8061949
  59.4776778 112.9792009 127.3692889  54.1135078  94.7362721 128.6434749
  54.1776404  95.5977552 128.2312147  54.0502198  94.1236723 127.9107107
  53.5887350  96.8085854 132.2907783  54.2159389  96.4262931 132.9045308
  52.7315269  96.5900055 132.6563476  63.9881459 107.2148829 133.8961519
  64.5321363 107.8278787 133.4016473  63.4068304 107.7728407 134.4128532
  50.3652893  98.6162283 118.2226138  50.6606334  97.7072961 118.1693192
  49.4640929  98.5950022 117.9007140  62.2738972 110.3369547 125.0276546
  62.1490111 109.5359287 124.5187492  62.9318063 110.8315740 124.5390516
  53.8947140  96.6918279 124.2053687  53.1733726  97.3054247 124.0661160
  54.6840396  97.2276044 124.1270333  64.3373880 108.1378567 126.6556096
  63.3904216 108.0183918 126.5834423  64.6856653 107.2501065 126.7382358
  56.6973454  94.0272706 130.4794338  57.2207855  94.2735002 131.2420648
  56.4785787  94.8592741 130.0597476  52.0940735  96.2976380 118.3465463
  51.7653441  95.4173759 118.1640569  52.4480105  96.2424049 119.2341852
  61.3420314 107.9331283 122.8560449  61.1945276 107.0047990 123.0368019
  62.1673807 107.9551374 122.3717524  55.2082558  96.5849350 118.7140941
  55.5478630  97.1135271 117.9919549  55.6554678  96.9229756 119.4899507
  64.9454435 108.7559842 123.9425321  65.8700983 108.5502703 123.8049773
  64.7769739 108.5076243 124.8514663  57.9025999  94.9686401 128.1644009
  57.5622819  94.1694214 128.5664689  57.1965005  95.2688112 127.5920842
  58.5542471  92.0535713 126.6171332  59.3768540  91.5796191 126.4950222
  58.7980534  92.8326197 127.1170018  57.1950705  95.0823972 116.9134234
  57.9159068  95.4605224 116.4097950  56.5716009  95.8012849 117.0169212
  61.3381828  95.7869121 117.8492566  61.5545442  96.6693759 117.5481394
  60.8575895  95.3955334 117.1198208  56.0781049  98.7454834 124.4263311
  55.9325630  99.0595137 125.3187592  55.6006253  99.3639734 123.8734209
  57.9377432  95.7357382 124.4744200  57.9239001  94.8398475 124.1376498
  58.6549860  95.7428046 125.1082486  59.7903563  96.1694722 126.5197328
  59.5321341  97.0911793 126.5181658  59.2588603  95.7725157 127.2097792
  64.7349752 109.2745509 119.2987413  64.9086629 108.7091932 118.5461265
  65.2278643 110.0746404 119.1166903  50.5526711 101.2860178 127.3650972
  50.0080180 102.0619986 127.4971246  51.4306061 101.6330983 127.2070093
  57.3414328  94.6171762 119.7431770  57.4630239  93.6888408 119.9422658
  57.0516370  94.6310448 118.8310086  60.2105518  92.3026673 122.8798490
  60.2327215  92.3666006 121.9250470  60.6273577  91.4631181 123.0738996
  70.5889143 102.0381932 120.9177713  71.0320289 101.2889257 120.5196836
  69.7115653 102.0292069 120.5351445  65.7224924 108.5912274 116.3984311
  66.4175829 109.2118966 116.6171626  66.0648074 107.7407625 116.6736689
  51.3392733 100.4130075 130.2581129  50.5974469 100.5612710 130.8445759
  51.0185478 100.6738340 129.3947878  67.6216347 106.0411979 117.9271642
  68.1467671 106.3799252 117.2020962  67.5338700 105.1058994 117.7434777
  59.2836396 109.9546053 130.0561519  59.5923522 109.7095200 130.9284218
  60.0811878 110.1592691 129.5680389  59.3057008 112.1083962 122.2866895
  58.8661998 111.6160341 122.9799752  60.0565125 111.5656930 122.0458970
  51.7849347 108.2995503 122.2891523  52.6107367 107.9999275 121.9090167
  51.4343399 107.5303126 122.7381312  56.7530880 107.6521972 124.3589197
  56.1310889 106.9892677 124.0591425  57.4235747 107.6783103 123.6762845
  49.9857952 106.2181830 123.2480457  49.1489860 105.7904004 123.0664458
  49.9581597 106.4114273 124.1851248  56.8255408  96.1303760 133.9521703
  56.8743563  97.0065882 133.5699472  57.3677922  95.5881153 133.3793346
  67.3110253 106.6744883 133.2322840  66.5205797 106.6569022 132.6927339
  67.0743608 107.2133176 133.9871876  67.4308128 103.5237349 130.5455568
  67.4806133 103.3587357 131.4871091  67.3222052 102.6564608 130.1553449
  56.3144387 106.2025895 117.8347657  56.4632507 106.8861359 117.1814330
  57.1210831 106.1830985 118.3497113  64.7211891  99.5068277 131.8614875
  65.6221754  99.3674742 131.5698873  64.7959865  99.6722732 132.8013053
  59.0554696  96.8835132 130.7068061  58.1858005  97.1768698 130.4350650
  59.2914176  97.4675577 131.4275325  68.9326325 105.9434291 130.7897590
  68.6411133 106.3064271 131.6261051  68.3198456 105.2301299 130.6110922
  70.1322008 103.5087170 123.3100160  70.9668899 103.9476975 123.4737721
  70.2681136 103.0325824 122.4908406  67.1813513 101.0666905 129.2577648
  67.6567635 101.2594552 128.4496499  66.2579079 101.1226091 129.0121032
  54.0697020 102.2291072 118.8408726  53.8243062 101.3253402 119.0388936
  54.2392935 102.2308223 117.8988204  61.7593730  93.1014749 128.2233482
  62.2775674  93.8375776 127.8979970  61.4048863  93.4078742 129.0580241
  53.3392668  97.9619430 116.3394888  52.6461913  98.0363785 115.6834924
  53.0944419  97.1979774 116.8616405  62.0106324  89.5215031 123.7434378
  62.2908078  88.8538220 124.3694805  62.7956931  89.7144127 123.2309042
  59.8139793 108.6974025 115.3059405  59.2413760 109.3164212 114.8529877
  60.3872586 109.2473387 115.8399327  65.8815182  97.9432665 127.4905954
  66.8332605  98.0430763 127.5118178  65.7118633  97.1510934 128.0004038
  63.9029562  95.0288249 127.6765355  63.3079494  95.3093261 126.9811843
  63.6179259  95.5182150 128.4482096  63.0337052 108.9811175 116.4367987
  63.9667726 108.9156737 116.6400863  62.9460265 109.8167442 115.9782520
  65.6625069 108.2977046 113.3971935  65.5838701 107.9636909 114.2907693
  66.4834736 108.7898814 113.3963407  68.3603260 101.1638785 126.6048253
  68.3279580 100.2254786 126.7907937  68.9703884 101.2422822 125.8714078
  60.1986591 100.0334838 112.6475457  61.1445696  99.9041046 112.7163875
  59.8200836  99.2949500 113.1244885  68.5097749  97.9549829 126.6506536
  67.9936797  97.1708285 126.4636465  69.3937697  97.6268545 126.8153056
  66.1708476  91.6990844 122.6102349  65.9733297  91.3905932 123.4945681
  66.7808181  92.4252483 122.7400279  74.1779810 102.2254792 125.7454290
  74.9083199 101.9640080 126.3061993  73.5686756 101.4883514 125.7856358
  72.2595107 100.3662655 126.3428741  71.5328271 100.2318619 125.7345233
  71.8442394 100.6739483 127.1485459  60.0825284 104.0852584 134.1076114
  61.0028293 104.2631183 134.3016161  60.0474867 103.1408630 133.9555814
  58.3829508  97.9584814 112.5830342  57.4760964  97.6617927 112.6593056
  58.6605489  97.6614633 111.7164629  49.3007449  99.2791178 123.0329389
  48.9810233  98.4256486 122.7403763  48.7540877  99.4939756 123.7887356
  53.0787356 101.9953619 126.7498895  53.2973366 102.9270727 126.7686929
  53.4913130 101.6361593 127.5353699  59.9991574  92.5021704 118.7374584
  59.1892302  92.1568789 119.1129830  60.6875991  92.1929248 119.3262195
  61.9282122  91.5799751 120.3598880  62.4813161  91.9995204 121.0188904
  62.1652209  90.6535499 120.4021836  57.9515221  97.5686825 136.1401644
  57.8511948  98.5181182 136.0713735  57.7336764  97.2405064 135.2677714
  57.1528293  94.8171750 112.7242322  58.0147457  95.1426648 112.9838139
  57.3378637  94.0303246 112.2115387  49.1695709 102.8994089 125.0022510
  48.4759180 102.4848042 124.4892465  49.9168700 102.9414626 124.4055929
  65.3060929  93.6900276 119.8677545  64.7259598  94.3485080 119.4855597
  65.0396862  92.8677621 119.4564962  63.7564496  93.0905334 122.0698865
  64.2564274  93.2021868 121.2613184  64.4000104  92.7866387 122.7099673
  57.8146492 100.9983963 134.9566706  57.3313573 101.7984324 135.1630595
  57.9007431 101.0091908 134.0034150  51.0832451 102.8312343 122.8788525
  51.0603139 102.9300030 121.9270408  51.3933088 103.6777494 123.2005691
  53.7419829 104.8888498 126.9935140  54.6963083 104.8572440 126.9265071
  53.5432353 104.4279122 127.8085366  54.3319211 103.4589614 129.5605937
  55.1512100 103.9533693 129.5840775  54.6056019 102.5421582 129.5323505
  64.0885807  95.8500367 118.9233893  63.2011662  96.1350017 118.7054088
  64.5039796  95.6894130 118.0761170  67.4400343  95.8746887 122.6388232
  68.2160734  96.3643340 122.9112849  66.7148478  96.3004942 123.0960102
  69.8772902  96.5874507 123.6962173  70.4717393  96.3470243 122.9855481
  69.9499486  95.8681637 124.3235709  52.0970058 110.4308118 124.0105338
  51.9624526 109.6708519 123.4443336  51.6802120 111.1549018 123.5434127
  63.2329021 105.6145041 113.0181913  63.9364871 105.8195044 113.6339569
  62.5091670 106.1821803 113.2830996  64.0626831 101.3654902 119.1384183
  64.0062033 101.8223454 118.2991816  64.6155174 100.6045587 118.9607026
  67.8731637  97.1544634 119.9634303  67.6168571  96.7541270 120.7942510
  67.2484505  97.8688428 119.8384442  72.1843975  99.8940708 122.4705594
  71.6243533  99.9633897 123.2437156  71.5787478  99.7181692 121.7505090
  55.2539184 111.3277435 124.2223780  55.1371568 112.2722867 124.1202471
  54.4331630 111.0250996 124.6109579  65.1415718 106.0527570 115.0680373
  65.9761322 105.6208769 114.8857848  64.9800061 105.8809584 115.9957267
  64.7961610 102.5559684 116.4336712  64.7410414 102.3903955 115.4925156
  64.1707666 103.2635717 116.5898902  49.5854125  97.7927748 130.2598134
  50.2312989  97.2826702 130.7485360  49.3771277  98.5296430 130.8341560
  62.1107518 104.8608596 135.7590275  62.9798677 105.0349248 135.3976910
  61.6314269 105.6803012 135.6366004  58.1057736  92.0567793 116.0122031
  58.0936406  93.0009633 116.1690302  58.9981158  91.8737938 115.7181492
  56.2793698 111.9805697 127.4379709  57.1820945 112.0129307 127.7546204
  56.0531068 111.0506148 127.4526045  58.0347300 110.7336683 124.0989787
  57.0842931 110.7338545 123.9854160  58.3379786 109.9869418 123.5825822
  61.9209855  88.6510569 120.2667967  61.1542251  88.0969056 120.4124650
  62.3320560  88.7232438 121.1282119  53.9251616  94.9395365 134.3573149
  54.7883078  94.5832170 134.5676473  53.3517027  94.6009260 135.0448553
  73.7699993 116.5697221 125.1635550  74.4078403 116.4503969 124.4598890
  73.6520836 117.5178065 125.2223502  70.5789700 116.5224650 125.0997074
  70.2408211 116.4065714 124.2117609  71.4479468 116.1215815 125.0798081
  66.4376515 118.3760126 121.0893965  65.8741380 118.2850063 120.3210253
  66.3228910 117.5560030 121.5696458  63.9840947 119.8711318 123.9278186
  64.7762239 119.5302142 123.5124485  64.2237597 119.9806293 124.8480339
  72.0176074 122.0431094 116.4008430  71.3664054 122.6285174 116.0142444
  72.8120437 122.5737289 116.4603468  65.9431701 119.1320231 116.7995565
  66.7162577 118.5849218 116.6608440  66.2957100 119.9964480 117.0110026
  68.7072951 117.8373462 126.5963824  69.3036523 117.6129484 125.8820787
  68.7647922 117.0958207 127.1989271  68.2797979 115.2912897 114.4314015
  68.5323500 114.7694418 113.6697478  67.3422538 115.1279042 114.5340698
  73.3241262 114.2948675 122.2388758  74.1104351 113.8768099 121.8879175
  73.5879966 115.1994768 122.4070406  73.4951339 119.7321526 116.9377415
  72.8597172 119.8056152 117.6498319  73.1648746 120.3215124 116.2596494
  78.7249689 114.2323909 123.1421736  79.4574861 113.6623125 123.3759566
  77.9689045 113.8445509 123.5828242  67.9994268 117.1941003 116.6338390
  67.8830526 116.5185906 117.3019474  68.1096528 116.7073377 115.8170543
  70.3425809 116.6551150 120.3385079  69.9784016 116.1281771 121.0498000
  71.1992925 116.2649619 120.1651564  76.2475109 107.9445483 127.6016345
  75.9158434 108.8140894 127.3777560  75.6520723 107.6281767 128.2810375
  69.9831296 111.6841050 115.3346427  70.1505698 112.5521286 115.7016898
  69.7928465 111.8468331 114.4107717  72.7406629 120.1458029 127.0012258
  72.4407352 121.0483067 126.8928065  72.3957688 119.8790212 127.8533411
  66.1919110 116.5971825 123.0348962  65.2669607 116.4648040 123.2426654
  66.4403523 117.3766045 123.5318904  76.1403773 112.6640569 124.6809695
  75.2320650 112.5955977 124.3868456  76.0891368 113.1412514 125.5091520
  69.9620517 114.1398707 116.3193094  69.8420142 114.5855758 117.1578574
  69.2673105 114.4884025 115.7606632  63.5527921 116.2405099 123.8692751
  63.6820303 116.4939578 124.7832163  62.8725373 116.8332807 123.5497406
  67.7227409 126.9102349 119.9683225  67.6451438 127.8610174 120.0471706
  67.1189052 126.5648221 120.6258152  78.0065419 110.8657007 126.4587569
  77.3639799 111.1589540 125.8127363  77.5020348 110.7509928 127.2640766
  75.6605583 114.6120180 117.1473428  76.5723439 114.8447567 116.9721126
  75.1515230 115.1957225 116.5848507  70.2977420 113.9717415 128.1568278
  71.1438616 114.3956829 128.3002927  70.2376058 113.3151039 128.8506841
  74.2675165 119.5945999 124.5387010  73.6384027 119.7591713 123.8363077
  73.8800827 120.0087608 125.3097974  78.1464397 120.5300437 121.8931373
  77.4615435 120.9099338 121.3428407  78.2308246 121.1395763 122.6263321
  73.4476866 111.6321783 129.8149451  73.2037798 112.3863844 129.2783727
  73.7236796 112.0107131 130.6496698  73.0041557 110.7878216 125.3963289
  72.1426036 111.0859470 125.6880027  73.0303992 111.0048615 124.4644322
  69.8203127 119.3320407 121.8037095  70.2841472 119.6108110 121.0141717
  69.5559925 118.4303852 121.6210185  66.7127208 118.8791888 124.7416858
  67.2828565 119.3079157 124.1034342  67.3035320 118.5974473 125.4401044
  68.7572013 115.4543559 118.6126660  69.4596056 115.9064603 119.0800586
  68.4252641 114.8127378 119.2406553  67.2052374 114.0455316 132.9877869
  66.5751035 114.7271597 133.2213266  67.0988462 113.9338398 132.0431007
  62.4997347 113.7127112 123.9143793  61.7096401 113.9684641 123.4383904
  62.9908594 114.5275450 124.0195834  64.4512092 114.0771691 120.8727270
  63.6543256 114.1890385 121.3910766  64.2237684 114.4158343 120.0068161
  60.7835050 113.9657602 126.3458784  61.0343088 114.8504612 126.6116360
  61.3194598 113.7862204 125.5733876  84.6067149 117.3971100 123.0134046
  83.8530858 116.8278498 122.8578050  84.7414691 117.3633764 123.9604680
  69.9965778 122.2684502 118.6888765  69.8611452 123.1136038 119.1173613
  70.5375590 122.4703780 117.9254699  66.4833117 108.3476082 135.3503120
  66.0900063 107.7942280 136.0250765  67.2999257 108.6586660 135.7409638
  63.4495175 119.7859940 119.2616690  63.9619695 120.5803190 119.4122255
  64.1017888 119.0886230 119.1950292  65.2590060 122.9025696 121.3439443
  65.4356688 123.8243661 121.1560427  66.0546893 122.5884115 121.7733823
  69.4001078 109.7633961 132.9423377  70.1410792 110.3641114 132.8627839
  69.6319001 109.0211599 132.3841419  64.5442416 114.9490328 131.2201607
  64.4295931 114.0475585 131.5208705  63.6886934 115.1954025 130.8686423
  66.3821375 124.4203870 127.3449786  66.9328800 124.2920933 126.5726780
  65.5432851 124.7198759 126.9944678  73.3458241 105.7915064 127.2187659
  73.0022510 106.6816706 127.1426769  73.7137204 105.6016721 126.3557244
  61.4144092 118.1148594 120.0376261  62.2519314 118.5245603 119.8209968
  61.5922359 117.1748036 120.0076455  73.3108524 115.7823675 115.7260094
  72.7955147 116.5528280 115.9648481  73.0385832 115.1088811 116.3493155
  70.8955635 110.6273376 120.7845332  70.0397231 110.2380226 120.6050971
  71.3082587 110.7065337 119.9245118  72.4254781 108.1619719 125.1836892
  71.9219577 108.1249854 124.3704697  72.7185388 109.0712462 125.2433548
  68.6697667 108.2458449 124.1903073  69.5350664 108.0501257 123.8308963
  68.7375176 108.0168800 125.1172430  78.2842798 118.5356030 117.6613267
  77.5072241 118.1967189 117.2168429  78.9634279 118.5408653 116.9868232
  73.0994827 113.6550767 117.5519875  72.7944963 113.9696916 118.4030018
  74.0525269 113.7332187 117.5947208  71.5441259 119.8140990 119.2012829
  71.0162620 119.0793750 118.8886066  71.0428762 120.5915667 118.9552797
  76.5234105 118.0090011 124.3179875  75.8657779 118.6989272 124.4060004
  77.3274504 118.3986443 124.6613861  66.2759986 110.4760657 121.5619440
  66.8503738 110.2535838 120.8292633  66.8630969 110.5449351 122.3148042
  75.3339564 116.3634384 122.3683817  75.8471445 116.9964375 122.8705527
  75.9840788 115.7635579 122.0027177  66.6029574 112.5065118 115.5815326
  65.7666886 112.8439804 115.9024600  66.4634343 112.3714097 114.6442463
  68.5782654 107.3501906 120.2894510  67.9247066 107.0350923 119.6651125
  68.5363128 106.7277646 121.0154333  69.6893859 117.6321201 112.2047802
  68.7820921 117.4010454 112.4038951  70.1864891 116.8358820 112.3921783
  72.5961938 126.3418708 115.1244488  71.9223637 126.6450405 115.7329446
  72.9827760 127.1447788 114.7749945  71.8120395 113.8383839 124.6142157
  70.8942956 114.0598786 124.4563845  72.2280538 113.9130150 123.7553865
  72.5955442 115.2375255 119.7444838  73.3427261 115.7496652 119.4351960
  72.8647032 114.9159307 120.6049231  70.8682092 117.7333795 116.7271792
  69.9593312 117.4492828 116.8244262  70.8977176 118.1532874 115.8675099
  76.1001360 121.3440385 120.4962959  75.6463687 120.5031295 120.5528150
  75.4695327 121.9801783 120.8337740  75.0434279 112.2732371 121.7263627
  74.3057036 111.7609757 122.0573869  75.2961053 111.8332753 120.9146904
  74.5434299 123.1816882 121.4312778  74.8357273 123.7421939 120.7125143
  75.0532920 123.4745443 122.1865937  75.1445907 105.0508623 122.3205396
  75.4504784 104.1905986 122.0331311  75.8698512 105.6426243 122.1204390
  61.4370263 115.4539310 120.7086994  61.2394663 114.8608670 119.9838061
  60.8816927 115.1491520 121.4262933  69.4166986 115.3462416 122.8281587
  69.4715596 114.3936252 122.7524064  68.6058189 115.5021855 123.3122886
  70.5658180 119.2742539 114.0659870  70.1277610 118.5578398 113.6065508
  71.3068621 119.5018654 113.5044962  67.3559346 113.9639476 120.5871966
  66.5427212 114.2633646 120.9937158  67.8518341 113.5695165 121.3046448
  69.5067924 123.9597233 122.5206231  69.4644103 124.1858079 121.5914763
  70.4230623 123.7260607 122.6692032  72.9533558 114.4281300 129.4186860
  73.3082946 114.6552773 130.2781326  73.6005689 114.7599677 128.7964115
  78.6831295 117.5499736 120.1236189  78.5449194 117.7401332 119.1957378
  78.3267514 118.3119119 120.5804240  66.8473421 111.5357831 126.2033201
  67.4872800 111.3946590 125.5056164  66.0150952 111.2492345 125.8271803
  67.6233725 120.8360262 122.3168194  68.4174324 120.3410582 122.1150768
  66.9125417 120.3078125 121.9535899  63.9316489 114.9803344 118.3927946
  63.0014077 114.9187799 118.6097908  64.0273961 114.4579296 117.5964587
  63.8502038 111.5058156 120.9806188  64.1108855 112.4203490 120.8715348
  64.6719210 111.0382599 121.1302801  65.3226963 112.9195914 128.1505012
  65.9950016 112.7113276 127.5017661  64.4956749 112.7217999 127.7110245
  71.2252535 109.5457854 130.1670673  70.5780450 110.2447804 130.0735150
  71.9953550 109.9793998 130.5346921  71.4016669 117.3838619 128.2267493
  72.3308729 117.5349779 128.0536460  70.9807699 117.4722640 127.3716140
  70.2005001 121.4089284 125.9966031  70.0616087 121.0408068 126.8691969
  69.4119597 121.9236923 125.8249988  70.7953153 126.5098380 117.3391567
  70.9704909 126.0386423 118.1537190  70.1085941 127.1364146 117.5672828
  71.7510216 120.7870886 123.3854868  71.4160049 120.7471656 124.2812518
  71.2514162 120.1215602 122.9125279  65.7254460 116.1938516 128.9107450
  65.5874258 115.4618755 129.5118989  66.6359384 116.1047417 128.6291637
  74.6869408 118.1326921 113.6591928  74.0698579 117.4073749 113.5624981
  74.2185896 118.8936281 113.3159002  68.3536761 115.9058476 128.3991129
  69.0636379 115.2651668 128.3577748  68.3106069 116.1571371 129.3217310
  67.0665695 112.8923694 130.2186769  66.5303052 112.4414432 130.8708365
  66.4782403 113.0269603 129.4757233  66.4767954 112.3512345 112.7813232
  65.5997420 112.2301146 112.4175479  66.9525707 111.5598423 112.5292121
  57.9970094 117.1389505 122.8754739  58.6841134 116.8251235 122.2875755
  57.8418223 118.0430869 122.6021991  62.8004816 112.0279701 127.3039763
  62.7163005 111.4205371 126.5690173  61.9787522 112.5188720 127.3049260
  69.6631880 124.7038635 120.0275753  68.8799402 125.2460316 120.1213977
  70.3624625 125.2212615 120.4269994  72.9728530 110.5133265 122.6709958
  73.4697229 109.7603227 122.3511028  72.2015511 110.5497582 122.1053168
  80.8258287 116.2173630 124.3128250  80.8148164 117.0998346 123.9422183
  79.9575667 115.8645181 124.1182787  74.0558311 119.2704952 120.2448382
  73.1214589 119.3906415 120.0753086  74.2334979 118.3677419 119.9808391
  69.5563499 112.6550648 122.3981643  69.1861286 112.1021688 123.0862548
  70.0522591 112.0508781 121.8456643  77.4430862 115.1122271 120.7798416
  77.9091314 115.9450263 120.7058718  77.8938362 114.6467253 121.4843674
  75.5107093 121.4566093 117.7784568  75.7866937 121.3422687 118.6878442
  74.6411592 121.0583578 117.7396741  75.4147525 107.4802858 124.8189317
  74.5010605 107.7107085 124.9871524  75.8440626 107.5641302 125.6703349
  75.1853983 115.6692750 127.3189211  74.5325433 115.9168658 126.6641664
  75.5634363 114.8556889 126.9851688  72.1461157 125.7052444 121.4217381
  72.3283552 124.8874099 121.8845134  72.9694143 125.9220136 120.9842271
  72.4803323 124.6320629 118.6832430  73.0091089 124.1213083 118.0702592
  72.7431542 124.3163159 119.5477963  62.9820415 122.6484498 126.4267763
  63.5673852 121.9028186 126.5595668  62.7845254 122.9588455 127.3104427
  65.8359071 125.6835745 121.4430206  65.1669446 126.1681873 120.9594246
  65.6971940 125.9304966 122.3573584  57.5738070 115.2190098 125.1472207
  57.6122170 114.6853689 125.9409325  57.0678363 114.6925304 124.5283184
  64.9528832 110.0654639 128.6434749  65.0170159 110.9269470 128.2312147
  64.8895953 109.4528640 127.9107107  64.4281105 112.1377771 132.2907783
  65.0553144 111.7554849 132.9045308  63.5709024 111.9191973 132.6563476
  61.2046648 113.9454200 118.2226138  61.5000089 113.0364879 118.1693192
  60.3034683 113.9241940 117.9007140  64.7340895 112.0210197 124.2053687
  64.0127480 112.6346165 124.0661160  65.5234150 112.5567962 124.1270333
  67.5367208 109.3564623 130.4794338  68.0601610 109.6026920 131.2420648
  67.3179541 110.1884658 130.0597476  62.9334489 111.6268298 118.3465463
  62.6047195 110.7465677 118.1640569  63.2873860 111.5715967 119.2341852
  72.1814068 123.2623201 122.8560449  72.0339031 122.3339908 123.0368019
  73.0067562 123.2843291 122.3717524  66.0476312 111.9141268 118.7140941
  66.3872385 112.4427189 117.9919549  66.4948433 112.2521674 119.4899507
  68.7419753 110.2978319 128.1644009  68.4016574 109.4986132 128.5664689
  68.0358759 110.5980029 127.5920842  69.3936225 107.3827631 126.6171332
  70.2162294 106.9088109 126.4950222  69.6374289 108.1618115 127.1170018
  68.0344460 110.4115889 116.9134234  68.7552822 110.7897142 116.4097950
  67.4109764 111.1304766 117.0169212  72.1775582 111.1161038 117.8492566
  72.3939197 111.9985676 117.5481394  71.6969650 110.7247252 117.1198208
  66.9174804 114.0746752 124.4263311  66.7719384 114.3887055 125.3187592
  66.4400007 114.6931652 123.8734209  68.7771187 111.0649300 124.4744200
  68.7632755 110.1690393 124.1376498  69.4943615 111.0719963 125.1082486
  70.6297317 111.4986640 126.5197328  70.3715095 112.4203710 126.5181658
  70.0982358 111.1017074 127.2097792  75.5743506 124.6037427 119.2987413
  75.7480384 124.0383849 118.5461265  76.0672397 125.4038322 119.1166903
  61.3920466 116.6152096 127.3650972  60.8473934 117.3911904 127.4971246
  62.2699816 116.9622900 127.2070093  68.1808083 109.9463680 119.7431770
  68.3023994 109.0180326 119.9422658  67.8910125 109.9602366 118.8310086
  71.0499273 107.6318590 122.8798490  71.0720970 107.6957923 121.9250470
  71.4667332 106.7923099 123.0738996  81.4282897 117.3673850 120.9177713
  81.8714043 116.6181175 120.5196836  80.5509408 117.3583986 120.5351445
  76.5618679 123.9204191 116.3984311  77.2569583 124.5410884 116.6171626
  76.9041829 123.0699543 116.6736689  62.1786488 115.7421992 130.2581129
  61.4368224 115.8904628 130.8445759  61.8579232 116.0030258 129.3947878
  78.4610102 121.3703897 117.9271642  78.9861426 121.7091170 117.2020962
  78.3732454 120.4350912 117.7434777  70.1450762 127.4375880 122.2866895
  69.7055753 126.9452259 122.9799752  70.8958879 126.8948848 122.0458970
  62.6243101 123.6287421 122.2891523  63.4501121 123.3291193 121.9090167
  62.2737153 122.8595043 122.7381312  67.5924635 122.9813889 124.3589197
  66.9704644 122.3184594 124.0591425  68.2629502 123.0075021 123.6762845
  60.8251707 121.5473747 123.2480457  59.9883615 121.1195922 123.0664458
  60.7975352 121.7406191 124.1851248  67.6649162 111.4595677 133.9521703
  67.7137318 112.3357800 133.5699472  68.2071676 110.9173070 133.3793346
  67.1538142 121.5317813 117.8347657  67.3026262 122.2153277 117.1814330
  67.9604585 121.5122903 118.3497113  69.8948451 112.2127050 130.7068061
  69.0251760 112.5060616 130.4350650  70.1307931 112.7967495 131.4275325
  80.9715762 118.8379088 123.3100160  81.8062653 119.2768892 123.4737721
  81.1074891 118.3617741 122.4908406  64.9090775 117.5582990 118.8408726
  64.6636816 116.6545320 119.0388936  65.0786689 117.5600141 117.8988204
  72.5987484 108.4306667 128.2233482  73.1169428 109.1667693 127.8979970
  72.2442617 108.7370660 129.0580241  64.1786422 113.2911348 116.3394888
  63.4855667 113.3655703 115.6834924  63.9338174 112.5271691 116.8616405
  72.8500079 104.8506949 123.7434378  73.1301832 104.1830138 124.3694805
  73.6350686 105.0436045 123.2309042  70.6533547 124.0265943 115.3059405
  70.0807514 124.6456130 114.8529877  71.2266341 124.5765305 115.8399327
  76.7208937 113.2724583 127.4905954  77.6726360 113.3722681 127.5118178
  76.5512387 112.4802852 128.0004038  74.7423316 110.3580166 127.6765355
  74.1473249 110.6385179 126.9811843  74.4573013 110.8474067 128.4482096
  73.8730807 124.3103093 116.4367987  74.8061480 124.2448655 116.6400863
  73.7854020 125.1459360 115.9782520  76.5018824 123.6268963 113.3971935
  76.4232455 123.2928827 114.2907693  77.3228490 124.1190731 113.3963407
  79.1997015 116.4930703 126.6048253  79.1673335 115.5546703 126.7907937
  79.8097638 116.5714739 125.8714078  71.0380346 115.3626756 112.6475457
  71.9839450 115.2332964 112.7163875  70.6594591 114.6241418 113.1244885
  79.3491503 113.2841746 126.6506536  78.8330552 112.5000203 126.4636465
  80.2331452 112.9560463 126.8153056  77.0102230 107.0282762 122.6102349
  76.8127051 106.7197850 123.4945681  77.6201936 107.7544401 122.7400279
  69.2223263 113.2876732 112.5830342  68.3154718 112.9909845 112.6593056
  69.4999244 112.9906550 111.7164629  60.1401203 114.6083096 123.0329389
  59.8203987 113.7548404 122.7403763  59.5934631 114.8231674 123.7887356
  63.9181111 117.3245537 126.7498895  64.1367120 118.2562644 126.7686929
  64.3306884 116.9653511 127.5353699  70.8385328 107.8313622 118.7374584
  70.0286057 107.4860707 119.1129830  71.5269745 107.5221166 119.3262195
  72.7675877 106.9091669 120.3598880  73.3206915 107.3287122 121.0188904
  73.0045963 105.9827417 120.4021836  67.9922047 110.1463667 112.7242322
  68.8541211 110.4718566 112.9838139  68.1772392 109.3595163 112.2115387
  60.0089463 118.2286007 125.0022510  59.3152935 117.8139960 124.4892465
  60.7562454 118.2706544 124.4055929  76.1454684 109.0192194 119.8677545
  75.5653353 109.6776998 119.4855597  75.8790617 108.1969538 119.4564962
  74.5958250 108.4197252 122.0698865  75.0958029 108.5313786 121.2613184
  75.2393858 108.1158304 122.7099673  61.9226206 118.1604261 122.8788525
  61.8996894 118.2591948 121.9270408  62.2326842 119.0069412 123.2005691
  64.5813584 120.2180416 126.9935140  65.5356837 120.1864358 126.9265071
  64.3826107 119.7571040 127.8085366  65.1712966 118.7881532 129.5605937
  65.9905855 119.2825611 129.5840775  65.4449773 117.8713500 129.5323505
  74.9279562 111.1792284 118.9233893  74.0405417 111.4641935 118.7054088
  75.3433551 111.0186048 118.0761170  78.2794098 111.2038805 122.6388232
  79.0554488 111.6935258 122.9112849  77.5542232 111.6296859 123.0960102
  80.7166657 111.9166424 123.6962173  81.3111147 111.6762160 122.9855481
  80.7893240 111.1973555 124.3235709  62.9363812 125.7600035 124.0105338
  62.8018280 125.0000436 123.4443336  62.5195875 126.4840935 123.5434127
  74.0722775 120.9436959 113.0181913  74.7758625 121.1486961 113.6339569
  73.3485424 121.5113721 113.2830996  74.9020586 116.6946820 119.1384183
  74.8455787 117.1515372 118.2991816  75.4548928 115.9337505 118.9607026
  78.7125392 112.4836552 119.9634303  78.4562326 112.0833188 120.7942510
  78.0878260 113.1980346 119.8384442  83.0237729 115.2232625 122.4705594
  82.4637287 115.2925815 123.2437156  82.4181233 115.0473610 121.7505090
  66.0932938 126.6569352 124.2223780  65.9765322 127.6014785 124.1202471
  65.2725384 126.3542914 124.6109579  75.9809473 121.3819488 115.0680373
  76.8155077 120.9500687 114.8857848  75.8193816 121.2101502 115.9957267
  75.6355365 117.8851601 116.4336712  75.5804169 117.7195873 115.4925156
  75.0101420 118.5927634 116.5898902  60.4247880 113.1219666 130.2598134
  61.0706743 112.6118620 130.7485360  60.2165031 113.8588347 130.8341560
  68.9451490 107.3859710 116.0122031  68.9330160 108.3301550 116.1690302
  69.8374912 107.2029856 115.7181492  68.8741054 126.0628601 124.0989787
  67.9236685 126.0630462 123.9854160  69.1773540 125.3161335 123.5825822
  72.7603610 103.9802487 120.2667967  71.9936006 103.4260974 120.4124650
  73.1714315 104.0524356 121.1282119  64.7645371 110.2687283 134.3573149
  65.6276832 109.9124088 134.5676473  64.1910782 109.9301178 135.0448553
  76.7825456 134.4612149 116.7995565  77.5556332 133.9141136 116.6608440
  77.1350855 135.3256398 117.0110026  80.8225050 127.0132967 115.3346427
  80.9899452 127.8813204 115.7016898  80.6322219 127.1760249 114.4107717
  80.8014271 129.4690625 116.3193094  80.6813896 129.9147676 117.1578574
  80.1066859 129.8175943 115.7606632  75.2905847 129.4063609 120.8727270
  74.4937010 129.5182303 121.3910766  75.0631439 129.7450261 120.0068161
  84.1502278 131.1115593 115.7260094  83.6348902 131.8820197 115.9648481
  83.8779587 130.4380729 116.3493155  77.4423328 127.8357035 115.5815326
  76.6060640 128.1731722 115.9024600  77.3028098 127.7006015 114.6442463
  79.4176409 122.6793823 120.2894510  78.7640821 122.3642840 119.6651125
  79.3756883 122.0569564 121.0154333  72.2764017 130.7831227 120.7086994
  72.0788417 130.1900588 119.9838061  71.7210681 130.4783437 121.4262933
  74.7710243 130.3095261 118.3927946  73.8407831 130.2479717 118.6097908
  74.8667715 129.7871214 117.5964587  74.6895792 126.8350074 120.9806188
  74.9502609 127.7495407 120.8715348  75.5112964 126.3674517 121.1302801
  85.5263162 133.4618838 113.6591928  84.9092333 132.7365667 113.5624981
  85.0579651 134.2228199 113.3159002  72.0440402 129.2746118 118.2226138
  72.3393843 128.3656796 118.1693192  71.1428438 129.2533857 117.9007140
  73.7728244 126.9560216 118.3465463  73.4440950 126.0757595 118.1640569
  74.1267614 126.9007884 119.2341852  76.8870067 127.2433185 118.7140941
  77.2266139 127.7719107 117.9919549  77.3342187 127.5813592 119.4899507
  78.8738214 125.7407807 116.9134234  79.5946576 126.1189060 116.4097950
  78.2503518 126.4596684 117.0169212  83.0169337 126.4452956 117.8492566
  83.2332951 127.3277594 117.5481394  82.5363404 126.0539169 117.1198208
  79.0201837 125.2755598 119.7431770  79.1417748 124.3472244 119.9422658
  78.7303879 125.2894283 118.8310086  75.7484529 132.8874908 118.8408726
  75.5030571 131.9837238 119.0388936  75.9180444 132.8892058 117.8988204
  75.0180177 128.6203265 116.3394888  74.3249421 128.6947620 115.6834924
  74.7731928 127.8563609 116.8616405  81.6779083 123.1605540 118.7374584
  80.8679811 122.8152624 119.1129830  82.3663500 122.8513083 119.3262195
  83.6069631 122.2383586 120.3598880  84.1600670 122.6579040 121.0188904
  83.8439718 121.3119334 120.4021836  78.8315802 125.4755585 112.7242322
  79.6934966 125.8010483 112.9838139  79.0166146 124.6887081 112.2115387
  79.7845245 122.7151628 116.0122031  79.7723915 123.6593468 116.1690302
  80.6768667 122.5321773 115.7181492  83.5997364 119.3094405 120.2667967
  82.8329760 118.7552891 120.4124650  84.0108069 119.3816273 121.1282119
  17.8207303  22.4033628 103.1253737  17.1695283  22.9887708 102.7387751
  18.6151666  22.9339823 103.1848774  14.0829208  15.6515431 101.1559321
  14.3354728  15.1296952 100.3942784  13.1453767  15.4881577 101.2586005
  19.2982568  20.0924060 103.6622721  18.6628401  20.1658686 104.3743626
  18.9679974  20.6817659 102.9841800  13.5258637  27.2704883 106.6928532
  13.4482667  28.2212708 106.7717013  12.9220281  26.9250756 107.3503458
  21.4636811  14.9722715 103.8718735  22.3754668  15.2050101 103.6966432
  20.9546459  15.5559759 103.3093813  23.9495626  20.8902971 108.6176680
  23.2646664  21.2701872 108.0673713  24.0339475  21.4998298 109.3508628
  15.7997006  22.6287036 105.4134072  15.6642681  23.4738572 105.8418919
  16.3406819  22.8306314 104.6500005  19.1139753  16.1426209 102.4505400
  18.5986376  16.9130814 102.6893788  18.8417061  15.4691345 103.0738462
  24.0874027  18.8958564 104.3858574  23.3103470  18.5569723 103.9413736
  24.7665508  18.9011187 103.7113539  15.4925088  17.9923735  98.9293108
  14.5852150  17.7612988  99.1284257  15.9896120  17.1961354  99.1167090
  18.3993167  26.7021242 101.8489795  17.7254865  27.0052939 102.4574752
  18.7858989  27.5050322 101.4995252  16.6713321  18.0936330 103.4517099
  15.7624541  17.8095363 103.5489568  16.7008405  18.5135408 102.5920405
  21.9032589  21.7042919 107.2208266  21.4494916  20.8633829 107.2773457
  21.2726555  22.3404318 107.5583046  20.3465528  23.5419416 108.1558084
  20.6388502  24.1024473 107.4370450  20.8564148  23.8347977 108.9111243
  16.3689409  19.6345073 100.7905177  15.9308839  18.9180932 100.3310814
  17.1099850  19.8621188 100.2290269  24.4862524  17.9102270 106.8481496
  24.3480422  18.1003866 105.9202685  24.1298743  18.6721653 107.3049547
  16.5984382  26.8700914 104.0636874  16.7736138  26.3988958 104.8782496
  15.9117170  27.4966681 104.2918135  20.4900637  18.4929455 100.3837235
  19.8729807  17.7676283 100.2870287  20.0217125  19.2538815 100.0404309
  15.4663109  25.0641170 106.7521059  14.6830631  25.6062850 106.8459284
  16.1655854  25.5815149 107.1515301  21.3138322  21.8168627 104.5029874
  21.5898166  21.7025222 105.4123749  20.4442821  21.4186112 104.4642048
  17.9492386  26.0654978 108.1462688  18.1314780  25.2476634 108.6090440
  18.7725372  26.2822670 107.7087578  18.2834551  24.9923163 105.4077737
  18.8122318  24.4815617 104.7947899  18.5462771  24.6765693 106.2723270
  21.3774735  24.9639961 106.0232720  21.5511612  24.3986384 105.2706572
  21.8703626  25.7640856 105.8412209  27.2314126  17.7276384 107.6423019
  27.6745272  16.9783709 107.2442143  26.3540636  17.7186520 107.2596751
  22.3649907  24.2806726 103.1229618  23.0600812  24.9013418 103.3416932
  22.7073058  23.4302077 103.3981996  24.2641331  21.7306431 104.6516949
  24.7892655  22.0693704 103.9266269  24.1763683  20.7953446 104.4680083
  12.9569370  21.8920347 104.5592964  13.1057491  22.5755811 103.9059637
  13.7635814  21.8725437 105.0742420  16.4564776  24.3868477 102.0304711
  15.8838743  25.0058664 101.5775183  17.0297570  24.9367839 102.5644633
  19.6762036  24.6705627 103.1613294  20.6092709  24.6051189 103.3646169
  19.5885248  25.5061894 102.7027826  22.3050052  23.9871498 100.1217241
  22.2263684  23.6531361 101.0152999  23.1259719  24.4793266 100.1208714
  16.8411574  15.7229290  99.3720764  17.7870679  15.5935498  99.4409182
  16.4625819  14.9843952  99.8490192  15.0254492  13.6479266  99.3075649
  14.1185947  13.3512379  99.3838363  15.3030473  13.3509084  98.4409935
  19.8754004  21.3039493  99.7427220  20.5789854  21.5089496 100.3584875
  19.1516653  21.8716255 100.0076303  21.7840702  21.7422022 101.7925680
  22.6186305  21.3103221 101.6103154  21.6225044  21.5704036 102.7202574
  21.4386594  18.2454136 103.1582019  21.3835397  18.0798407 102.2170463
  20.8132649  18.9530168 103.3144209  30.4124977  32.2591673 111.8880856
  31.0503387  32.1398421 111.1844196  30.2945820  33.2072517 111.9468809
  27.2214683  32.2119101 111.8242381  26.8833194  32.0960166 110.9362916
  28.0904451  31.8110267 111.8043387  23.0801499  34.0654578 107.8139272
  22.5166364  33.9744515 107.0455560  22.9653894  33.2454482 108.2941765
  20.6265931  35.5605769 110.6523492  21.4187222  35.2196594 110.2369792
  20.8662581  35.6700745 111.5725646  28.6601057  37.7325546 103.1253737
  28.0089037  38.3179626 102.7387751  29.4545420  38.2631741 103.1848774
  22.5856684  34.8214683 103.5240871  23.3587560  34.2743670 103.3853747
  22.9382083  35.6858932 103.7355333  24.4241727  36.1491065 116.7307771
  24.1331593  37.0536696 116.6154437  25.0598711  36.1907593 117.4451840
  25.3497934  33.5267914 113.3209130  25.9461506  33.3023936 112.6066093
  25.4072905  32.7852659 113.9234578  24.9222962  30.9807349 101.1559321
  25.1748483  30.4588870 100.3942784  23.9847521  30.8173494 101.2586005
  29.9666245  29.9843127 108.9634064  30.7529334  29.5662550 108.6124481
  30.2304949  30.8889219 109.1315713  30.1376322  35.4215978 103.6622721
  29.5022155  35.4950604 104.3743626  29.8073729  36.0109576 102.9841800
  35.3674672  29.9218360 109.8667043  36.0999844  29.3517577 110.1004872
  34.6114028  29.5339961 110.3073549  24.6419251  32.8835455 103.3583696
  24.5255509  32.2080358 104.0264780  24.7521511  32.3967829 102.5415849
  26.9850792  32.3445602 107.0630385  26.6208999  31.8176223 107.7743307
  27.8417908  31.9544071 106.8896871  26.6256279  27.3735502 102.0591734
  26.7930681  28.2415738 102.4262205  26.4353448  27.5362783 101.1353023
  29.3831612  35.8352481 113.7257564  29.0832335  36.7377519 113.6173371
  29.0382672  35.5684664 114.5778717  22.8344094  32.2866277 109.7594269
  21.9094590  32.1542491 109.9671960  23.0828507  33.0660497 110.2564211
  32.7828756  28.3535021 111.4055002  31.8745633  28.2850429 111.1113763
  32.7316352  28.8306966 112.2336827  26.6045500  29.8293159 103.0438401
  26.4845125  30.2750210 103.8823881  25.9098088  30.1778477 102.4851939
  20.1952905  31.9299551 110.5938058  20.3245286  32.1834030 111.5077469
  19.5150356  32.5227259 110.2742713  24.3652392  42.5996801 106.6928532
  24.2876422  43.5504626 106.7717013  23.7614036  42.2542673 107.3503458
  34.6490402  26.5551459 113.1832876  34.0064783  26.8483992 112.5372670
  34.1445331  26.4404379 113.9886072  32.3030566  30.3014632 103.8718735
  33.2148422  30.5342019 103.6966432  31.7940213  30.8851677 103.3093813
  30.5871334  34.7239260 117.5080027  30.9954690  34.2821671 116.7634660
  29.8648595  34.1491888 117.7614220  30.9100148  35.2840451 111.2632316
  30.2809011  35.4486165 110.5608384  30.5225810  35.6982060 112.0343280
  34.7889380  36.2194889 108.6176680  34.1040418  36.5993790 108.0673713
  34.8733229  36.8290215 109.3508628  32.0440312  33.8654848 115.2172024
  32.2557207  34.5086608 114.5406405  31.9970060  33.0317164 114.7493954
  29.6466541  26.4772668 112.1208596  28.7851020  26.7753922 112.4125333
  29.6728975  26.6943067 111.1889628  26.4628110  35.0214859 108.5282401
  26.9266456  35.3002562 107.7387024  26.1984908  34.1198303 108.3455492
  23.3552191  34.5686340 111.4662165  23.9253548  34.9973609 110.8279649
  23.9460303  34.2868925 112.1646350  25.3996996  31.1438011 105.3371966
  26.1021040  31.5959055 105.8045893  25.0677625  30.5021830 105.9651860
  19.1422330  29.4021564 110.6389100  18.3521384  29.6579092 110.1629211
  19.6333578  30.2169902 110.7441141  33.1586140  36.7426803 113.3894381
  33.9803583  36.3406990 113.1077062  33.1548543  36.6395037 114.3410497
  21.0937076  29.7666143 107.5972577  20.2968239  29.8784837 108.1156072
  20.8662668  30.1052795 106.7313467  26.9242743  36.2910846 115.5455091
  26.9887176  36.7531254 116.3813263  26.2153667  35.6608211 115.6737401
  41.2492133  33.0865552 109.7379352  40.4955841  32.5172950 109.5823357
  41.3839674  33.0528216 110.6849987  26.6390761  37.9578954 105.4134072
  26.5036436  38.8030490 105.8418919  27.1800573  38.1598231 104.6500005
  20.0920158  35.4754392 105.9861997  20.6044679  36.2697642 106.1367561
  20.7442871  34.7780682 105.9195598  21.9015043  38.5920148 108.0684750
  22.0781671  39.5138113 107.8805734  22.6971876  38.2778567 108.4979130
  28.2659237  38.5802520 119.5434414  27.8223091  37.7938899 119.2255318
  28.9276451  38.7681671 118.8778305  23.0246358  40.1098322 114.0695092
  23.5753784  39.9815385 113.2972086  22.1857834  40.4093211 113.7189985
  30.3640475  38.8605320 117.5715815  30.3458951  39.6814201 117.0796084
  31.2860395  38.7359395 117.7965956  18.0569075  33.8043046 106.7621567
  18.8944297  34.2140055 106.5455275  18.2347343  32.8642488 106.7321761
  29.9533507  31.4718127 102.4505400  29.4380131  32.2422731 102.6893788
  29.6810816  30.7983263 103.0738462  27.5380618  26.3167828 107.5090639
  26.6822214  25.9274678 107.3296277  27.9507570  26.3959788 106.6490424
  29.0679765  23.8514171 111.9082198  28.5644560  23.8144306 111.0950004
  29.3610372  24.7606914 111.9678855  34.9267781  34.2250481 104.3858574
  34.1497224  33.8861641 103.9413736  35.6059262  34.2303105 103.7113539
  29.7419810  29.3445219 104.2765181  29.4369946  29.6591368 105.1275325
  30.6950252  29.4226639 104.3192514  28.1866242  35.5035442 105.9258135
  27.6587604  34.7688202 105.6131373  27.6853745  36.2810119 105.6798104
  33.1659088  33.6984463 111.0425182  32.5082763  34.3883724 111.1305310
  33.9699487  34.0880895 111.3859168  22.9184970  26.1655109 108.2864747
  23.4928722  25.9430290 107.5537940  23.5055952  26.2343803 109.0393348
  31.9764547  32.0528835 109.0929123  32.4896429  32.6858827 109.5950833
  32.6265771  31.4530031 108.7272483  23.2454557  28.1959570 102.3060632
  22.4091869  28.5334256 102.6269907  23.1059327  28.0608549 101.3687769
  25.2207637  23.0396357 107.0139816  24.5672050  22.7245375 106.3896431
  25.1788112  22.4172098 107.7399639  26.3318842  33.3215652  98.9293108
  25.4245904  33.0904906  99.1284257  26.8289874  32.5253272  99.1167090
  29.2386921  42.0313160 101.8489795  28.5648620  42.3344856 102.4574752
  29.6252743  42.8342240 101.4995252  28.4545378  29.5278291 111.3387464
  27.5367939  29.7493238 111.1809152  28.8705521  29.6024601 110.4799171
  29.2380426  30.9269707 106.4690144  29.9852245  31.4391104 106.1597266
  29.5072015  30.6053759 107.3294538  27.5107076  33.4228247 103.4517099
  26.6018295  33.1387280 103.5489568  27.5402160  33.8427326 102.5920405
  32.7426343  37.0334837 107.2208266  32.2888670  36.1925747 107.2773457
  32.1120310  37.6696235 107.5583046  31.6859263  27.9626823 108.4508934
  30.9482020  27.4504209 108.7819176  31.9386036  27.5227205 107.6392210
  31.1859282  38.8711334 108.1558084  31.4782257  39.4316391 107.4370450
  31.6957903  39.1639895 108.9111243  31.7870890  20.7403075 109.0450703
  32.0929767  19.8800438 108.7576618  32.5123495  21.3320695 108.8449697
  18.0795246  31.1433761 107.4332301  17.8819646  30.5503122 106.7083367
  17.5241910  30.8385972 108.1508240  26.0591970  31.0356868 109.5526894
  26.1140580  30.0830704 109.4769370  25.2483172  31.1916307 110.0368192
  27.2083164  34.9636991 100.7905177  26.7702593  34.2472850 100.3310814
  27.9493604  35.1913106 100.2290269  23.9984330  29.6533928 107.3117273
  23.1852195  29.9528098 107.7182465  24.4943324  29.2589616 108.0291755
  26.1492908  39.6491685 109.2451537  26.1069086  39.8752531 108.3160069
  27.0655606  39.4155059 109.3937339  35.3256278  33.2394188 106.8481496
  35.1874177  33.4295784 105.9202685  34.9692497  34.0013571 107.3049547
  35.3525658  35.3070715 111.8592767  35.7862165  35.2146004 112.7075821
  36.0657239  35.2828216 111.2212783  24.2658708  36.5254714 109.0413500
  25.0599307  36.0305034 108.8396075  23.5550401  35.9972577 108.6781206
  29.0853553  38.9072809 113.3925868  29.1390575  39.4763746 114.1603584
  28.2168334  39.0774694 113.0279905  20.5741472  30.6697795 105.1173253
  19.6439060  30.6082251 105.3343215  20.6698944  30.1473748 104.3209894
  20.4927021  27.1952608 107.7051495  20.7533838  28.1097941 107.5960655
  21.3144193  26.7277051 107.8548107  36.2141208  35.3494416 114.3925653
  36.4077098  36.2540226 114.6384928  36.1141826  34.8901835 115.2264238
  31.2756316  35.5001158 119.9666533  31.1241823  35.2711710 119.0496617
  31.2660996  36.4571760 119.9797878  28.0441653  33.0733071 114.9512800
  28.9733713  33.2244231 114.7781767  27.6232683  33.1617092 114.0961446
  26.8429984  37.0983736 112.7211337  26.7041070  36.7302520 113.5937275
  26.0544581  37.6131375 112.5495295  27.4378136  42.1992832 104.0636874
  27.6129892  41.7280875 104.8782496  26.7510924  42.8258598 104.2918135
  28.3935200  36.4765338 110.1100175  28.0585032  36.4366108 111.0057825
  27.8939145  35.8110054 109.6370585  31.3294391  33.8221373 100.3837235
  30.7123562  33.0968201 100.2870287  30.8610880  34.5830733 100.0404309
  32.9848523  38.5320281 118.0443015  32.9261069  37.8479501 117.3773598
  33.3868041  39.2739271 117.5923641  22.0039222  45.3482195 110.8376734
  22.2435820  45.9800719 111.5155753  21.1608418  44.9970235 111.1242093
  23.1192937  28.0406797  99.5058539  22.2422403  27.9195598  99.1420786
  23.5950690  27.2492875  99.2537428  32.9865930  36.4959865 116.2756995
  32.0992709  36.1585787 116.3983394  33.5564481  35.7642896 116.5125760
  14.6395077  32.8283957 109.6000046  15.3266117  32.5145687 109.0121061
  14.4843206  33.7325321 109.3267298  26.5167083  41.1561317 113.2418238
  26.4437255  41.9616289 113.7537543  26.0744477  41.3553283 112.4166259
  26.3056863  40.3933087 106.7521059  25.5224385  40.9354768 106.8459284
  27.0049608  40.9107067 107.1515301  29.6153513  26.2027717 109.3955265
  30.1122213  25.4497679 109.0756335  28.8440495  26.2392033 108.8298474
  37.4683271  31.9068082 111.0373556  37.4573147  32.7892798 110.6667489
  36.6000650  31.5539633 110.8428093  28.9765767  41.0548151 115.3976397
  29.6893739  41.6895616 115.3252298  28.4855796  41.1512017 114.5816398
  30.6983294  34.9599404 106.9693688  29.7639573  35.0800866 106.7998393
  30.8759962  34.0571871 106.7053698  26.1988482  28.3445100 109.1226949
  25.8286270  27.7916140 109.8107855  26.6947574  27.7403233 108.5701950
  34.0855845  30.8016723 107.5043722  34.5516297  31.6344715 107.4304025
  34.5363346  30.3361705 108.2088981  24.0277681  38.8042595 116.2181967
  24.7287140  39.4379078 116.3711362  23.5572796  39.1457326 115.4577607
  32.1532076  37.1460545 104.5029874  32.4291920  37.0317139 105.4123749
  31.2836575  36.7478029 104.4642048  32.0572508  23.1697310 111.5434624
  31.1435588  23.4001537 111.7116831  32.4865609  23.2535754 112.3948656
  31.8278967  31.3587202 114.0434518  31.1750417  31.6063110 113.3886971
  32.2059346  30.5451340 113.7096995  28.7886140  41.3946895 108.1462688
  28.9708535  40.5768551 108.6090440  29.6119126  41.6114588 107.7087578
  29.1228306  40.3215081 105.4077737  29.6516072  39.8107535 104.7947899
  29.3856525  40.0057611 106.2723270  19.6245399  38.3378950 113.1513070
  20.2098835  37.5922638 113.2840974  19.4270237  38.6482907 114.0349734
  22.4784054  41.3730197 108.1675512  21.8094429  41.8576325 107.6839553
  22.3396924  41.6199418 109.0818891  26.6189322  43.4073941 114.7658171
  27.1707630  43.5705562 115.5307256  26.9595516  43.9978379 114.0938196
  31.4700197  38.2335198 120.6206825  32.0140101  38.8465157 120.1261780
  30.8887042  38.7914777 121.1373838  17.8471631  29.6348652 104.9471445
  18.1425072  28.7259331 104.8938498  16.9459667  29.6136392 104.6252447
  29.7557710  41.3555916 111.7521853  29.6308849  40.5545656 111.2432799
  30.4136801  41.8502110 111.2635823  21.3765878  27.7104649 110.9298993
  20.6552464  28.3240617 110.7906467  22.1659134  28.2462414 110.8515639
  31.8192618  39.1564936 113.3801403  30.8722954  39.0370288 113.3079730
  32.1675391  38.2687434 113.4627665  19.5759473  27.3162750 105.0710770
  19.2472179  26.4360129 104.8885876  19.9298843  27.2610419 105.9587159
  28.8239051  38.9517653 109.5805755  28.6764014  38.0234360 109.7613325
  29.6492545  38.9737743 109.0962831  22.6901296  27.6035720 105.4386247
  23.0297368  28.1321641 104.7164856  23.1373416  27.9416126 106.2144814
  32.4273173  39.7746211 110.6670628  33.3519721  39.5689073 110.5295079
  32.2588477  39.5262612 111.5759970  24.6769443  26.1010341 103.6379540
  25.3977805  26.4791594 103.1343257  24.0534747  26.8199218 103.7414518
  28.8200566  26.8055490 104.5737873  29.0364180  27.6880128 104.2726701
  28.3394633  26.4141704 103.8443515  23.5599787  29.7641203 111.1508617
  23.4144368  30.0781507 112.0432899  23.0824991  30.3826104 110.5979516
  25.4196170  26.7543751 111.1989507  25.4057739  25.8584845 110.8621805
  26.1368598  26.7614415 111.8327793  32.2168489  40.2931879 106.0232720
  32.3905367  39.7278301 105.2706572  32.7097381  41.0932774 105.8412209
  24.8233066  25.6358132 106.4677077  24.9448977  24.7074778 106.6667964
  24.5335108  25.6496818 105.5555392  27.6924256  23.3213042 109.6043797
  27.7145953  23.3852375 108.6495776  28.1092315  22.4817551 109.7984303
  38.0707881  33.0568302 107.6423019  38.5139027  32.3075627 107.2442143
  37.1934391  33.0478438 107.2596751  33.2043662  39.6098643 103.1229618
  33.8994567  40.2305336 103.3416932  33.5466812  38.7593994 103.3981996
  35.1035085  37.0598349 104.6516949  35.6286409  37.3985621 103.9266269
  35.0157438  36.1245364 104.4680083  26.7655134  40.9732422 116.7806825
  27.0742260  40.7281569 117.6529525  27.5630616  41.1779061 116.2925695
  26.7875746  43.1270332 109.0112202  26.3480736  42.6346711 109.7045058
  27.5383863  42.5843300 108.7704277  19.2668085  39.3181873 109.0136830
  20.0926105  39.0185645 108.6335473  18.9162137  38.5489495 109.4626619
  24.2349618  38.6708341 111.0834503  23.6129627  38.0079046 110.7836731
  24.9054485  38.6969473 110.4008151  17.4676690  37.2368199 109.9725763
  16.6308598  36.8090374 109.7909765  17.4400335  37.4300643 110.9096555
  34.7928991  37.6931252 119.9568147  34.0024535  37.6755391 119.4172646
  34.5562346  38.2319546 120.7117183  34.9126866  34.5423719 117.2700875
  34.9624871  34.3773726 118.2116398  34.8040789  33.6750978 116.8798756
  23.7963125  37.2212264 104.5592964  23.9451245  37.9047729 103.9059637
  24.6029568  37.2017354 105.0742420  36.4145063  36.9620660 117.5142897
  36.1229871  37.3250641 118.3506358  35.8017194  36.2487669 117.3356229
  37.6140745  34.5273540 110.0345467  38.4487637  34.9663344 110.1983027
  37.7499874  34.0512193 109.2153713  34.6632251  32.0853275 115.9822955
  35.1386373  32.2780921 115.1741806  33.7397817  32.1412461 115.7366338
  21.5515758  33.2477442 105.5654033  21.3061800  32.3439772 105.7634243
  21.7211672  33.2494593 104.6233511  20.8211405  28.9805800 103.0640194
  20.1280650  29.0550155 102.4080230  20.5763157  28.2166143 103.5861711
  27.2958530  39.7160395 102.0304711  26.7232497  40.3350582 101.5775183
  27.8691324  40.2659757 102.5644633  33.3633920  28.9619035 114.2151260
  34.3151343  29.0617133 114.2363484  33.1937371  28.1697304 114.7249345
  31.3848300  26.0474618 114.4010661  30.7898232  26.3279631 113.7057150
  31.0997996  26.5368519 115.1727402  30.5155790  39.9997545 103.1613294
  31.4486463  39.9343107 103.3646169  30.4279003  40.8353812 102.7027826
  33.1443807  39.3163415 100.1217241  33.0657438  38.9823279 101.0152999
  33.9653474  39.8085183 100.1208714  35.8421998  32.1825155 113.3293560
  35.8098318  31.2441155 113.5153244  36.4522622  32.2609191 112.5959385
  27.6805329  31.0521208  99.3720764  28.6264434  30.9227416  99.4409182
  27.3019574  30.3135870  99.8490192  35.9916486  28.9736198 113.3751843
  35.4755535  28.1894655 113.1881772  36.8756435  28.6454915 113.5398363
  33.6527213  22.7177214 109.3347656  33.4552035  22.4092302 110.2190988
  34.2626919  23.4438853 109.4645586  41.6598548  33.2441161 112.4699597
  42.3901936  32.9826450 113.0307300  41.0505493  32.5069883 112.5101665
  39.7413845  31.3849024 113.0674048  39.0147009  31.2504989 112.4590539
  39.3261132  31.6925853 113.8730766  25.8648246  28.9771184  99.3075649
  24.9579701  28.6804297  99.3838363  26.1424227  28.6801002  98.4409935
  16.7826186  30.2977547 109.7574696  16.4628971  29.4442856 109.4649070
  16.2359615  30.5126126 110.5132663  20.5606094  33.0139988 113.4744202
  20.7792104  33.9457096 113.4932236  20.9731868  32.6547963 114.2599006
  27.4810312  23.5208074 105.4619890  26.6711040  23.1755159 105.8375137
  28.1694729  23.2115617 106.0507502  29.4100860  22.5986121 107.0844187
  29.9631899  23.0181574 107.7434210  29.6470946  21.6721869 107.1267143
  24.6347031  25.8358119  99.4487628  25.4966195  26.1613018  99.7083446
  24.8197375  25.0489615  98.9360694  16.6514446  33.9180459 111.7267817
  15.9577918  33.5034412 111.2137772  17.3987437  33.9600995 111.1301236
  32.7879667  24.7086646 106.5922851  32.2078336  25.3671450 106.2100904
  32.5215600  23.8863990 106.1810269  31.2383233  24.1091703 108.7944172
  31.7383012  24.2208238 107.9858490  31.8818841  23.8052756 109.4344980
  18.5651189  33.8498713 109.6033832  18.5421877  33.9486400 108.6515715
  18.8751825  34.6963863 109.9250998  21.2238567  35.9074868 113.7180446
  22.1781820  35.8758810 113.6510378  21.0251090  35.4465491 114.5330672
  31.5704545  26.8686736 105.6479200  30.6830400  27.1536387 105.4299394
  31.9858534  26.7080499 104.8006476  34.9219081  26.8933257 109.3633539
  35.6979471  27.3829709 109.6358156  34.1967215  27.3191311 109.8205408
  37.3591640  27.6060876 110.4207479  37.9536131  27.3656612 109.7100788
  37.4318224  26.8868007 111.0481016  19.5788796  41.4494487 110.7350644
  19.4443264  40.6894888 110.1688642  19.1620858  42.1735387 110.2679433
  30.7147759  36.6331411  99.7427220  31.4183609  36.8381413 100.3584875
  29.9910407  37.2008173 100.0076303  31.5445569  32.3841272 105.8629490
  31.4880770  32.8409823 105.0237122  32.0973911  31.6231957 105.6852333
  35.3550375  28.1731004 106.6879609  35.0987309  27.7727640 107.5187817
  34.7303243  28.8874798 106.5629748  39.6662713  30.9127077 109.1950901
  39.1062271  30.9820266 109.9682463  39.0606216  30.7368062 108.4750397
  22.7357921  42.3463804 110.9469087  22.6190306  43.2909237 110.8447777
  21.9150368  42.0437366 111.3354886  32.6234456  37.0713940 101.7925680
  33.4580060  36.6395138 101.6103154  32.4618799  36.8995954 102.7202574
  32.2780348  33.5746053 103.1582019  32.2229152  33.4090325 102.2170463
  31.6526403  34.2822086 103.3144209  25.5876474  23.0754162 102.7367337
  25.5755143  24.0196002 102.8935608  26.4799896  22.8924308 102.4426799
  23.7612436  42.9992066 114.1625015  24.6639682  43.0315676 114.4791510
  23.5349806  42.0692517 114.1771351  25.5166038  41.7523053 110.8235094
  24.5661669  41.7524914 110.7099466  25.8198524  41.0055787 110.3071129
  29.4028593  19.6696939 106.9913274  28.6360989  19.1155426 107.1369956
  29.8139298  19.7418808 107.8527426  41.2518731  47.5883591 111.8880856
  41.8897141  47.4690338 111.1844196  41.1339574  48.5364435 111.9468809
  38.0608437  47.5411019 111.8242381  37.7226949  47.4252084 110.9362916
  38.9298206  47.1402184 111.8043387  33.9195253  49.3946496 107.8139272
  33.3560118  49.3036433 107.0455560  33.8047648  48.5746400 108.2941765
  38.5428220  48.6945871 117.7828587  38.5316861  48.2998669 116.9109090
  38.7048860  47.9611944 118.3762358  31.4659685  50.8897687 110.6523492
  32.2580977  50.5488512 110.2369792  31.7056335  50.9992662 111.5725646
  39.4994812  53.0617463 103.1253737  38.8482792  53.6471544 102.7387751
  40.2939175  53.5923658 103.1848774  33.4250439  50.1506600 103.5240871
  34.1981315  49.6035588 103.3853747  33.7775838  51.0150850 103.7355333
  35.2635482  51.4782983 116.7307771  34.9725347  52.3828614 116.6154437
  35.8992466  51.5199510 117.4451840  36.1891688  48.8559831 113.3209130
  36.7855261  48.6315854 112.6066093  36.2466660  48.1144577 113.9234578
  35.7616717  46.3099267 101.1559321  36.0142237  45.7880788 100.3942784
  34.8241276  46.1465412 101.2586005  40.8060000  45.3135045 108.9634064
  41.5923089  44.8954468 108.6124481  41.0698704  46.2181137 109.1315713
  40.9770077  50.7507895 103.6622721  40.3415910  50.8242522 104.3743626
  40.6467483  51.3401494 102.9841800  46.2068427  45.2510278 109.8667043
  46.9393599  44.6809495 110.1004872  45.4507782  44.8631879 110.3073549
  35.4813006  48.2127373 103.3583696  35.3649264  47.5372276 104.0264780
  35.5915265  47.7259746 102.5415849  37.8244546  47.6737520 107.0630385
  37.4602754  47.1468141 107.7743307  38.6811662  47.2835989 106.8896871
  43.7293847  38.9631852 114.3261652  43.3977172  39.8327263 114.1022867
  43.1339460  38.6468136 115.0055682  37.4650033  42.7027419 102.0591734
  37.6324436  43.5707656 102.4262205  37.2747202  42.8654701 101.1353023
  40.2225367  51.1644398 113.7257564  39.9226090  52.0669437 113.6173371
  39.8776426  50.8976581 114.5778717  33.6737848  47.6158195 109.7594269
  32.7488345  47.4834409 109.9671960  33.9222261  48.3952414 110.2564211
  43.6222510  43.6826938 111.4055002  42.7139388  43.6142347 111.1113763
  43.5710106  44.1598883 112.2336827  37.4439254  45.1585077 103.0438401
  37.3238879  45.6042128 103.8823881  36.7491843  45.5070394 102.4851939
  31.0346659  47.2591469 110.5938058  31.1639040  47.5125948 111.5077469
  30.3544110  47.8519177 110.2742713  35.2046146  57.9288719 106.6928532
  35.1270176  58.8796544 106.7717013  34.6007790  57.5834591 107.3503458
  37.6963376  45.1016584 119.3489899  36.9196710  45.6610504 119.3392763
  38.3353939  45.5873367 119.8704769  45.4884157  41.8843377 113.1832876
  44.8458537  42.1775910 112.5372670  44.9839085  41.7696297 113.9886072
  43.1424320  45.6306550 103.8718735  44.0542177  45.8633937 103.6966432
  42.6333968  46.2143594 103.3093813  35.9509748  47.9102037 118.9107866
  36.6924433  48.4487081 118.6342689  35.2446734  48.5368326 119.0679418
  41.4265088  50.0531178 117.5080027  41.8348444  49.6113588 116.7634660
  40.7042350  49.4783805 117.7614220  37.7796158  44.9903785 114.8813584
  38.6257353  45.4143198 115.0248233  37.7194796  44.3337409 115.5752147
  41.7493903  50.6132368 111.2632316  41.1202765  50.7778083 110.5608384
  41.3619565  51.0273978 112.0343280  45.6283135  51.5486806 108.6176680
  44.9434173  51.9285708 108.0673713  45.7126984  52.1582133 109.3508628
  40.9295603  42.6508153 116.5394758  40.6856535  43.4050213 116.0029034
  41.2055534  43.0293501 117.3742005  42.8834066  49.1946765 115.2172024
  43.0950962  49.8378525 114.5406405  42.8363815  48.3609082 114.7493954
  40.4860295  41.8064586 112.1208596  39.6244774  42.1045840 112.4125333
  40.5122730  42.0234985 111.1889628  37.3021865  50.3506777 108.5282401
  37.7660210  50.6294480 107.7387024  37.0378663  49.4490221 108.3455492
  34.1945946  49.8978258 111.4662165  34.7647303  50.3265526 110.8279649
  34.7854058  49.6160843 112.1646350  36.2390751  46.4729929 105.3371966
  36.9414794  46.9250973 105.8045893  35.9071379  45.8313748 105.9651860
  34.6871112  45.0641686 119.7123176  34.0569773  45.7457966 119.9458573
  34.5807200  44.9524767 118.7676314  29.9816085  44.7313482 110.6389100
  29.1915139  44.9871010 110.1629211  30.4727332  45.5461819 110.7441141
  43.9979894  52.0718721 113.3894381  44.8197338  51.6698908 113.1077062
  43.9942297  51.9686955 114.3410497  31.9330830  45.0958061 107.5972577
  31.1361993  45.2076755 108.1156072  31.7056422  45.4344713 106.7313467
  37.7636498  51.6202764 115.5455091  37.8280930  52.0823171 116.3813263
  37.0547422  50.9900129 115.6737401  28.2653788  44.9843972 113.0704091
  28.5161826  45.8690982 113.3361667  28.8013336  44.8048574 112.2979183
  52.0885887  48.4157469 109.7379352  51.3349596  47.8464867 109.5823357
  52.2233428  48.3820134 110.6849987  37.4784515  53.2870872 105.4134072
  37.3430190  54.1322407 105.8418919  38.0194328  53.4890149 104.6500005
  33.9651855  39.3662451 122.0748427  33.5718801  38.8128650 122.7496071
  34.7817995  39.6773030 122.4654944  30.9313913  50.8046310 105.9861997
  31.4438433  51.5989560 106.1367561  31.5836626  50.1072600 105.9195598
  32.7408797  53.9212066 108.0684750  32.9175426  54.8430031 107.8805734
  33.5365631  53.6070485 108.4979130  36.8819816  40.7820330 119.6668683
  37.6229529  41.3827484 119.5873146  37.1137739  40.0397968 119.1086726
  32.0261154  45.9676698 117.9446913  31.9114669  45.0661955 118.2454012
  31.1705672  46.2140394 117.5931730  39.1052992  53.9094438 119.5434414
  38.6616846  53.1230817 119.2255318  39.7670205  54.0973589 118.8778305
  33.8640113  55.4390240 114.0695092  34.4147538  55.3107303 113.2972086
  33.0251589  55.7385129 113.7189985  41.2034230  54.1897238 117.5715815
  41.1852705  55.0106119 117.0796084  42.1254150  54.0651313 117.7965956
  37.6607284  51.7041367 118.4139323  38.1935621  50.9429656 118.1838631
  37.1321365  51.4115019 119.1563478  40.8276979  36.8101433 113.9432965
  40.4841248  37.7003075 113.8672076  41.1955941  36.6203091 113.0802550
  28.8962829  49.1334964 106.7621567  29.7338051  49.5431972 106.5455275
  29.0741097  48.1934406 106.7321761  40.7927262  46.8010044 102.4505400
  40.2773885  47.5714649 102.6893788  40.5204570  46.1275181 103.0738462
  38.3774373  41.6459745 107.5090639  37.5215969  41.2566596 107.3296277
  38.7901324  41.7251706 106.6490424  39.9073519  39.1806089 111.9082198
  39.4038315  39.1436224 111.0950004  40.2004126  40.0898831 111.9678855
  36.1516405  39.2644818 110.9148380  37.0169402  39.0687627 110.5554270
  36.2193914  39.0355170 111.8417737  45.7661536  49.5542399 104.3858574
  44.9890979  49.2153559 103.9413736  46.4453017  49.5595022 103.7113539
  40.5813565  44.6737137 104.2765181  40.2763700  44.9883286 105.1275325
  41.5344007  44.7518556 104.3192514  39.0259997  50.8327360 105.9258135
  38.4981358  50.0980119 105.6131373  38.5247499  51.6102036 105.6798104
  44.0052843  49.0276380 111.0425182  43.3476517  49.7175642 111.1305310
  44.8093242  49.4172812 111.3859168  33.7578724  41.4947026 108.2864747
  34.3322476  41.2722208 107.5537940  34.3449707  41.5635721 109.0393348
  42.8158301  47.3820753 109.0929123  43.3290183  48.0150745 109.5950833
  43.4659525  46.7821949 108.7272483  34.0848311  43.5251487 102.3060632
  33.2485624  43.8626174 102.6269907  33.9453081  43.3900467 101.3687769
  36.0601392  38.3688275 107.0139816  35.4065804  38.0537292 106.3896431
  36.0181866  37.7464016 107.7399639  37.1712597  48.6507570  98.9293108
  36.2639659  48.4196824  99.1284257  37.6683629  47.8545189  99.1167090
  39.2939132  44.8570209 111.3387464  38.3761694  45.0785156 111.1809152
  39.7099276  44.9316519 110.4799171  40.0774180  46.2561624 106.4690144
  40.8245999  46.7683022 106.1597266  40.3465770  45.9345677 107.3294538
  38.3500830  48.7520165 103.4517099  37.4412050  48.4679198 103.5489568
  38.3795914  49.1719244 102.5920405  43.5820098  52.3626755 107.2208266
  43.1282425  51.5217664 107.2773457  42.9514064  52.9988153 107.5583046
  42.5253017  43.2918741 108.4508934  41.7875774  42.7796127 108.7819176
  42.7779791  42.8519122 107.6392210  42.0253037  54.2003251 108.1558084
  42.3176011  54.7608308 107.4370450  42.5351657  54.4931812 108.9111243
  42.6264645  36.0694993 109.0450703  42.9323521  35.2092356 108.7576618
  43.3517249  36.6612613 108.8449697  28.9189001  46.4725679 107.4332301
  28.7213400  45.8795040 106.7083367  28.3635665  46.1677889 108.1508240
  36.8985724  46.3648786 109.5526894  36.9534334  45.4122622 109.4769370
  36.0876926  46.5208225 110.0368192  38.0476918  50.2928909 100.7905177
  37.6096348  49.5764768 100.3310814  38.7887359  50.5205024 100.2290269
  34.8378084  44.9825845 107.3117273  34.0245950  45.2820016 107.7182465
  35.3337078  44.5881534 108.0291755  36.9886662  54.9783602 109.2451537
  36.9462841  55.2044449 108.3160069  37.9049361  54.7446977 109.3937339
  40.4352296  45.4467670 116.1432167  40.7901684  45.6739143 117.0026632
  41.0824427  45.7786047 115.5209422  46.1650033  48.5686106 106.8481496
  46.0267931  48.7587702 105.9202685  45.8086252  49.3305489 107.3049547
  34.3292159  42.5544201 112.9278508  34.9691538  42.4132960 112.2301471
  33.4969690  42.2678714 112.5517110  46.1919412  50.6362633 111.8592767
  46.6255919  50.5437922 112.7075821  46.9050993  50.6120133 111.2212783
  35.1052463  51.8546631 109.0413500  35.8993061  51.3596951 108.8396075
  34.3944155  51.3264494 108.6781206  39.9247307  54.2364727 113.3925868
  39.9784330  54.8055663 114.1603584  39.0562089  54.4066612 113.0279905
  31.4135226  45.9989713 105.1173253  30.4832814  45.9374169 105.3343215
  31.5092698  45.4765666 104.3209894  31.3320775  42.5244526 107.7051495
  31.5927593  43.4389859 107.5960655  32.1537948  42.0568968 107.8548107
  32.8045701  43.9382283 114.8750319  33.4768754  43.7299645 114.2262968
  31.9775487  43.7404369 114.4355551  47.0534962  50.6786333 114.3925653
  47.2470852  51.5832144 114.6384928  46.9535580  50.2193752 115.2264238
  38.7071273  40.5644224 116.8915980  38.0599188  41.2634174 116.7980456
  39.4772288  40.9980368 117.2592228  42.1150071  50.8293076 119.9666533
  41.9635577  50.6003628 119.0496617  42.1054750  51.7863678 119.9797878
  38.8835407  48.4024989 114.9512800  39.8127467  48.5536149 114.7781767
  38.4626437  48.4909010 114.0961446  37.6823739  52.4275653 112.7211337
  37.5434825  52.0594438 113.5937275  36.8938335  52.9423293 112.5495295
  38.2771891  57.5284750 104.0636874  38.4523647  57.0572793 104.8782496
  37.5904679  58.1550516 104.2918135  39.2328954  51.8057256 110.1100175
  38.8978787  51.7658026 111.0057825  38.7332900  51.1401972 109.6370585
  33.2073198  47.2124886 115.6352756  33.0692996  46.4805125 116.2364295
  34.1178121  47.1233786 115.3536944  42.1688146  49.1513290 100.3837235
  41.5517316  48.4260119 100.2870287  41.7004634  49.9122651 100.0404309
  35.8355499  46.9244845 115.1236436  36.5455117  46.2838038 115.0823054
  35.7924807  47.1757740 116.0462617  43.8242277  53.8612199 118.0443015
  43.7654823  53.1771419 117.3773598  44.2261796  54.6031189 117.5923641
  34.5484433  43.9110063 116.9432075  34.0121790  43.4600802 117.5953672
  33.9601141  44.0455972 116.2002540  32.8432976  60.6774113 110.8376734
  33.0829574  61.3092637 111.5155753  32.0002173  60.3262153 111.1242093
  33.9586692  43.3698715  99.5058539  33.0816158  43.2487515  99.1420786
  34.4344445  42.5784793  99.2537428  43.8259685  51.8251783 116.2756995
  42.9386463  51.4877704 116.3983394  44.3958236  51.0934814 116.5125760
  25.4788832  48.1575874 109.6000046  26.1659872  47.8437604 109.0121061
  25.3236960  49.0617239 109.3267298  30.2823554  43.0466071 114.0285070
  30.1981743  42.4391741 113.2935480  29.4606260  43.5375089 114.0294566
  37.3560838  56.4853235 113.2418238  37.2831009  57.2908206 113.7537543
  36.9138231  56.6845201 112.4166259  37.1450618  55.7225005 106.7521059
  36.3618139  56.2646685 106.8459284  37.8443363  56.2398985 107.1515301
  40.4547268  41.5319634 109.3955265  40.9515967  40.7789597 109.0756335
  39.6834249  41.5683951 108.8298474  48.3077025  47.2360000 111.0373556
  48.2966901  48.1184715 110.6667489  47.4394405  46.8831551 110.8428093
  39.8159522  56.3840069 115.3976397  40.5287494  57.0187534 115.3252298
  39.3249550  56.4803935 114.5816398  41.5377048  50.2891322 106.9693688
  40.6033327  50.4092784 106.7998393  41.7153717  49.3863788 106.7053698
  37.0382236  43.6737017 109.1226949  36.6680024  43.1208058 109.8107855
  37.5341329  43.0695151 108.5701950  44.9249600  46.1308641 107.5043722
  45.3910052  46.9636633 107.4304025  45.3757100  45.6653623 108.2088981
  34.8671435  54.1334512 116.2181967  35.5680895  54.7670995 116.3711362
  34.3966550  54.4749244 115.4577607  42.9925831  52.4752462 104.5029874
  43.2685675  52.3609057 105.4123749  42.1230330  52.0769947 104.4642048
  42.8966263  38.4989228 111.5434624  41.9829342  38.7293455 111.7116831
  43.3259364  38.5827672 112.3948656  42.6672721  46.6879120 114.0434518
  42.0144171  46.9355027 113.3886971  43.0453101  45.8743258 113.7096995
  39.6279895  56.7238813 108.1462688  39.8102289  55.9060469 108.6090440
  40.4512881  56.9406505 107.7087578  39.9622060  55.6506998 105.4077737
  40.4909827  55.1399453 104.7947899  40.2250280  55.3349528 106.2723270
  38.7160294  47.4298931 120.5300555  38.0400931  47.3293060 121.2002930
  39.5387928  47.2738145 120.9936552  30.4639153  53.6670868 113.1513070
  31.0492590  52.9214555 113.2840974  30.2663992  53.9774824 114.0349734
  33.3177808  56.7022115 108.1675512  32.6488184  57.1868243 107.6839553
  33.1790678  56.9491335 109.0818891  25.0556808  46.2376468 111.8717513
  25.0940907  45.7040058 112.6654631  24.5497101  45.7111673 111.2528490
  37.4583077  58.7365858 114.7658171  38.0101385  58.8997480 115.5307256
  37.7989270  59.3270296 114.0938196  32.4347570  41.0841008 115.3680056
  32.4988897  41.9455839 114.9557453  32.3714690  40.4715010 114.6352414
  31.9099843  43.1564141 119.0153090  32.5371881  42.7741218 119.6290614
  31.0527762  42.9378343 119.3808782  42.3093951  53.5627116 120.6206825
  42.8533855  54.1757074 120.1261780  41.7280796  54.1206694 121.1373838
  28.6865385  44.9640570 104.9471445  28.9818826  44.0551248 104.8938498
  27.7853421  44.9428309 104.6252447  40.5951464  56.6847834 111.7521853
  40.4702604  55.8837574 111.2432799  41.2530555  57.1794027 111.2635823
  32.2159632  43.0396566 110.9298993  31.4946218  43.6532534 110.7906467
  33.0052888  43.5754331 110.8515639  42.6586373  54.4856854 113.3801403
  41.7116708  54.3662205 113.3079730  43.0069146  53.5979352 113.4627665
  35.0185946  40.3750993 117.2039645  35.5420348  40.6213290 117.9665954
  34.7998279  41.2071028 116.7842782  30.4153227  42.6454668 105.0710770
  30.0865933  41.7652046 104.8885876  30.7692598  42.5902336 105.9587159
  39.6632806  54.2809570 109.5805755  39.5157768  53.3526278 109.7613325
  40.4886299  54.3029661 109.0962831  33.5295050  42.9327637 105.4386247
  33.8691123  43.4613559 104.7164856  33.9767171  43.2708043 106.2144814
  43.2666928  55.1038129 110.6670628  44.1913475  54.8980990 110.5295079
  43.0982231  54.8554530 111.5759970  36.2238491  41.3164688 114.8889316
  35.8835311  40.5172501 115.2909995  35.5177497  41.6166399 114.3166149
  36.8754963  38.4014000 113.3416639  37.6981032  37.9274479 113.2195529
  37.1193026  39.1804484 113.8415325  35.5163197  41.4302259 103.6379540
  36.2371560  41.8083512 103.1343257  34.8928501  42.1491136 103.7414518
  39.6594320  42.1347408 104.5737873  39.8757935  43.0172046 104.2726701
  39.1788387  41.7433621 103.8443515  34.3993542  45.0933121 111.1508617
  34.2538122  45.4073424 112.0432899  33.9218745  45.7118021 110.5979516
  36.2589924  42.0835669 111.1989507  36.2451493  41.1876762 110.8621805
  36.9762353  42.0906333 111.8327793  38.1116055  42.5173009 113.2442634
  37.8533833  43.4390080 113.2426965  37.5801096  42.1203444 113.9343098
  43.0562244  55.6223796 106.0232720  43.2299121  55.0570219 105.2706572
  43.5491135  56.4224691 105.8412209  28.8739204  47.6338466 114.0896278
  28.3292672  48.4098274 114.2216553  29.7518554  47.9809270 113.9315400
  35.6626820  40.9650049 106.4677077  35.7842732  40.0366696 106.6667964
  35.3728863  40.9788735 105.5555392  38.5318011  38.6504960 109.6043797
  38.5539708  38.7144293 108.6495776  38.9486070  37.8109468 109.7984303
  48.9101635  48.3860219 107.6423019  49.3532781  47.6367545 107.2442143
  48.0328145  48.3770356 107.2596751  29.6605226  46.7608362 116.9826435
  28.9186962  46.9090997 117.5691066  29.3397970  47.0216627 116.1193185
  45.9428840  52.3890266 104.6516949  46.4680164  52.7277539 103.9266269
  45.8551192  51.4537282 104.4680083  37.6048888  56.3024340 116.7806825
  37.9136015  56.0573487 117.6529525  38.4024370  56.5070979 116.2925695
  37.6269500  58.4562250 109.0112202  37.1874491  57.9638628 109.7045058
  38.3777617  57.9135217 108.7704277  30.1061839  54.6473791 109.0136830
  30.9319859  54.3477562 108.6335473  29.7555891  53.8781413 109.4626619
  35.0743372  54.0000259 111.0834503  34.4523382  53.3370964 110.7836731
  35.7448239  54.0261391 110.4008151  28.3070444  52.5660117 109.9725763
  27.4702353  52.1382291 109.7909765  28.2794090  52.7592560 110.9096555
  35.1467900  42.4782047 120.6767009  35.1956055  43.3544170 120.2944779
  35.6890414  41.9359440 120.1038653  45.6322746  53.0223170 119.9568147
  44.8418289  53.0047309 119.4172646  45.3956100  53.5611464 120.7117183
  45.7520621  49.8715636 117.2700875  45.8018626  49.7065644 118.2116398
  45.6434544  49.0042895 116.8798756  34.6356879  52.5504182 104.5592964
  34.7845000  53.2339646 103.9059637  35.4423323  52.5309272 105.0742420
  43.0424383  45.8546564 118.5860182  43.9434246  45.7153029 118.2944180
  43.1172358  46.0201019 119.5258359  37.3767188  43.2313419 117.4313368
  36.5070498  43.5246985 117.1595957  37.6126669  43.8153864 118.1520632
  47.2538817  52.2912578 117.5142897  46.9623626  52.6542558 118.3506358
  46.6410949  51.5779586 117.3356229  48.4534500  49.8565458 110.0345467
  49.2881391  50.2955262 110.1983027  48.5893629  49.3804111 109.2153713
  45.5026006  47.4145193 115.9822955  45.9780127  47.6072839 115.1741806
  44.5791571  47.4704378 115.7366338  32.3909512  48.5769360 105.5654033
  32.1455554  47.6731690 105.7634243  32.5605427  48.5786510 104.6233511
  40.0806222  39.4493036 114.9478789  40.5988166  40.1854063 114.6225277
  39.7261355  39.7557029 115.7825548  31.6605160  44.3097717 103.0640194
  30.9674405  44.3842072 102.4080230  31.4156912  43.5458061 103.5861711
  40.3318816  35.8693319 110.4679685  40.6120570  35.2016508 111.0940112
  41.1169423  36.0622414 109.9554349  38.1352285  55.0452313 102.0304711
  37.5626252  55.6642500 101.5775183  38.7085079  55.5951674 102.5644633
  44.2027675  44.2910953 114.2151260  45.1545098  44.3909050 114.2363484
  44.0331125  43.4989221 114.7249345  42.2242054  41.3766536 114.4010661
  41.6291986  41.6571549 113.7057150  41.9391751  41.8660437 115.1727402
  41.3549545  55.3289463 103.1613294  42.2880218  55.2635024 103.3646169
  41.2672757  56.1645730 102.7027826  46.6815752  47.5117072 113.3293560
  46.6492073  46.5733073 113.5153244  47.2916376  47.5901109 112.5959385
  38.5199083  46.3813125  99.3720764  39.4658188  46.2519333  99.4409182
  38.1413328  45.6427787  99.8490192  46.8310241  44.3028116 113.3751843
  46.3149290  43.5186572 113.1881772  47.7150190  43.9746832 113.5398363
  44.4920968  38.0469131 109.3347656  44.2945789  37.7384220 110.2190988
  45.1020673  38.7730770 109.4645586  52.4992302  48.5733079 112.4699597
  53.2295691  48.3118367 113.0307300  51.8899248  47.8361801 112.5101665
  50.5807599  46.7140942 113.0674048  49.8540763  46.5796907 112.4590539
  50.1654886  47.0217770 113.8730766  38.4037776  50.4330871 120.8321421
  39.3240785  50.6109470 121.0261467  38.3687359  49.4886917 120.6801120
  36.7042001  44.3063102  99.3075649  35.7973456  44.0096214  99.3838363
  36.9817982  44.0092920  98.4409935  27.6219941  45.6269465 109.7574696
  27.3022725  44.7734773 109.4649070  27.0753369  45.8418043 110.5132663
  31.3999848  48.3431906 113.4744202  31.6185858  49.2749014 113.4932236
  31.8125622  47.9839880 114.2599006  38.3204066  38.8499991 105.4619890
  37.5104795  38.5047076 105.8375137  39.0088483  38.5407535 106.0507502
  40.2494615  37.9278038 107.0844187  40.8025653  38.3473492 107.7434210
  40.4864701  37.0013786 107.1267143  36.2727714  43.9165112 122.8646951
  36.1724441  44.8659469 122.7959042  36.0549256  43.5883351 121.9923021
  35.4740785  41.1650037  99.4487628  36.3359949  41.4904935  99.7083446
  35.6591129  40.3781533  98.9360694  27.4908201  49.2472377 111.7267817
  26.7971672  48.8326329 111.2137772  28.2381192  49.2892913 111.1301236
  43.6273422  40.0378563 106.5922851  43.0472091  40.6963367 106.2100904
  43.3609354  39.2155908 106.1810269  42.0776988  39.4383621 108.7944172
  42.5776766  39.5500156 107.9858490  42.7212596  39.1344674 109.4344980
  36.1358984  47.3462251 121.6812013  35.6526066  48.1462611 121.8875902
  36.2219923  47.3570196 120.7279457  29.4044943  49.1790630 109.6033832
  29.3815632  49.2778318 108.6515715  29.7145580  50.0255781 109.9250998
  32.0632321  51.2366785 113.7180446  33.0175575  51.2050728 113.6510378
  31.8644845  50.7757409 114.5330672  32.6531703  49.8067901 116.2851244
  33.4724592  50.3011980 116.3086081  32.9268511  48.8899870 116.2568812
  42.4098300  42.1978654 105.6479200  41.5224155  42.4828304 105.4299394
  42.8252289  42.0372417 104.8006476  45.7612836  42.2225175 109.3633539
  46.5373226  42.7121627 109.6358156  45.0360970  42.6483229 109.8205408
  48.1985394  42.9352794 110.4207479  48.7929885  42.6948530 109.7100788
  48.2711978  42.2159925 111.0481016  30.4182550  56.7786405 110.7350644
  30.2837018  56.0186806 110.1688642  30.0014612  57.5027305 110.2679433
  41.5541513  51.9623328  99.7427220  42.2577363  52.1673331 100.3584875
  40.8304162  52.5300090 100.0076303  42.3839323  47.7133190 105.8629490
  42.3274525  48.1701741 105.0237122  42.9367666  46.9523874 105.6852333
  46.1944129  43.5022922 106.6879609  45.9381064  43.1019557 107.5187817
  45.5696997  44.2166715 106.5629748  50.5056467  46.2418995 109.1950901
  49.9456025  46.3112184 109.9682463  49.8999971  46.0659979 108.4750397
  33.5751676  57.6755722 110.9469087  33.4584060  58.6201154 110.8447777
  32.7544122  57.3729283 111.3354886  43.1174103  48.9037971 103.1582019
  43.0622906  48.7382242 102.2170463  42.4920158  49.6114004 103.3144209
  27.9066618  44.1406035 116.9843441  28.5525481  43.6304989 117.4730666
  27.6983769  44.8774717 117.5586866  40.4320010  51.2086883 122.4835582
  41.3011169  51.3827535 122.1222217  39.9526761  52.0281300 122.3611311
  36.4270228  38.4046080 102.7367337  36.4148898  39.3487920 102.8935608
  37.3193650  38.2216225 102.4426799  34.6006190  58.3283984 114.1625015
  35.5033437  58.3607594 114.4791510  34.3743560  57.3984435 114.1771351
  36.3559792  57.0814970 110.8235094  35.4055423  57.0816832 110.7099466
  36.6592278  56.3347705 110.3071129  40.2422348  34.9988857 106.9913274
  39.4754743  34.4447343 107.1369956  40.6533053  35.0710725 107.8527426
  32.2464109  41.2873652 121.0818455  33.1095570  40.9310457 121.2921780
  31.6729519  40.9487547 121.7693860  52.0912486  62.9175509 111.8880856
  52.7290896  62.7982256 111.1844196  51.9733328  63.8656353 111.9468809
  48.9002192  62.8702937 111.8242381  48.5620703  62.7544002 110.9362916
  49.7691960  62.4694102 111.8043387  44.7589008  64.7238413 107.8139272
  44.1953873  64.6328350 107.0455560  44.6441403  63.9038318 108.2941765
  49.3821975  64.0237789 117.7828587  49.3710616  63.6290587 116.9109090
  49.5442614  63.2903861 118.3762358  42.3053440  66.2189605 110.6523492
  43.0974731  65.8780429 110.2369792  42.5450090  66.3284580 111.5725646
  50.3388566  68.3909381 103.1253737  49.6876546  68.9763461 102.7387751
  51.1332929  68.9215576 103.1848774  44.2644193  65.4798518 103.5240871
  45.0375069  64.9327505 103.3853747  44.6169592  66.3442767 103.7355333
  46.1029236  66.8074900 116.7307771  45.8119102  67.7120531 116.6154437
  46.7386220  66.8491428 117.4451840  47.0285443  64.1851749 113.3209130
  47.6249015  63.9607771 112.6066093  47.0860414  63.4436494 113.9234578
  51.6453754  60.6426963 108.9634064  52.4316843  60.2246386 108.6124481
  51.9092458  61.5473055 109.1315713  51.8163831  66.0799813 103.6622721
  51.1809664  66.1534439 104.3743626  51.4861238  66.6693412 102.9841800
  57.0462181  60.5802196 109.8667043  57.7787353  60.0101413 110.1004872
  56.2901537  60.1923796 110.3073549  46.3206760  63.5419290 103.3583696
  46.2043018  62.8664194 104.0264780  46.4309020  63.0551664 102.5415849
  48.6638301  63.0029437 107.0630385  48.2996508  62.4760058 107.7743307
  49.5205417  62.6127906 106.8896871  54.5687602  54.2923770 114.3261652
  54.2370926  55.1619181 114.1022867  53.9733215  53.9760054 115.0055682
  51.0619121  66.4936316 113.7257564  50.7619844  67.3961355 113.6173371
  50.7170181  66.2268499 114.5778717  44.5131603  62.9450113 109.7594269
  43.5882099  62.8126327 109.9671960  44.7616016  63.7244332 110.2564211
  54.4616265  59.0118856 111.4055002  53.5533142  58.9434264 111.1113763
  54.4103861  59.4890801 112.2336827  41.8740414  62.5883386 110.5938058
  42.0032795  62.8417865 111.5077469  41.1937865  63.1811094 110.2742713
  46.0439901  73.2580636 106.6928532  45.9663931  74.2088461 106.7717013
  45.4401544  72.9126509 107.3503458  48.5357131  60.4308502 119.3489899
  47.7590465  60.9902422 119.3392763  49.1747694  60.9165285 119.8704769
  56.3277911  57.2135294 113.1832876  55.6852292  57.5067828 112.5372670
  55.8232840  57.0988215 113.9886072  53.9818075  60.9598468 103.8718735
  54.8935931  61.1925854 103.6966432  53.4727722  61.5435512 103.3093813
  46.7903503  63.2393955 118.9107866  47.5318187  63.7778999 118.6342689
  46.0840488  63.8660244 119.0679418  52.2658843  65.3823095 117.5080027
  52.6742199  64.9405506 116.7634660  51.5436104  64.8075723 117.7614220
  48.6189913  60.3195702 114.8813584  49.4651108  60.7435116 115.0248233
  48.5588550  59.6629327 115.5752147  52.5887657  65.9424286 111.2632316
  51.9596520  66.1070000 110.5608384  52.2013319  66.3565896 112.0343280
  56.4676889  66.8778724 108.6176680  55.7827927  67.2577625 108.0673713
  56.5520738  67.4874051 109.3508628  51.7689358  57.9800071 116.5394758
  51.5250290  58.7342131 116.0029034  52.0449288  58.3585418 117.3742005
  53.7227821  64.5238683 115.2172024  53.9344716  65.1670443 114.5406405
  53.6757569  63.6901000 114.7493954  51.3254050  57.1356504 112.1208596
  50.4638529  57.4337757 112.4125333  51.3516484  57.3526903 111.1889628
  48.1415619  65.6798694 108.5282401  48.6053965  65.9586397 107.7387024
  47.8772417  64.7782139 108.3455492  45.0339700  65.2270176 111.4662165
  45.6041057  65.6557444 110.8279649  45.6247812  64.9452760 112.1646350
  47.0784505  61.8021847 105.3371966  47.7808549  62.2542890 105.8045893
  46.7465134  61.1605665 105.9651860  45.5264867  60.3933603 119.7123176
  44.8963527  61.0749884 119.9458573  45.4200955  60.2816685 118.7676314
  40.8209839  60.0605399 110.6389100  40.0308893  60.3162928 110.1629211
  41.3121087  60.8753737 110.7441141  54.8373649  67.4010638 113.3894381
  55.6591092  66.9990826 113.1077062  54.8336052  67.2978873 114.3410497
  42.7724585  60.4249978 107.5972577  41.9755748  60.5368673 108.1156072
  42.5450177  60.7636631 106.7313467  48.6030252  66.9494682 115.5455091
  48.6674685  67.4115089 116.3813263  47.8941176  66.3192047 115.6737401
  39.1047542  60.3135890 113.0704091  39.3555581  61.1982900 113.3361667
  39.6407091  60.1340491 112.2979183  62.9279642  63.7449387 109.7379352
  62.1743350  63.1756785 109.5823357  63.0627183  63.7112051 110.6849987
  48.3178270  68.6162789 105.4134072  48.1823945  69.4614325 105.8418919
  48.8588082  68.8182067 104.6500005  44.8045609  54.6954369 122.0748427
  44.4112555  54.1420568 122.7496071  45.6211750  55.0064948 122.4654944
  41.7707667  66.1338227 105.9861997  42.2832188  66.9281477 106.1367561
  42.4230380  65.4364518 105.9195598  43.5802552  69.2503984 108.0684750
  43.7569180  70.1721948 107.8805734  44.3759385  68.9362403 108.4979130
  47.7213570  56.1112248 119.6668683  48.4623284  56.7119401 119.5873146
  47.9531493  55.3689886 119.1086726  42.8654908  61.2968615 117.9446913
  42.7508424  60.3953873 118.2454012  42.0099426  61.5432312 117.5931730
  49.9446746  69.2386356 119.5434414  49.5010600  68.4522734 119.2255318
  50.6063960  69.4265506 118.8778305  44.7033867  70.7682157 114.0695092
  45.2541292  70.6399221 113.2972086  43.8645343  71.0677046 113.7189985
  52.0427984  69.5189156 117.5715815  52.0246460  70.3398037 117.0796084
  52.9647904  69.3943231 117.7965956  48.5001038  67.0333285 118.4139323
  49.0329375  66.2721573 118.1838631  47.9715120  66.7406937 119.1563478
  51.6670733  52.1393351 113.9432965  51.3235003  53.0294993 113.8672076
  52.0349696  51.9495009 113.0802550  39.7356584  64.4626882 106.7621567
  40.5731806  64.8723890 106.5455275  39.9134852  63.5226324 106.7321761
  51.6321016  62.1301962 102.4505400  51.1167640  62.9006567 102.6893788
  51.3598325  61.4567098 103.0738462  50.7467274  54.5098006 111.9082198
  50.2432069  54.4728141 111.0950004  51.0397881  55.4190749 111.9678855
  46.9910160  54.5936736 110.9148380  47.8563156  54.3979545 110.5554270
  47.0587669  54.3647088 111.8417737  56.6055290  64.8834317 104.3858574
  55.8284733  64.5445476 103.9413736  57.2846771  64.8886940 103.7113539
  51.4207319  60.0029054 104.2765181  51.1157455  60.3175203 105.1275325
  52.3737761  60.0810474 104.3192514  49.8653751  66.1619278 105.9258135
  49.3375113  65.4272037 105.6131373  49.3641254  66.9393954 105.6798104
  54.8446597  64.3568298 111.0425182  54.1870272  65.0467559 111.1305310
  55.6486996  64.7464730 111.3859168  44.5972479  56.8238944 108.2864747
  45.1716231  56.6014125 107.5537940  45.1843461  56.8927638 109.0393348
  53.6552056  62.7112671 109.0929123  54.1683938  63.3442663 109.5950833
  54.3053280  62.1113866 108.7272483  50.9174430  72.6896995 101.8489795
  50.2436129  72.9928692 102.4574752  51.3040252  73.4926075 101.4995252
  50.1332887  60.1862126 111.3387464  49.2155448  60.4077073 111.1809152
  50.5493030  60.2608437 110.4799171  50.9167935  61.5853542 106.4690144
  51.6639754  62.0974939 106.1597266  51.1859524  61.2637595 107.3294538
  49.1894585  64.0812083 103.4517099  48.2805804  63.7971116 103.5489568
  49.2189669  64.5011161 102.5920405  54.4213852  67.6918672 107.2208266
  53.9676179  66.8509582 107.2773457  53.7907819  68.3280071 107.5583046
  53.3646772  58.6210658 108.4508934  52.6269529  58.1088044 108.7819176
  53.6173545  58.1811040 107.6392210  52.8646791  69.5295169 108.1558084
  53.1569766  70.0900226 107.4370450  53.3745412  69.8223730 108.9111243
  53.4658399  51.3986910 109.0450703  53.7717276  50.5384274 108.7576618
  54.1911004  51.9904530 108.8449697  39.7582755  61.8017597 107.4332301
  39.5607155  61.2086958 106.7083367  39.2029419  61.4969807 108.1508240
  47.7379479  61.6940703 109.5526894  47.7928089  60.7414540 109.4769370
  46.9270681  61.8500142 110.0368192  48.8870673  65.6220826 100.7905177
  48.4490102  64.9056685 100.3310814  49.6281113  65.8496941 100.2290269
  45.6771839  60.3117763 107.3117273  44.8639704  60.6111934 107.7182465
  46.1730833  59.9173452 108.0291755  47.8280417  70.3075520 109.2451537
  47.7856595  70.5336366 108.3160069  48.7443115  70.0738895 109.3937339
  51.2746050  60.7759588 116.1432167  51.6295438  61.0031061 117.0026632
  51.9218182  61.1077964 115.5209422  57.0043787  63.8978023 106.8481496
  56.8661686  64.0879619 105.9202685  56.6480006  64.6597406 107.3049547
  45.1685913  57.8836119 112.9278508  45.8085293  57.7424878 112.2301471
  44.3363444  57.5970632 112.5517110  57.0313167  65.9654550 111.8592767
  57.4649674  65.8729840 112.7075821  57.7444748  65.9412051 111.2212783
  45.9446217  67.1838549 109.0413500  46.7386816  66.6888869 108.8396075
  45.2337910  66.6556412 108.6781206  50.7641062  69.5656645 113.3925868
  50.8178084  70.1347581 114.1603584  49.8955843  69.7358530 113.0279905
  42.2528981  61.3281631 105.1173253  41.3226569  61.2666086 105.3343215
  42.3486453  60.8057584 104.3209894  42.1714530  57.8536444 107.7051495
  42.4321347  58.7681777 107.5960655  42.9931702  57.3860886 107.8548107
  43.6439455  59.2674201 114.8750319  44.3162509  59.0591563 114.2262968
  42.8169242  59.0696287 114.4355551  57.8928716  66.0078251 114.3925653
  58.0864607  66.9124062 114.6384928  57.7929335  65.5485670 115.2264238
  49.5465027  55.8936142 116.8915980  48.8992942  56.5926091 116.7980456
  50.3166043  56.3272286 117.2592228  52.9543825  66.1584994 119.9666533
  52.8029332  65.9295546 119.0496617  52.9448505  67.1155595 119.9797878
  49.7229162  63.7316907 114.9512800  50.6521222  63.8828066 114.7781767
  49.3020192  63.8200927 114.0961446  48.5217493  67.7567571 112.7211337
  48.3828579  67.3886355 113.5937275  47.7332090  68.2715210 112.5495295
  49.1165645  72.8576667 104.0636874  49.2917401  72.3864711 104.8782496
  48.4298433  73.4842434 104.2918135  50.0722709  67.1349174 110.1100175
  49.7372541  67.0949944 111.0057825  49.5726654  66.4693890 109.6370585
  44.0466952  62.5416804 115.6352756  43.9086750  61.8097043 116.2364295
  44.9571876  62.4525704 115.3536944  53.0081900  64.4805208 100.3837235
  52.3911071  63.7552036 100.2870287  52.5398389  65.2414568 100.0404309
  46.6749253  62.2536763 115.1236436  47.3848872  61.6129955 115.0823054
  46.6318561  62.5049658 116.0462617  54.6636032  69.1904116 118.0443015
  54.6048578  68.5063337 117.3773598  55.0655550  69.9323106 117.5923641
  45.3878187  59.2401981 116.9432075  44.8515544  58.7892719 117.5953672
  44.7994896  59.3747890 116.2002540  43.6826731  76.0066030 110.8376734
  43.9223329  76.6384554 111.5155753  42.8395927  75.6554070 111.1242093
  54.6653439  67.1543700 116.2756995  53.7780218  66.8169622 116.3983394
  55.2351990  66.4226732 116.5125760  36.3182586  63.4867792 109.6000046
  37.0053626  63.1729522 109.0121061  36.1630715  64.3909157 109.3267298
  41.1217308  58.3757989 114.0285070  41.0375497  57.7683658 113.2935480
  40.3000015  58.8667007 114.0294566  48.1954592  71.8145153 113.2418238
  48.1224764  72.6200124 113.7537543  47.7531986  72.0137118 112.4166259
  47.9844372  71.0516923 106.7521059  47.2011894  71.5938603 106.8459284
  48.6837117  71.5690902 107.1515301  51.2941022  56.8611552 109.3955265
  51.7909722  56.1081514 109.0756335  50.5228004  56.8975869 108.8298474
  59.1470780  62.5651918 111.0373556  59.1360656  63.4476633 110.6667489
  58.2788159  62.2123469 110.8428093  50.6553276  71.7131987 115.3976397
  51.3681248  72.3479452 115.3252298  50.1643305  71.8095853 114.5816398
  52.3770803  65.6183239 106.9693688  51.4427082  65.7384702 106.7998393
  52.5547471  64.7155706 106.7053698  47.8775991  59.0028935 109.1226949
  47.5073778  58.4499976 109.8107855  48.3735083  58.3987069 108.5701950
  55.7643354  61.4600559 107.5043722  56.2303806  62.2928550 107.4304025
  56.2150855  60.9945540 108.2088981  45.7065190  69.4626430 116.2181967
  46.4074649  70.0962913 116.3711362  45.2360305  69.8041162 115.4577607
  53.8319585  67.8044380 104.5029874  54.1079429  67.6900975 105.4123749
  52.9624084  67.4061865 104.4642048  53.7360017  53.8281146 111.5434624
  52.8223097  54.0585372 111.7116831  54.1653118  53.9119590 112.3948656
  53.5066475  62.0171038 114.0434518  52.8537926  62.2646945 113.3886971
  53.8846855  61.2035176 113.7096995  50.4673649  72.0530731 108.1462688
  50.6496044  71.2352387 108.6090440  51.2906635  72.2698423 107.7087578
  50.8015815  70.9798916 105.4077737  51.3303581  70.4691371 104.7947899
  51.0644034  70.6641446 106.2723270  49.5554049  62.7590849 120.5300555
  48.8794686  62.6584978 121.2002930  50.3781682  62.6030062 120.9936552
  41.3032908  68.9962785 113.1513070  41.8886344  68.2506473 113.2840974
  41.1057746  69.3066742 114.0349734  44.1571563  72.0314033 108.1675512
  43.4881938  72.5160160 107.6839553  44.0184433  72.2783253 109.0818891
  35.8950562  61.5668385 111.8717513  35.9334662  61.0331976 112.6654631
  35.3890855  61.0403591 111.2528490  48.2976831  74.0657776 114.7658171
  48.8495139  74.2289398 115.5307256  48.6383025  74.6562214 114.0938196
  43.2741325  56.4132926 115.3680056  43.3382651  57.2747757 114.9557453
  43.2108445  55.8006928 114.6352414  42.7493597  58.4856058 119.0153090
  43.3765636  58.1033136 119.6290614  41.8921516  58.2670260 119.3808782
  53.1487706  68.8919034 120.6206825  53.6927610  69.5048992 120.1261780
  52.5674551  69.4498612 121.1373838  39.5259140  60.2932488 104.9471445
  39.8212581  59.3843166 104.8938498  38.6247176  60.2720227 104.6252447
  51.4345219  72.0139752 111.7521853  51.3096358  71.2129491 111.2432799
  52.0924310  72.5085945 111.2635823  43.0553387  58.3688484 110.9298993
  42.3339973  58.9824452 110.7906467  43.8446643  58.9046249 110.8515639
  53.4980127  69.8148772 113.3801403  52.5510463  69.6954123 113.3079730
  53.8462900  68.9271270 113.4627665  45.8579700  55.7042911 117.2039645
  46.3814102  55.9505207 117.9665954  45.6392034  56.5362945 116.7842782
  41.2546981  57.9746585 105.0710770  40.9259688  57.0943964 104.8885876
  41.6086352  57.9194254 105.9587159  50.5026560  69.6101488 109.5805755
  50.3551523  68.6818195 109.7613325  51.3280054  69.6321579 109.0962831
  44.3688805  58.2619555 105.4386247  44.7084877  58.7905476 104.7164856
  44.8160925  58.5999961 106.2144814  54.1060682  70.4330047 110.6670628
  55.0307230  70.2272908 110.5295079  53.9375986  70.1846448 111.5759970
  47.0632245  56.6456606 114.8889316  46.7229066  55.8464419 115.2909995
  46.3571252  56.9458317 114.3166149  47.7148717  53.7305918 113.3416639
  48.5374787  53.2566396 113.2195529  47.9586781  54.5096402 113.8415325
  45.2387296  60.4225039 111.1508617  45.0931877  60.7365342 112.0432899
  44.7612500  61.0409939 110.5979516  47.0983679  57.4127587 111.1989507
  47.0845248  56.5168680 110.8621805  47.8156107  57.4198251 111.8327793
  48.9509810  57.8464927 113.2442634  48.6927587  58.7681998 113.2426965
  48.4194850  57.4495362 113.9343098  53.8955998  70.9515714 106.0232720
  54.0692876  70.3862137 105.2706572  54.3884890  71.7516609 105.8412209
  39.7132958  62.9630383 114.0896278  39.1686426  63.7390191 114.2216553
  40.5912308  63.3101188 113.9315400  59.7495390  63.7152137 107.6423019
  60.1926536  62.9659462 107.2442143  58.8721900  63.7062273 107.2596751
  54.8831171  70.2682479 103.1229618  55.5782076  70.8889171 103.3416932
  55.2254321  69.4177830 103.3981996  40.4998980  62.0900279 116.9826435
  39.7580716  62.2382915 117.5691066  40.1791724  62.3508545 116.1193185
  56.7822594  67.7182184 104.6516949  57.3073918  68.0569457 103.9266269
  56.6944947  66.7829199 104.4680083  48.4442643  71.6316258 116.7806825
  48.7529769  71.3865404 117.6529525  49.2418125  71.8362896 116.2925695
  48.4663255  73.7854167 109.0112202  48.0268245  73.2930546 109.7045058
  49.2171372  73.2427135 108.7704277  40.9455594  69.9765708 109.0136830
  41.7713614  69.6769480 108.6335473  40.5949646  69.2073331 109.4626619
  45.9137127  69.3292176 111.0834503  45.2917136  68.6662881 110.7836731
  46.5841994  69.3553308 110.4008151  39.1464199  67.8952035 109.9725763
  38.3096107  67.4674209 109.7909765  39.1187844  68.0884478 110.9096555
  45.9861654  57.8073964 120.6767009  46.0349810  58.6836087 120.2944779
  46.5284169  57.2651358 120.1038653  56.4716500  68.3515088 119.9568147
  55.6812044  68.3339227 119.4172646  56.2349855  68.8903381 120.7117183
  56.5914375  65.2007554 117.2700875  56.6412380  65.0357562 118.2116398
  56.4828298  64.3334813 116.8798756  45.4750634  67.8796100 104.5592964
  45.6238754  68.5631564 103.9059637  46.2817077  67.8601190 105.0742420
  53.8818138  61.1838482 118.5860182  54.7828000  61.0444947 118.2944180
  53.9566112  61.3492937 119.5258359  48.2160943  58.5605337 117.4313368
  47.3464252  58.8538903 117.1595957  48.4520423  59.1445782 118.1520632
  58.0932572  67.6204496 117.5142897  57.8017380  67.9834476 118.3506358
  57.4804703  66.9071504 117.3356229  59.2928254  65.1857375 110.0345467
  60.1275146  65.6247179 110.1983027  59.4287383  64.7096029 109.2153713
  56.3419760  62.7437110 115.9822955  56.8173882  62.9364757 115.1741806
  55.4185326  62.7996296 115.7366338  43.2303267  63.9061277 105.5654033
  42.9849309  63.0023607 105.7634243  43.3999181  63.9078428 104.6233511
  50.9199977  54.7784954 114.9478789  51.4381921  55.5145981 114.6225277
  50.5655109  55.0848947 115.7825548  42.4998914  59.6389635 103.0640194
  41.8068159  59.7133990 102.4080230  42.2550666  58.8749979 103.5861711
  51.1712571  51.1985236 110.4679685  51.4514325  50.5308425 111.0940112
  51.9563178  51.3914332 109.9554349  48.9746039  70.3744230 102.0304711
  48.4020006  70.9934417 101.5775183  49.5478833  70.9243592 102.5644633
  55.0421429  59.6202870 114.2151260  55.9938852  59.7200968 114.2363484
  54.8724880  58.8281139 114.7249345  53.0635809  56.7058454 114.4010661
  52.4685741  56.9863466 113.7057150  52.7785505  57.1952354 115.1727402
  52.1943299  70.6581380 103.1613294  53.1273972  70.5926942 103.3646169
  52.1066512  71.4937647 102.7027826  54.8231316  69.9747251 100.1217241
  54.7444947  69.6407114 101.0152999  55.6440983  70.4669019 100.1208714
  57.5209507  62.8408990 113.3293560  57.4885827  61.9024991 113.5153244
  58.1310131  62.9193027 112.5959385  57.6703995  59.6320033 113.3751843
  57.1543044  58.8478490 113.1881772  58.5543944  59.3038750 113.5398363
  55.3314722  53.3761049 109.3347656  55.1339544  53.0676137 110.2190988
  55.9414428  54.1022688 109.4645586  63.3386057  63.9024997 112.4699597
  64.0689445  63.6410285 113.0307300  62.7293002  63.1653719 112.5101665
  61.4201354  62.0432859 113.0674048  60.6934518  61.9088824 112.4590539
  61.0048641  62.3509688 113.8730766  49.2431530  65.7622789 120.8321421
  50.1634540  65.9401388 121.0261467  49.2081113  64.8178834 120.6801120
  38.4613695  60.9561383 109.7574696  38.1416480  60.1026691 109.4649070
  37.9147124  61.1709961 110.5132663  42.2393603  63.6723824 113.4744202
  42.4579613  64.6040932 113.4932236  42.6519377  63.3131798 114.2599006
  47.1121468  59.2457030 122.8646951  47.0118195  60.1951386 122.7959042
  46.8943010  58.9175268 121.9923021  38.3301955  64.5764294 111.7267817
  37.6365427  64.1618247 111.2137772  39.0774946  64.6184831 111.1301236
  54.4667176  55.3670481 106.5922851  53.8865845  56.0255285 106.2100904
  54.2003109  54.5447826 106.1810269  52.9170742  54.7675539 108.7944172
  53.4170521  54.8792073 107.9858490  53.5606350  54.4636592 109.4344980
  46.9752738  62.6754168 121.6812013  46.4919820  63.4754528 121.8875902
  47.0613677  62.6862113 120.7279457  40.2438698  64.5082548 109.6033832
  40.2209386  64.6070235 108.6515715  40.5539334  65.3547699 109.9250998
  42.9026076  66.5658703 113.7180446  43.8569329  66.5342645 113.6510378
  42.7038599  66.1049327 114.5330672  43.4925458  65.1359819 116.2851244
  44.3118347  65.6303898 116.3086081  43.7662266  64.2191787 116.2568812
  56.6006590  57.5517092 109.3633539  57.3766980  58.0413545 109.6358156
  55.8754724  57.9775147 109.8205408  59.0379149  58.2644712 110.4207479
  59.6323640  58.0240448 109.7100788  59.1105733  57.5451842 111.0481016
  41.2576305  72.1078323 110.7350644  41.1230773  71.3478723 110.1688642
  40.8408367  72.8319222 110.2679433  52.3935268  67.2915246  99.7427220
  53.0971118  67.4965249 100.3584875  51.6697916  67.8592008 100.0076303
  53.2233078  63.0425107 105.8629490  53.1668279  63.4993659 105.0237122
  53.7761420  62.2815792 105.6852333  57.0337884  58.8314839 106.6879609
  56.7774818  58.4311475 107.5187817  56.4090752  59.5458633 106.5629748
  61.3450222  61.5710912 109.1950901  60.7849780  61.6404102 109.9682463
  60.7393725  61.3951897 108.4750397  44.4145430  73.0047640 110.9469087
  44.2977815  73.9493072 110.8447777  43.5937877  72.7021201 111.3354886
  54.3021965  67.7297775 101.7925680  55.1367569  67.2978974 101.6103154
  54.1406308  67.5579789 102.7202574  53.9567857  64.2329889 103.1582019
  53.9016661  64.0674160 102.2170463  53.3313912  64.9405922 103.3144209
  38.7460372  59.4697953 116.9843441  39.3919236  58.9596907 117.4730666
  38.5377523  60.2066635 117.5586866  51.2713764  66.5378800 122.4835582
  52.1404924  66.7119453 122.1222217  50.7920516  67.3573217 122.3611311
  45.4399945  73.6575901 114.1625015  46.3427191  73.6899512 114.4791510
  45.2137315  72.7276352 114.1771351  47.1953547  72.4106888 110.8235094
  46.2449178  72.4108750 110.7099466  47.4986033  71.6639623 110.3071129
  51.0816102  50.3280774 106.9913274  50.3148498  49.7739261 107.1369956
  51.4926807  50.4002643 107.8527426  43.0857863  56.6165570 121.0818455
  43.9489325  56.2602375 121.2921780  42.5123274  56.2779465 121.7693860
  62.9306240  78.2467426 111.8880856  63.5684650  78.1274174 111.1844196
  62.8127083  79.1948270 111.9468809  59.7395946  78.1994855 111.8242381
  59.4014458  78.0835919 110.9362916  60.6085715  77.7986020 111.8043387
  55.5982762  80.0530331 107.8139272  55.0347627  79.9620268 107.0455560
  55.4835157  79.2330235 108.2941765  60.2215729  79.3529706 117.7828587
  60.2104370  78.9582505 116.9109090  60.3836369  78.6195779 118.3762358
  53.1447194  81.5481523 110.6523492  53.9368486  81.2072347 110.2369792
  53.3843844  81.6576498 111.5725646  61.1782321  83.7201299 103.1253737
  60.5270301  84.3055379 102.7387751  61.9726684  84.2507494 103.1848774
  55.1037948  80.8090436 103.5240871  55.8768824  80.2619423 103.3853747
  55.4563347  81.6734685 103.7355333  56.9422990  82.1366818 116.7307771
  56.6512856  83.0412449 116.6154437  57.5779975  82.1783346 117.4451840
  57.8679197  79.5143667 113.3209130  58.4642770  79.2899689 112.6066093
  57.9254169  78.7728412 113.9234578  57.4404226  76.9683102 101.1559321
  57.6929746  76.4464623 100.3942784  56.5028785  76.8049247 101.2586005
  62.4847509  75.9718880 108.9634064  63.2710598  75.5538303 108.6124481
  62.7486213  76.8764972 109.1315713  62.6557586  81.4091731 103.6622721
  62.0203419  81.4826357 104.3743626  62.3254992  81.9985329 102.9841800
  67.8855936  75.9094113 109.8667043  68.6181108  75.3393330 110.1004872
  67.1295291  75.5215714 110.3073549  57.1600514  78.8711208 103.3583696
  57.0436773  78.1956111 104.0264780  57.2702774  78.3843582 102.5415849
  59.5032055  78.3321355 107.0630385  59.1390263  77.8051976 107.7743307
  60.3599171  77.9419824 106.8896871  65.4081356  69.6215688 114.3261652
  65.0764681  70.4911099 114.1022867  64.8126969  69.3051972 115.0055682
  59.1437542  73.3611255 102.0591734  59.3111945  74.2291491 102.4262205
  58.9534711  73.5238536 101.1353023  61.9012876  81.8228234 113.7257564
  61.6013599  82.7253272 113.6173371  61.5563935  81.5560417 114.5778717
  55.3525357  78.2742030 109.7594269  54.4275854  78.1418245 109.9671960
  55.6009770  79.0536250 110.2564211  65.3010019  74.3410774 111.4055002
  64.3926897  74.2726182 111.1113763  65.2497615  74.8182719 112.2336827
  59.1226763  75.8168912 103.0438401  59.0026388  76.2625963 103.8823881
  58.4279352  76.1654230 102.4851939  52.7134168  77.9175304 110.5938058
  52.8426549  78.1709783 111.5077469  52.0331619  78.5103012 110.2742713
  56.8833655  88.5872554 106.6928532  56.8057685  89.5380379 106.7717013
  56.2795299  88.2418426 107.3503458  59.3750885  75.7600419 119.3489899
  58.5984219  76.3194339 119.3392763  60.0141448  76.2457202 119.8704769
  67.1671666  72.5427212 113.1832876  66.5246046  72.8359745 112.5372670
  66.6626594  72.4280132 113.9886072  64.8211829  76.2890385 103.8718735
  65.7329686  76.5217772 103.6966432  64.3121477  76.8727430 103.3093813
  57.6297257  78.5685873 118.9107866  58.3711942  79.1070917 118.6342689
  56.9234243  79.1952161 119.0679418  63.1052597  80.7115013 117.5080027
  63.5135953  80.2697424 116.7634660  62.3829859  80.1367641 117.7614220
  59.4583667  75.6487620 114.8813584  60.3044862  76.0727033 115.0248233
  59.3982305  74.9921244 115.5752147  63.4281412  81.2716204 111.2632316
  62.7990274  81.4361918 110.5608384  63.0407074  81.6857813 112.0343280
  67.3070644  82.2070642 108.6176680  66.6221682  82.5869543 108.0673713
  67.3914493  82.8165968 109.3508628  62.6083112  73.3091988 116.5394758
  62.3644044  74.0634049 116.0029034  62.8843043  73.6877336 117.3742005
  64.5621575  79.8530601 115.2172024  64.7738470  80.4962361 114.5406405
  64.5151323  79.0192917 114.7493954  62.1647804  72.4648421 112.1208596
  61.3032283  72.7629675 112.4125333  62.1910239  72.6818820 111.1889628
  58.9809374  81.0090612 108.5282401  59.4447719  81.2878315 107.7387024
  58.7166172  80.1074056 108.3455492  55.8733455  80.5562093 111.4662165
  56.4434812  80.9849362 110.8279649  56.4641567  80.2744678 112.1646350
  57.9178260  77.1313764 105.3371966  58.6202303  77.5834808 105.8045893
  57.5858888  76.4897583 105.9651860  56.3658621  75.7225521 119.7123176
  55.7357282  76.4041802 119.9458573  56.2594709  75.6108602 118.7676314
  51.6603594  75.3897317 110.6389100  50.8702648  75.6454845 110.1629211
  52.1514841  76.2045655 110.7441141  65.6767403  82.7302556 113.3894381
  66.4984847  82.3282743 113.1077062  65.6729806  82.6270790 114.3410497
  53.6118339  75.7541896 107.5972577  52.8149502  75.8660590 108.1156072
  53.3843931  76.0928548 106.7313467  59.4424007  82.2786599 115.5455091
  59.5068439  82.7407007 116.3813263  58.7334931  81.6483964 115.6737401
  49.9441297  75.6427807 113.0704091  50.1949335  76.5274817 113.3361667
  50.4800845  75.4632409 112.2979183  73.7673396  79.0741305 109.7379352
  73.0137105  78.5048703 109.5823357  73.9020937  79.0403969 110.6849987
  59.1572024  83.9454707 105.4134072  59.0217699  84.7906243 105.8418919
  59.6981837  84.1473985 104.6500005  55.6439364  70.0246287 122.0748427
  55.2506309  69.4712485 122.7496071  56.4605504  70.3356865 122.4654944
  52.6101422  81.4630145 105.9861997  53.1225942  82.2573395 106.1367561
  53.2624135  80.7656435 105.9195598  54.4196306  84.5795901 108.0684750
  54.5962935  85.5013866 107.8805734  55.2153140  84.2654320 108.4979130
  58.5607325  71.4404166 119.6668683  59.3017038  72.0411319 119.5873146
  58.7925248  70.6981804 119.1086726  53.7048663  76.6260533 117.9446913
  53.5902178  75.7245790 118.2454012  52.8493181  76.8724230 117.5931730
  60.7840501  84.5678273 119.5434414  60.3404355  83.7814652 119.2255318
  61.4457714  84.7557424 118.8778305  55.5427622  86.0974075 114.0695092
  56.0935047  85.9691138 113.2972086  54.7039098  86.3968964 113.7189985
  62.8821739  84.8481073 117.5715815  62.8640214  85.6689954 117.0796084
  63.8041659  84.7235149 117.7965956  59.3394793  82.3625203 118.4139323
  59.8723130  81.6013491 118.1838631  58.8108874  82.0698855 119.1563478
  62.5064488  67.4685269 113.9432965  62.1628757  68.3586910 113.8672076
  62.8743450  67.2786926 113.0802550  50.5750338  79.7918799 106.7621567
  51.4125560  80.2015808 106.5455275  50.7528606  78.8518241 106.7321761
  62.4714771  77.4593880 102.4505400  61.9561394  78.2298484 102.6893788
  62.1992079  76.7859016 103.0738462  60.0561882  72.3043581 107.5090639
  59.2003478  71.9150431 107.3296277  60.4688833  72.3835541 106.6490424
  61.5861028  69.8389924 111.9082198  61.0825824  69.8020059 111.0950004
  61.8791635  70.7482667 111.9678855  57.8303914  69.9228654 110.9148380
  58.6956911  69.7271462 110.5554270  57.8981423  69.6939005 111.8417737
  67.4449045  80.2126235 104.3858574  66.6678487  79.8737394 103.9413736
  68.1240526  80.2178858 103.7113539  62.2601074  75.3320972 104.2765181
  61.9551209  75.6467121 105.1275325  63.2131516  75.4102392 104.3192514
  60.7047506  81.4911195 105.9258135  60.1768867  80.7563955 105.6131373
  60.2035008  82.2685872 105.6798104  65.6840352  79.6860216 111.0425182
  65.0264026  80.3759477 111.1305310  66.4880751  80.0756648 111.3859168
  55.4366233  72.1530862 108.2864747  56.0109985  71.9306043 107.5537940
  56.0237216  72.2219556 109.0393348  64.4945810  78.0404588 109.0929123
  65.0077692  78.6734580 109.5950833  65.1447034  77.4405784 108.7272483
  55.7635820  74.1835323 102.3060632  54.9273133  74.5210009 102.6269907
  55.6240590  74.0484302 101.3687769  57.7388901  69.0272110 107.0139816
  57.0853313  68.7121128 106.3896431  57.6969375  68.4047851 107.7399639
  58.8500106  79.3091406  98.9293108  57.9427168  79.0780659  99.1284257
  59.3471138  78.5129025  99.1167090  61.7568185  88.0188913 101.8489795
  61.0829883  88.3220609 102.4574752  62.1434007  88.8217993 101.4995252
  60.9726641  75.5154044 111.3387464  60.0549203  75.7368991 111.1809152
  61.3886785  75.5900354 110.4799171  61.7561689  76.9145460 106.4690144
  62.5033508  77.4266857 106.1597266  62.0253279  76.5929512 107.3294538
  60.0288339  79.4104000 103.4517099  59.1199558  79.1263033 103.5489568
  60.0583423  79.8303079 102.5920405  65.2607607  83.0210590 107.2208266
  64.8069934  82.1801500 107.2773457  64.6301573  83.6571988 107.5583046
  64.2040526  73.9502576 108.4508934  63.4663283  73.4379962 108.7819176
  64.4567300  73.5102958 107.6392210  63.7040546  84.8587087 108.1558084
  63.9963520  85.4192144 107.4370450  64.2139166  85.1515648 108.9111243
  64.3052154  66.7278828 109.0450703  64.6111030  65.8676191 108.7576618
  65.0304758  67.3196448 108.8449697  50.5976510  77.1309515 107.4332301
  50.4000909  76.5378875 106.7083367  50.0423174  76.8261725 108.1508240
  58.5773233  77.0232621 109.5526894  58.6321843  76.0706457 109.4769370
  57.7664435  77.1792060 110.0368192  59.7264427  80.9512744 100.7905177
  59.2883857  80.2348603 100.3310814  60.4674868  81.1788859 100.2290269
  56.5165593  75.6409681 107.3117273  55.7033459  75.9403851 107.7182465
  57.0124587  75.2465370 108.0291755  58.6674171  85.6367438 109.2451537
  58.6250350  85.8628284 108.3160069  59.5836870  85.4030812 109.3937339
  62.1139805  76.1051505 116.1432167  62.4689193  76.3322978 117.0026632
  62.7611936  76.4369882 115.5209422  67.8437542  79.2269941 106.8481496
  67.7055440  79.4171537 105.9202685  67.4873761  79.9889324 107.3049547
  56.0079668  73.2128036 112.9278508  56.6479047  73.0716795 112.2301471
  55.1757198  72.9262550 112.5517110  67.8706921  81.2946468 111.8592767
  68.3043428  81.2021757 112.7075821  68.5838502  81.2703969 111.2212783
  56.7839972  82.5130467 109.0413500  57.5780570  82.0180787 108.8396075
  56.0731664  81.9848330 108.6781206  61.6034816  84.8948562 113.3925868
  61.6571839  85.4639499 114.1603584  60.7349598  85.0650447 113.0279905
  53.0922735  76.6573548 105.1173253  52.1620323  76.5958004 105.3343215
  53.1880207  76.1349501 104.3209894  53.0108284  73.1828361 107.7051495
  53.2715102  74.0973695 107.5960655  53.8325457  72.7152804 107.8548107
  54.4833210  74.5966118 114.8750319  55.1556263  74.3883481 114.2262968
  53.6562996  74.3988204 114.4355551  68.7322471  81.3370169 114.3925653
  68.9258361  82.2415979 114.6384928  68.6323089  80.8777588 115.2264238
  60.3858782  71.2228059 116.8915980  59.7386697  71.9218009 116.7980456
  61.1559797  71.6564203 117.2592228  63.7937580  81.4876912 119.9666533
  63.6423086  81.2587463 119.0496617  63.7842259  82.4447513 119.9797878
  60.5622916  79.0608824 114.9512800  61.4914976  79.2119984 114.7781767
  60.1413946  79.1492845 114.0961446  59.3611248  83.0859489 112.7211337
  59.2222334  82.7178273 113.5937275  58.5725844  83.6007128 112.5495295
  59.9559400  88.1868585 104.0636874  60.1311156  87.7156628 104.8782496
  59.2692188  88.8134351 104.2918135  60.9116463  82.4641091 110.1100175
  60.5766296  82.4241861 111.0057825  60.4120409  81.7985807 109.6370585
  54.8860707  77.8708721 115.6352756  54.7480505  77.1388960 116.2364295
  55.7965630  77.7817622 115.3536944  63.8475655  79.8097126 100.3837235
  63.2304825  79.0843954 100.2870287  63.3792143  80.5706486 100.0404309
  57.5143008  77.5828681 115.1236436  58.2242626  76.9421873 115.0823054
  57.4712316  77.8341576 116.0462617  65.5029786  84.5196034 118.0443015
  65.4442332  83.8355254 117.3773598  65.9049305  85.2615024 117.5923641
  56.2271942  74.5693899 116.9432075  55.6909299  74.1184637 117.5953672
  55.6388650  74.7039807 116.2002540  54.5220485  91.3357948 110.8376734
  54.7617083  91.9676472 111.5155753  53.6789682  90.9845988 111.1242093
  55.6374201  74.0282550  99.5058539  54.7603667  73.9071351  99.1420786
  56.1131954  73.2368628  99.2537428  65.5047194  82.4835618 116.2756995
  64.6173972  82.1461540 116.3983394  66.0745745  81.7518649 116.5125760
  47.1576341  78.8159710 109.6000046  47.8447381  78.5021440 109.0121061
  47.0024469  79.7201074 109.3267298  51.9611063  73.7049906 114.0285070
  51.8769252  73.0975576 113.2935480  51.1393769  74.1958925 114.0294566
  59.0348347  87.1437070 113.2418238  58.9618518  87.9492042 113.7537543
  58.5925740  87.3429036 112.4166259  58.8238127  86.3808840 106.7521059
  58.0405648  86.9230521 106.8459284  59.5230872  86.8982820 107.1515301
  62.1334777  72.1903470 109.3955265  62.6303476  71.4373432 109.0756335
  61.3621758  72.2267786 108.8298474  69.9864534  77.8943835 111.0373556
  69.9754410  78.7768551 110.6667489  69.1181914  77.5415386 110.8428093
  61.4947030  87.0423904 115.3976397  62.2075003  87.6771369 115.3252298
  61.0037059  87.1387770 114.5816398  63.2164557  80.9475157 106.9693688
  62.2820836  81.0676620 106.7998393  63.3941226  80.0447624 106.7053698
  58.7169745  74.3320853 109.1226949  58.3467533  73.7791893 109.8107855
  59.2128838  73.7278986 108.5701950  66.6037109  76.7892476 107.5043722
  67.0697561  77.6220468 107.4304025  67.0544609  76.3237458 108.2088981
  56.5458944  84.7918348 116.2181967  57.2468404  85.4254831 116.3711362
  56.0754059  85.1333079 115.4577607  64.6713340  83.1336298 104.5029874
  64.9473184  83.0192892 105.4123749  63.8017839  82.7353782 104.4642048
  64.5753771  69.1573063 111.5434624  63.6616851  69.3877290 111.7116831
  65.0046873  69.2411507 112.3948656  64.3460230  77.3462955 114.0434518
  63.6931680  77.5938863 113.3886971  64.7240610  76.5327093 113.7096995
  61.3067404  87.3822648 108.1462688  61.4889798  86.5644304 108.6090440
  62.1300390  87.5990341 107.7087578  61.6409569  86.3090834 105.4077737
  62.1697336  85.7983288 104.7947899  61.9037789  85.9933364 106.2723270
  60.3947803  78.0882766 120.5300555  59.7188440  77.9876896 121.2002930
  61.2175437  77.9321980 120.9936552  52.1426662  84.3254703 113.1513070
  52.7280099  83.5798391 113.2840974  51.9451501  84.6358660 114.0349734
  54.9965317  87.3605950 108.1675512  54.3275693  87.8452078 107.6839553
  54.8578187  87.6075171 109.0818891  46.7344317  76.8960303 111.8717513
  46.7728416  76.3623894 112.6654631  46.2284610  76.3695509 111.2528490
  59.1370586  89.3949694 114.7658171  59.6888894  89.5581315 115.5307256
  59.4776779  89.9854132 114.0938196  54.1135079  71.7424844 115.3680056
  54.1776406  72.6039675 114.9557453  54.0502199  71.1298845 114.6352414
  53.5887352  73.8147976 119.0153090  54.2159390  73.4325053 119.6290614
  52.7315270  73.5962178 119.3808782  63.9881460  84.2210951 120.6206825
  64.5321364  84.8340910 120.1261780  63.4068305  84.7790530 121.1373838
  50.3652894  75.6224405 104.9471445  50.6606335  74.7135084 104.8938498
  49.4640930  75.6012145 104.6252447  62.2738973  87.3431669 111.7521853
  62.1490113  86.5421409 111.2432799  62.9318064  87.8377863 111.2635823
  53.8947141  73.6980402 110.9298993  53.1733727  74.3116370 110.7906467
  54.6840397  74.2338167 110.8515639  64.3373882  85.1440689 113.3801403
  63.3904217  85.0246041 113.3079730  64.6856655  84.2563187 113.4627665
  56.6973455  71.0334828 117.2039645  57.2207857  71.2797125 117.9665954
  56.4785788  71.8654863 116.7842782  52.0940736  73.3038503 105.0710770
  51.7653442  72.4235882 104.8885876  52.4480107  73.2486172 105.9587159
  61.3420315  84.9393406 109.5805755  61.1945277  84.0110113 109.7613325
  62.1673808  84.9613496 109.0962831  55.2082559  73.5911473 105.4386247
  55.5478632  74.1197394 104.7164856  55.6554680  73.9291879 106.2144814
  64.9454437  85.7621964 110.6670628  65.8700984  85.5564826 110.5295079
  64.7769740  85.5138366 111.5759970  57.9026000  71.9748523 114.8889316
  57.5622820  71.1756336 115.2909995  57.1965006  72.2750234 114.3166149
  58.5542472  69.0597836 113.3416639  59.3768541  68.5858314 113.2195529
  58.7980535  69.8388320 113.8415325  57.1950706  72.0886094 103.6379540
  57.9159069  72.4667347 103.1343257  56.5716010  72.8074971 103.7414518
  61.3381829  72.7931243 104.5737873  61.5545444  73.6755881 104.2726701
  60.8575896  72.4017457 103.8443515  56.0781051  75.7516957 111.1508617
  55.9325631  76.0657260 112.0432899  55.6006254  76.3701857 110.5979516
  57.9377433  72.7419504 111.1989507  57.9239002  71.8460598 110.8621805
  58.6549862  72.7490168 111.8327793  59.7903564  73.1756845 113.2442634
  59.5321342  74.0973915 113.2426965  59.2588605  72.7787279 113.9343098
  64.7349753  86.2807632 106.0232720  64.9086630  85.7154054 105.2706572
  65.2278644  87.0808527 105.8412209  50.5526713  78.2922301 114.0896278
  50.0080181  79.0682109 114.2216553  51.4306063  78.6393105 113.9315400
  57.3414329  71.6233885 106.4677077  57.4630241  70.6950531 106.6667964
  57.0516372  71.6372571 105.5555392  60.2105520  69.3088795 109.6043797
  60.2327217  69.3728128 108.6495776  60.6273579  68.4693304 109.7984303
  70.5889144  79.0444055 107.6423019  71.0320290  78.2951380 107.2442143
  69.7115654  79.0354191 107.2596751  65.7224925  85.5974396 103.1229618
  66.4175830  86.2181089 103.3416932  66.0648076  84.7469747 103.3981996
  51.3392735  77.4192197 116.9826435  50.5974471  77.5674833 117.5691066
  51.0185479  77.6800463 116.1193185  67.6216349  83.0474102 104.6516949
  68.1467673  83.3861375 103.9266269  67.5338701  82.1121117 104.4680083
  59.2836397  86.9608175 116.7806825  59.5923524  86.7157322 117.6529525
  60.0811879  87.1654814 116.2925695  59.3057009  89.1146085 109.0112202
  58.8662000  88.6222464 109.7045058  60.0565126  88.5719053 108.7704277
  51.7849348  85.3057626 109.0136830  52.6107368  85.0061398 108.6335473
  51.4343400  84.5365248 109.4626619  56.7530881  84.6584094 111.0834503
  56.1310891  83.9954799 110.7836731  57.4235748  84.6845226 110.4008151
  49.9857953  83.2243952 109.9725763  49.1489862  82.7966127 109.7909765
  49.9581599  83.4176396 110.9096555  56.8255409  73.1365882 120.6767009
  56.8743564  74.0128005 120.2944779  57.3677923  72.5943275 120.1038653
  67.3110255  83.6807005 119.9568147  66.5205798  83.6631144 119.4172646
  67.0743609  84.2195299 120.7117183  67.4308130  80.5299472 117.2700875
  67.4806135  80.3649479 118.2116398  67.3222053  79.6626731 116.8798756
  56.3144388  83.2088017 104.5592964  56.4632509  83.8923482 103.9059637
  57.1210832  83.1893108 105.0742420  64.7211892  76.5130400 118.5860182
  65.6221755  76.3736865 118.2944180  64.7959867  76.6784855 119.5258359
  59.0554697  73.8897255 117.4313368  58.1858007  74.1830821 117.1595957
  59.2914178  74.4737700 118.1520632  68.9326326  82.9496413 117.5142897
  68.6411135  83.3126394 118.3506358  68.3198458  82.2363422 117.3356229
  70.1322009  80.5149293 110.0345467  70.9668900  80.9539097 110.1983027
  70.2681138  80.0387946 109.2153713  67.1813515  78.0729028 115.9822955
  67.6567636  78.2656674 115.1741806  66.2579080  78.1288214 115.7366338
  54.0697021  79.2353195 105.5654033  53.8243063  78.3315525 105.7634243
  54.2392936  79.2370346 104.6233511  61.7593731  70.1076871 114.9478789
  62.2775675  70.8437898 114.6225277  61.4048864  70.4140865 115.7825548
  53.3392669  74.9681553 103.0640194  52.6461914  75.0425908 102.4080230
  53.0944421  74.2041896 103.5861711  62.0106325  66.5277154 110.4679685
  62.2908079  65.8600343 111.0940112  62.7956932  66.7206250 109.9554349
  59.8139794  85.7036148 102.0304711  59.2413761  86.3226335 101.5775183
  60.3872588  86.2535510 102.5644633  65.8815184  74.9494788 114.2151260
  66.8332607  75.0492886 114.2363484  65.7118634  74.1573057 114.7249345
  63.9029563  72.0350371 114.4010661  63.3079495  72.3155384 113.7057150
  63.6179260  72.5244272 115.1727402  63.0337054  85.9873298 103.1613294
  63.9667727  85.9218860 103.3646169  62.9460266  86.8229565 102.7027826
  65.6625070  85.3039168 100.1217241  65.5838702  84.9699032 101.0152999
  66.4834737  85.7960936 100.1208714  68.3603261  78.1700908 113.3293560
  68.3279582  77.2316908 113.5153244  68.9703885  78.2484944 112.5959385
  60.1986592  77.0396961  99.3720764  61.1445697  76.9103169  99.4409182
  59.8200837  76.3011623  99.8490192  68.5097750  74.9611951 113.3751843
  67.9936799  74.1770408 113.1881772  69.3937698  74.6330668 113.5398363
  66.1708477  68.7052967 109.3347656  65.9733298  68.3968055 110.2190988
  66.7808182  69.4314606 109.4645586  74.1779811  79.2316915 112.4699597
  74.9083200  78.9702203 113.0307300  73.5686757  78.4945636 112.5101665
  72.2595108  77.3724777 113.0674048  71.5328272  77.2380742 112.4590539
  71.8442395  77.6801606 113.8730766  60.0825285  81.0914707 120.8321421
  61.0028294  81.2693306 121.0261467  60.0474868  80.1470752 120.6801120
  58.3829509  74.9646937  99.3075649  57.4760965  74.6680050  99.3838363
  58.6605490  74.6676755  98.4409935  49.3007450  76.2853300 109.7574696
  48.9810234  75.4318609 109.4649070  48.7540878  76.5001879 110.5132663
  53.0787357  79.0015741 113.4744202  53.2973367  79.9332849 113.4932236
  53.4913131  78.6423716 114.2599006  59.9991575  69.5083827 105.4619890
  59.1892304  69.1630912 105.8375137  60.6875992  69.1991370 106.0507502
  61.9282124  68.5861874 107.0844187  62.4813162  69.0057327 107.7434210
  62.1652210  67.6597622 107.1267143  57.9515223  74.5748947 122.8646951
  57.8511950  75.5243304 122.7959042  57.7336765  74.2467186 121.9923021
  57.1528294  71.8233872  99.4487628  58.0147458  72.1488771  99.7083446
  57.3378638  71.0365368  98.9360694  49.1695710  79.9056212 111.7267817
  48.4759181  79.4910165 111.2137772  49.9168701  79.9476748 111.1301236
  65.3060931  70.6962399 106.5922851  64.7259600  71.3547203 106.2100904
  65.0396863  69.8739743 106.1810269  63.7564497  70.0967456 108.7944172
  64.2564275  70.2083991 107.9858490  64.4000105  69.7928509 109.4344980
  57.8146493  78.0046086 121.6812013  57.3313574  78.8046446 121.8875902
  57.9007432  78.0154031 120.7279457  51.0832452  79.8374466 109.6033832
  51.0603141  79.9362153 108.6515715  51.3933089  80.6839617 109.9250998
  53.7419830  81.8950621 113.7180446  54.6963084  81.8634563 113.6510378
  53.5432354  81.4341244 114.5330672  54.3319212  80.4651737 116.2851244
  55.1512101  80.9595815 116.3086081  54.6056020  79.5483705 116.2568812
  64.0885809  72.8562489 105.6479200  63.2011664  73.1412140 105.4299394
  64.5039798  72.6956252 104.8006476  67.4400345  72.8809010 109.3633539
  68.2160735  73.3705463 109.6358156  66.7148479  73.3067064 109.8205408
  69.8772903  73.5936629 110.4207479  70.4717394  73.3532365 109.7100788
  69.9499487  72.8743760 111.0481016  52.0970059  87.4370240 110.7350644
  51.9624527  86.6770641 110.1688642  51.6802121  88.1611140 110.2679433
  63.2329022  82.6207164  99.7427220  63.9364872  82.8257166 100.3584875
  62.5091671  83.1883926 100.0076303  64.0626832  78.3717025 105.8629490
  64.0062034  78.8285576 105.0237122  64.6155175  77.6107710 105.6852333
  67.8731638  74.1606757 106.6879609  67.6168573  73.7603393 107.5187817
  67.2484506  74.8750551 106.5629748  72.1843976  76.9002830 109.1950901
  71.6243534  76.9696019 109.9682463  71.5787479  76.7243815 108.4750397
  55.2539185  88.3339557 110.9469087  55.1371569  89.2784990 110.8447777
  54.4331631  88.0313119 111.3354886  65.1415719  83.0589693 101.7925680
  65.9761323  82.6270891 101.6103154  64.9800062  82.8871707 102.7202574
  64.7961612  79.5621806 103.1582019  64.7410415  79.3966078 102.2170463
  64.1707667  80.2697839 103.3144209  49.5854127  74.7989871 116.9843441
  50.2312990  74.2888825 117.4730666  49.3771278  75.5358552 117.5586866
  62.1107519  81.8670718 122.4835582  62.9798678  82.0411370 122.1222217
  61.6314270  82.6865135 122.3611311  58.1057737  69.0629915 102.7367337
  58.0936407  70.0071755 102.8935608  58.9981159  68.8800061 102.4426799
  56.2793699  88.9867819 114.1625015  57.1820946  89.0191429 114.4791510
  56.0531069  88.0568270 114.1771351  58.0347301  87.7398806 110.8235094
  57.0842932  87.7400667 110.7099466  58.3379787  86.9931540 110.3071129
  61.9209857  65.6572692 106.9913274  61.1542252  65.1031179 107.1369956
  62.3320562  65.7294561 107.8527426  53.9251618  71.9457488 121.0818455
  54.7883079  71.5894293 121.2921780  53.3517028  71.6071383 121.7693860
  73.7699995  93.5759344 111.8880856  74.4078405  93.4566091 111.1844196
  73.6520837  94.5240188 111.9468809  70.5789701  93.5286772 111.8242381
  70.2408212  93.4127837 110.9362916  71.4479469  93.1277937 111.8043387
  66.4376517  95.3822249 107.8139272  65.8741382  95.2912186 107.0455560
  66.3228912  94.5622153 108.2941765  71.0609484  94.6821624 117.7828587
  71.0498125  94.2874422 116.9109090  71.2230123  93.9487697 118.3762358
  63.9840948  96.8773440 110.6523492  64.7762240  96.5364265 110.2369792
  64.2237599  96.9868415 111.5725646  67.7816745  97.4658736 116.7307771
  67.4906611  98.3704367 116.6154437  68.4173729  97.5075263 117.4451840
  68.7072952  94.8435584 113.3209130  69.3036524  94.6191607 112.6066093
  68.7647923  94.1020330 113.9234578  73.3241263  91.3010798 108.9634064
  74.1104352  90.8830221 108.6124481  73.5879967  92.2056890 109.1315713
  78.7249690  91.2386031 109.8667043  79.4574862  90.6685248 110.1004872
  77.9689046  90.8507632 110.3073549  70.3425810  93.6613273 107.0630385
  69.9784017  93.1343894 107.7743307  71.1992926  93.2711742 106.8896871
  76.2475111  84.9507605 114.3261652  75.9158435  85.8203016 114.1022867
  75.6520724  84.6343889 115.0055682  72.7406630  97.1520151 113.7257564
  72.4407353  98.0545190 113.6173371  72.3957690  96.8852334 114.5778717
  66.1919112  93.6033948 109.7594269  65.2669608  93.4710162 109.9671960
  66.4403525  94.3828167 110.2564211  76.1403774  89.6702691 111.4055002
  75.2320651  89.6018100 111.1113763  76.0891370  90.1474636 112.2336827
  63.5527923  93.2467222 110.5938058  63.6820304  93.5001701 111.5077469
  62.8725374  93.8394930 110.2742713  67.7227410 103.9164472 106.6928532
  67.6451440 104.8672297 106.7717013  67.1189053 103.5710344 107.3503458
  70.2144640  91.0892337 119.3489899  69.4377974  91.6486257 119.3392763
  70.8535203  91.5749120 119.8704769  78.0065420  87.8719130 113.1832876
  77.3639801  88.1651663 112.5372670  77.5020349  87.7572050 113.9886072
  68.4691012  93.8977790 118.9107866  69.2105696  94.4362834 118.6342689
  67.7627997  94.5244079 119.0679418  73.9446352  96.0406931 117.5080027
  74.3529708  95.5989341 116.7634660  73.2223613  95.4659558 117.7614220
  70.2977422  90.9779538 114.8813584  71.1438617  91.4018951 115.0248233
  70.2376059  90.3213162 115.5752147  74.2675166  96.6008121 111.2632316
  73.6384029  96.7653836 110.5608384  73.8800828  97.0149731 112.0343280
  73.4476867  88.6383906 116.5394758  73.2037799  89.3925966 116.0029034
  73.7236797  89.0169254 117.3742005  75.4015330  95.1822518 115.2172024
  75.6132225  95.8254278 114.5406405  75.3545078  94.3484835 114.7493954
  73.0041559  87.7940339 112.1208596  72.1426038  88.0921593 112.4125333
  73.0303993  88.0110738 111.1889628  69.8203128  96.3382530 108.5282401
  70.2841474  96.6170233 107.7387024  69.5559926  95.4365974 108.3455492
  66.7127209  95.8854011 111.4662165  67.2828566  96.3141279 110.8279649
  67.3035321  95.6036596 112.1646350  67.2052376  91.0517439 119.7123176
  66.5751036  91.7333719 119.9458573  67.0988464  90.9400520 118.7676314
  62.4997348  90.7189235 110.6389100  61.7096402  90.9746763 110.1629211
  62.9908595  91.5337572 110.7441141  76.5161158  98.0594474 113.3894381
  77.3378601  97.6574661 113.1077062  76.5123561  97.9562708 114.3410497
  64.4512094  91.0833814 107.5972577  63.6543257  91.1952508 108.1156072
  64.2237686  91.4220466 106.7313467  70.2817761  97.6078517 115.5455091
  70.3462194  98.0698924 116.3813263  69.5728685  96.9775882 115.6737401
  60.7835051  90.9719725 113.0704091  61.0343090  91.8566735 113.3361667
  61.3194600  90.7924327 112.2979183  69.9965779  99.2746625 105.4134072
  69.8611454 100.1198160 105.8418919  70.5375591  99.4765902 104.6500005
  66.4833118  85.3538204 122.0748427  66.0900064  84.8004403 122.7496071
  67.2999259  85.6648783 122.4654944  63.4495176  96.7922063 105.9861997
  63.9619697  97.5865313 106.1367561  64.1017889  96.0948353 105.9195598
  65.2590061  99.9087819 108.0684750  65.4356689 100.8305784 107.8805734
  66.0546894  99.5946238 108.4979130  69.4001079  86.7696083 119.6668683
  70.1410793  87.3703237 119.5873146  69.6319002  86.0273721 119.1086726
  64.5442417  91.9552451 117.9446913  64.4295933  91.0537708 118.2454012
  63.6886935  92.2016148 117.5931730  71.6234255  99.8970191 119.5434414
  71.1798109  99.1106570 119.2255318  72.2851469 100.0849342 118.8778305
  66.3821376 101.4265993 114.0695092  66.9328801 101.2983056 113.2972086
  65.5432852 101.7260882 113.7189985  73.7215493 100.1772991 117.5715815
  73.7033969 100.9981872 117.0796084  74.6435413 100.0527066 117.7965956
  70.1788547  97.6917120 118.4139323  70.7116884  96.9305409 118.1838631
  69.6502628  97.3990772 119.1563478  73.3458242  82.7977186 113.9432965
  73.0022512  83.6878828 113.8672076  73.7137205  82.6078844 113.0802550
  61.4144093  95.1210717 106.7621567  62.2519315  95.5307725 106.5455275
  61.5922361  94.1810159 106.7321761  70.8955636  87.6335498 107.5090639
  70.0397232  87.2442349 107.3296277  71.3082588  87.7127459 106.6490424
  72.4254783  85.1681842 111.9082198  71.9219578  85.1311977 111.0950004
  72.7185390  86.0774584 111.9678855  68.6697669  85.2520571 110.9148380
  69.5350665  85.0563380 110.5554270  68.7375178  85.0230923 111.8417737
  71.5441260  96.8203113 105.9258135  71.0162622  96.0855873 105.6131373
  71.0428763  97.5977789 105.6798104  76.5234106  95.0152133 111.0425182
  75.8657781  95.7051395 111.1305310  77.3274505  95.4048565 111.3859168
  66.2759988  87.4822779 108.2864747  66.8503740  87.2597961 107.5537940
  66.8630970  87.5511474 109.0393348  75.3339565  93.3696506 109.0929123
  75.8471447  94.0026498 109.5950833  75.9840789  92.7697702 108.7272483
  68.5782655  84.3564028 107.0139816  67.9247068  84.0413045 106.3896431
  68.5363130  83.7339769 107.7399639  71.8120396  90.8445962 111.3387464
  70.8942957  91.0660909 111.1809152  72.2280539  90.9192272 110.4799171
  72.5955444  92.2437377 106.4690144  73.3427262  92.7558775 106.1597266
  72.8647033  91.9221430 107.3294538  75.0434281  89.2794494 108.4508934
  74.3057037  88.7671880 108.7819176  75.2961054  88.8394875 107.6392210
  75.1445908  82.0570746 109.0450703  75.4504785  81.1968109 108.7576618
  75.8698513  82.6488366 108.8449697  61.4370264  92.4601432 107.4332301
  61.2394664  91.8670793 106.7083367  60.8816928  92.1553642 108.1508240
  69.4166988  92.3524539 109.5526894  69.4715598  91.3998375 109.4769370
  68.6058190  92.5083978 110.0368192  67.3559348  90.9701598 107.3117273
  66.5427213  91.2695769 107.7182465  67.8518342  90.5757287 108.0291755
  69.5067926 100.9659355 109.2451537  69.4644104 101.1920202 108.3160069
  70.4230624 100.7322730 109.3937339  72.9533559  91.4343423 116.1432167
  73.3082947  91.6614896 117.0026632  73.6005691  91.7661800 115.5209422
  66.8473422  88.5419954 112.9278508  67.4872802  88.4008713 112.2301471
  66.0150953  88.2554467 112.5517110  78.7100676  96.6238386 111.8592767
  79.1437183  96.5313675 112.7075821  79.4232257  96.5995886 111.2212783
  67.6233726  97.8422384 109.0413500  68.4174325  97.3472705 108.8396075
  66.9125419  97.3140247 108.6781206  72.4428571 100.2240480 113.3925868
  72.4965593 100.7931416 114.1603584  71.5743352 100.3942365 113.0279905
  63.8502039  88.5120279 107.7051495  64.1108856  89.4265612 107.5960655
  64.6719211  88.0444721 107.8548107  65.3226964  89.9258036 114.8750319
  65.9950018  89.7175398 114.2262968  64.4956751  89.7280122 114.4355551
  79.5716225  96.6662086 114.3925653  79.7652116  97.5707897 114.6384928
  79.4716844  96.2069506 115.2264238  71.2252536  86.5519977 116.8915980
  70.5780451  87.2509927 116.7980456  71.9953552  86.9856121 117.2592228
  74.6331334  96.8168829 119.9666533  74.4816841  96.5879381 119.0496617
  74.6236014  97.7739431 119.9797878  71.4016671  94.3900742 114.9512800
  72.3308731  94.5411902 114.7781767  70.9807701  94.4784763 114.0961446
  70.2005002  98.4151406 112.7211337  70.0616088  98.0470191 113.5937275
  69.4119599  98.9299046 112.5495295  71.7510217  97.7933009 110.1100175
  71.4160050  97.7533779 111.0057825  71.2514163  97.1277725 109.6370585
  65.7254461  93.2000639 115.6352756  65.5874259  92.4680878 116.2364295
  66.6359385  93.1109539 115.3536944  68.3536762  92.9120598 115.1236436
  69.0636381  92.2713791 115.0823054  68.3106070  93.1633493 116.0462617
  76.3423541  99.8487952 118.0443015  76.2836087  99.1647172 117.3773598
  76.7443059 100.5906942 117.5923641  67.0665696  89.8985816 116.9432075
  66.5303053  89.4476555 117.5953672  66.4782405  90.0331725 116.2002540
  65.3614240 106.6649866 110.8376734  65.6010838 107.2968390 111.5155753
  64.5183436 106.3137906 111.1242093  76.3440948  97.8127536 116.2756995
  75.4567727  97.4753457 116.3983394  76.9139499  97.0810567 116.5125760
  57.9970095  94.1451627 109.6000046  58.6841135  93.8313357 109.0121061
  57.8418224  95.0492992 109.3267298  62.8004817  89.0341824 114.0285070
  62.7163006  88.4267494 113.2935480  61.9787524  89.5250842 114.0294566
  69.8742101 102.4728988 113.2418238  69.8012273 103.2783960 113.7537543
  69.4319495 102.6720954 112.4166259  69.6631881 101.7100758 106.7521059
  68.8799403 102.2522438 106.8459284  70.3624626 102.2274738 107.1515301
  72.9728531  87.5195388 109.3955265  73.4697231  86.7665350 109.0756335
  72.2015513  87.5559704 108.8298474  80.8258289  93.2235753 111.0373556
  80.8148165  94.1060468 110.6667489  79.9575668  92.8707304 110.8428093
  72.3340785 102.3715822 115.3976397  73.0468757 103.0063287 115.3252298
  71.8430814 102.4679688 114.5816398  69.5563500  89.6612771 109.1226949
  69.1861287  89.1083811 109.8107855  70.0522592  89.0570904 108.5701950
  77.4430863  92.1184394 107.5043722  77.9091315  92.9512386 107.4304025
  77.8938364  91.6529376 108.2088981  67.3852699 100.1210266 116.2181967
  68.0862158 100.7546748 116.3711362  66.9147813 100.4624997 115.4577607
  75.4147526  84.4864981 111.5434624  74.5010606  84.7169208 111.7116831
  75.8440627  84.5703425 112.3948656  75.1853984  92.6754873 114.0434518
  74.5325435  92.9230780 113.3886971  75.5634364  91.8619011 113.7096995
  71.2341557  93.4174684 120.5300555  70.5582195  93.3168813 121.2002930
  72.0569191  93.2613898 120.9936552  62.9820417  99.6546621 113.1513070
  63.5673853  98.9090308 113.2840974  62.7845255  99.9650577 114.0349734
  65.8359072 102.6897868 108.1675512  65.1669447 103.1743996 107.6839553
  65.6971941 102.9367088 109.0818891  57.5738071  92.2252221 111.8717513
  57.6122171  91.6915811 112.6654631  57.0678364  91.6987426 111.2528490
  69.9764340 104.7241611 114.7658171  70.5282648 104.8873233 115.5307256
  70.3170534 105.3146049 114.0938196  64.9528834  87.0716761 115.3680056
  65.0170160  87.9331592 114.9557453  64.8895954  86.4590763 114.6352414
  64.4281106  89.1439894 119.0153090  65.0553145  88.7616971 119.6290614
  63.5709025  88.9254096 119.3808782  74.8275215  99.5502869 120.6206825
  75.3715119 100.1632827 120.1261780  74.2462060 100.1082447 121.1373838
  61.2046649  90.9516323 104.9471445  61.5000090  90.0427001 104.8938498
  60.3034685  90.9304062 104.6252447  64.7340896  89.0272320 110.9298993
  64.0127482  89.6408287 110.7906467  65.5234152  89.5630084 110.8515639
  75.1767636 100.4732607 113.3801403  74.2297972 100.3537958 113.3079730
  75.5250409  99.5855105 113.4627665  67.5367209  86.3626746 117.2039645
  68.0601611  86.6089043 117.9665954  67.3179543  87.1946781 116.7842782
  62.9334490  88.6330421 105.0710770  62.6047197  87.7527800 104.8885876
  63.2873861  88.5778089 105.9587159  72.1814069 100.2685323 109.5805755
  72.0339032  99.3402031 109.7613325  73.0067563 100.2905414 109.0962831
  66.0476314  88.9203390 105.4386247  66.3872386  89.4489312 104.7164856
  66.4948434  89.2583797 106.2144814  68.7419754  87.3040441 114.8889316
  68.4016575  86.5048254 115.2909995  68.0358761  87.6042152 114.3166149
  69.3936226  84.3889754 113.3416639  70.2162296  83.9150232 113.2195529
  69.6374290  85.1680237 113.8415325  66.9174805  91.0808874 111.1508617
  66.7719386  91.3949177 112.0432899  66.4400009  91.6993775 110.5979516
  68.7771188  88.0711422 111.1989507  68.7632757  87.1752515 110.8621805
  69.4943616  88.0782086 111.8327793  70.6297319  88.5048762 113.2442634
  70.3715096  89.4265833 113.2426965  70.0982359  88.1079197 113.9343098
  61.3920467  93.6214219 114.0896278  60.8473935  94.3974027 114.2216553
  62.2699817  93.9685023 113.9315400  68.1808084  86.9525802 106.4677077
  68.3023995  86.0242449 106.6667964  67.8910126  86.9664488 105.5555392
  71.0499274  84.6380713 109.6043797  71.0720971  84.7020046 108.6495776
  71.4667333  83.7985222 109.7984303  62.1786489  92.7484115 116.9826435
  61.4368225  92.8966750 117.5691066  61.8579233  93.0092380 116.1193185
  70.1230152 102.2900093 116.7806825  70.4317278 102.0449240 117.6529525
  70.9205634 102.4946732 116.2925695  70.1450764 104.4438003 109.0112202
  69.7055754 103.9514381 109.7045058  70.8958881 103.9010970 108.7704277
  62.6243103 100.6349544 109.0136830  63.4501123 100.3353315 108.6335473
  62.2737155  99.8657166 109.4626619  67.5924636  99.9876012 111.0834503
  66.9704645  99.3246717 110.7836731  68.2629503 100.0137144 110.4008151
  60.8251708  98.5535870 109.9725763  59.9883616  98.1258044 109.7909765
  60.7975353  98.7468313 110.9096555  67.6649163  88.4657800 120.6767009
  67.7137319  89.3419923 120.2944779  68.2071678  87.9235193 120.1038653
  78.1504009  99.0098923 119.9568147  77.3599553  98.9923062 119.4172646
  77.9137364  99.5487217 120.7117183  78.2701884  95.8591389 117.2700875
  78.3199889  95.6941397 118.2116398  78.1615807  94.9918648 116.8798756
  67.1538143  98.5379935 104.5592964  67.3026263  99.2215400 103.9059637
  67.9604586  98.5185025 105.0742420  75.5605647  91.8422317 118.5860182
  76.4615509  91.7028782 118.2944180  75.6353621  92.0076772 119.5258359
  69.8948452  89.2189172 117.4313368  69.0251761  89.5122738 117.1595957
  70.1307932  89.8029617 118.1520632  79.7720081  98.2788331 117.5142897
  79.4804889  98.6418312 118.3506358  79.1592212  97.5655339 117.3356229
  80.9715763  95.8441211 110.0345467  81.8062655  96.2831015 110.1983027
  81.1074892  95.3679864 109.2153713  78.0207269  93.4020946 115.9822955
  78.4961391  93.5948592 115.1741806  77.0972835  93.4580131 115.7366338
  72.5987486  85.4368789 114.9478789  73.1169430  86.1729816 114.6225277
  72.2442618  85.7432782 115.7825548  64.1786423  90.2973470 103.0640194
  63.4855668  90.3717825 102.4080230  63.9338175  89.5333814 103.5861711
  72.8500080  81.8569072 110.4679685  73.1301834  81.1892261 111.0940112
  73.6350687  82.0498167 109.9554349  76.7208938  90.2786706 114.2151260
  77.6726361  90.3784803 114.2363484  76.5512389  89.4864974 114.7249345
  74.7423318  87.3642289 114.4010661  74.1473250  87.6447302 113.7057150
  74.4573014  87.8536190 115.1727402  79.1997016  93.4992825 113.3293560
  79.1673336  92.5608826 113.5153244  79.8097640  93.5776862 112.5959385
  79.3491504  90.2903869 113.3751843  78.8330553  89.5062325 113.1881772
  80.2331453  89.9622585 113.5398363  77.0102231  84.0344884 109.3347656
  76.8127053  83.7259973 110.2190988  77.6201937  84.7606523 109.4645586
  85.0173566  94.5608832 112.4699597  85.7476954  94.2994120 113.0307300
  84.4080511  93.8237554 112.5101665  83.0988863  92.7016695 113.0674048
  82.3722027  92.5672660 112.4590539  82.6836150  93.0093523 113.8730766
  70.9219039  96.4206624 120.8321421  71.8422049  96.5985223 121.0261467
  70.8868622  95.4762670 120.6801120  60.1401204  91.6145218 109.7574696
  59.8203989  90.7610526 109.4649070  59.5934633  91.8293796 110.5132663
  63.9181112  94.3307659 113.4744202  64.1367122  95.2624767 113.4932236
  64.3306886  93.9715634 114.2599006  70.8385330  84.8375744 105.4619890
  70.0286058  84.4922829 105.8375137  71.5269747  84.5283288 106.0507502
  72.7675878  83.9153791 107.0844187  73.3206917  84.3349245 107.7434210
  73.0045964  82.9889539 107.1267143  68.7908977  89.9040865 122.8646951
  68.6905704  90.8535222 122.7959042  68.5730519  89.5759104 121.9923021
  60.0089464  95.2348130 111.7267817  59.3152936  94.8202082 111.2137772
  60.7562455  95.2768666 111.1301236  76.1454685  86.0254316 106.5922851
  75.5653354  86.6839120 106.2100904  75.8790618  85.2031661 106.1810269
  74.5958251  85.4259374 108.7944172  75.0958030  85.5375909 107.9858490
  75.2393859  85.1220427 109.4344980  68.6540247  93.3338004 121.6812013
  68.1707329  94.1338364 121.8875902  68.7401186  93.3445949 120.7279457
  61.9226207  95.1666383 109.6033832  61.8996895  95.2654071 108.6515715
  62.2326843  96.0131534 109.9250998  64.5813585  97.2242538 113.7180446
  65.5356838  97.1926481 113.6510378  64.3826108  96.7633162 114.5330672
  65.1712967  95.7943654 116.2851244  65.9905856  96.2887733 116.3086081
  65.4449775  94.8775623 116.2568812  74.9279563  88.1854407 105.6479200
  74.0405418  88.4704057 105.4299394  75.3433552  88.0248170 104.8006476
  78.2794099  88.2100928 109.3633539  79.0554489  88.6997380 109.6358156
  77.5542233  88.6358982 109.8205408  80.7166658  88.9228547 110.4207479
  81.3111149  88.6824283 109.7100788  80.7893242  88.2035678 111.0481016
  62.9363814 102.7662158 110.7350644  62.8018281 102.0062559 110.1688642
  62.5195876 103.4903058 110.2679433  78.7125393  89.4898675 106.6879609
  78.4562327  89.0895310 107.5187817  78.0878261  90.2042469 106.5629748
  83.0237731  92.2294748 109.1950901  82.4637289  92.2987937 109.9682463
  82.4181234  92.0535732 108.4750397  66.0932939 103.6631475 110.9469087
  65.9765324 104.6076907 110.8447777  65.2725386 103.3605036 111.3354886
  60.4247881  90.1281788 116.9843441  61.0706745  89.6180742 117.4730666
  60.2165032  90.8650470 117.5586866  72.9501273  97.1962636 122.4835582
  73.8192433  97.3703288 122.1222217  72.4708025  98.0157053 122.3611311
  67.1187454 104.3159737 114.1625015  68.0214700 104.3483347 114.4791510
  66.8924824 103.3860188 114.1771351  68.8741056 103.0690723 110.8235094
  67.9236687 103.0692585 110.7099466  69.1773542 102.3223458 110.3071129
  72.7603611  80.9864610 106.9913274  71.9936007  80.4323096 107.1369956
  73.1714316  81.0586478 107.8527426  64.7645372  87.2749405 121.0818455
  65.6276834  86.9186210 121.2921780  64.1910783  86.9363300 121.7693860
  84.6093749 108.9051262 111.8880856  85.2472159 108.7858009 111.1844196
  84.4914592 109.8532106 111.9468809  81.9003238 110.0113542 117.7828587
  81.8891879 109.6166340 116.9109090  82.0623878 109.2779614 118.3762358
  78.6210499 112.7950653 116.7307771  78.3300365 113.6996284 116.6154437
  79.2567484 112.8367181 117.4451840  89.5643445 106.5677949 109.8667043
  90.2968617 105.9977166 110.1004872  88.8082800 106.1799549 110.3073549
  83.5800385 112.4812069 113.7257564  83.2801108 113.3837108 113.6173371
  83.2351444 112.2144252 114.5778717  81.0538394 106.4184255 119.3489899
  80.2771728 106.9778175 119.3392763  81.6928957 106.9041038 119.8704769
  88.8459175 103.2011047 113.1832876  88.2033555 103.4943581 112.5372670
  88.3414103 103.0863968 113.9886072  79.3084766 109.2269708 118.9107866
  80.0499451 109.7654752 118.6342689  78.6021752 109.8535997 119.0679418
  84.7840106 111.3698849 117.5080027  85.1923462 110.9281259 116.7634660
  84.0617368 110.7951476 117.7614220  81.1371176 106.3071455 114.8813584
  81.9832371 106.7310869 115.0248233  81.0769814 105.6505080 115.5752147
  85.1068921 111.9300039 111.2632316  84.4777783 112.0945753 110.5608384
  84.7194583 112.3441649 112.0343280  88.9858153 112.8654477 108.6176680
  88.3009191 113.2453378 108.0673713  89.0702002 113.4749804 109.3508628
  84.2870621 103.9675824 116.5394758  84.0431553 104.7217884 116.0029034
  84.5630552 104.3461171 117.3742005  86.2409084 110.5114436 115.2172024
  86.4525979 111.1546196 114.5406405  86.1938832 109.6776753 114.7493954
  78.0446130 106.3809356 119.7123176  77.4144791 107.0625637 119.9458573
  77.9382218 106.2692438 118.7676314  87.3554912 113.3886391 113.3894381
  88.1772356 112.9866579 113.1077062  87.3517315 113.2854626 114.3410497
  81.1211516 112.9370435 115.5455091  81.1855948 113.3990842 116.3813263
  80.4122439 112.3067800 115.6737401  71.6228806 106.3011643 113.0704091
  71.8736844 107.1858653 113.3361667  72.1588354 106.1216244 112.2979183
  95.4460905 109.7325140 109.7379352  94.6924614 109.1632538 109.5823357
  95.5808446 109.6987804 110.6849987  77.3226873 100.6830122 122.0748427
  76.9293818 100.1296321 122.7496071  78.1393013 100.9940701 122.4654944
  80.2394834 102.0988001 119.6668683  80.9804547 102.6995154 119.5873146
  80.4712757 101.3565639 119.1086726  75.3836172 107.2844368 117.9446913
  75.2689687 106.3829626 118.2454012  74.5280690 107.5308065 117.5931730
  82.4628010 115.2262109 119.5434414  82.0191864 114.4398487 119.2255318
  83.1245223 115.4141259 118.8778305  77.2215131 116.7557910 114.0695092
  77.7722556 116.6274974 113.2972086  76.3826607 117.0552799 113.7189985
  84.5609248 115.5064909 117.5715815  84.5427723 116.3273790 117.0796084
  85.4829168 115.3818984 117.7965956  81.0182302 113.0209038 118.4139323
  81.5510639 112.2597326 118.1838631  80.4896383 112.7282690 119.1563478
  72.2537847 110.4502635 106.7621567  73.0913069 110.8599643 106.5455275
  72.4316115 109.5102077 106.7321761  87.3627861 110.3444051 111.0425182
  86.7051535 111.0343312 111.1305310  88.1668260 110.7340483 111.3859168
  86.1733319 108.6988424 109.0929123  86.6865201 109.3318416 109.5950833
  86.8234543 108.0989619 108.7272483  86.9395116 113.6794425 107.2208266
  86.4857443 112.8385335 107.2773457  86.3089082 114.3155824 107.5583046
  85.3828055 115.5170922 108.1558084  85.6751029 116.0775979 107.4370450
  85.8926675 115.8099483 108.9111243  72.2764019 107.7893350 107.4332301
  72.0788418 107.1962711 106.7083367  71.7210683 107.4845560 108.1508240
  80.3461680 116.2951273 109.2451537  80.3037859 116.5212119 108.3160069
  81.2624379 116.0614648 109.3937339  83.7927314 106.7635341 116.1432167
  84.1476702 106.9906814 117.0026632  84.4399445 107.0953717 115.5209422
  89.5225051 109.8853776 106.8481496  89.3842949 110.0755372 105.9202685
  89.1661270 110.6473159 107.3049547  89.5494430 111.9530303 111.8592767
  89.9830937 111.8605593 112.7075821  90.2626011 111.9287804 111.2212783
  83.2822325 115.5532398 113.3925868  83.3359348 116.1223334 114.1603584
  82.4137107 115.7234283 113.0279905  76.1620719 105.2549954 114.8750319
  76.8343772 105.0467316 114.2262968  75.3350505 105.0572040 114.4355551
  90.4109980 111.9954004 114.3925653  90.6045870 112.8999815 114.6384928
  90.3110598 111.5361423 115.2264238  82.0646291 101.8811895 116.8915980
  81.4174206 102.5801844 116.7980456  82.8347306 102.3148039 117.2592228
  85.4725089 112.1460747 119.9666533  85.3210595 111.9171299 119.0496617
  85.4629768 113.1031348 119.9797878  82.2410425 109.7192660 114.9512800
  83.1702485 109.8703819 114.7781767  81.8201455 109.8076680 114.0961446
  81.0398757 113.7443324 112.7211337  80.9009843 113.3762108 113.5937275
  80.2513353 114.2590963 112.5495295  82.5903972 113.1224927 110.1100175
  82.2553805 113.0825697 111.0057825  82.0907918 112.4569643 109.6370585
  76.5648216 108.5292557 115.6352756  76.4268014 107.7972796 116.2364295
  77.4753139 108.4401457 115.3536944  79.1930517 108.2412516 115.1236436
  79.9030135 107.6005708 115.0823054  79.1499825 108.4925411 116.0462617
  87.1817295 115.1779869 118.0443015  87.1229841 114.4939090 117.3773598
  87.5836814 115.9198859 117.5923641  77.9059451 105.2277734 116.9432075
  77.3696808 104.7768472 117.5953672  77.3176159 105.3623643 116.2002540
  76.2007994 121.9941783 110.8376734  76.4404592 122.6260307 111.5155753
  75.3577191 121.6429823 111.1242093  87.1834703 113.1419453 116.2756995
  86.2961481 112.8045375 116.3983394  87.7533254 112.4102485 116.5125760
  68.8363850 109.4743545 109.6000046  69.5234890 109.1605275 109.0121061
  68.6811978 110.3784910 109.3267298  80.7135856 117.8020906 113.2418238
  80.6406027 118.6075877 113.7537543  80.2713249 118.0012872 112.4166259
  91.6652043 108.5527671 111.0373556  91.6541919 109.4352386 110.6667489
  90.7969423 108.1999222 110.8428093  83.1734539 117.7007740 115.3976397
  83.8862512 118.3355205 115.3252298  82.6824568 117.7971606 114.5816398
  78.2246453 115.4502183 116.2181967  78.9255912 116.0838666 116.3711362
  77.7541568 115.7916915 115.4577607  86.0247739 108.0046791 114.0434518
  85.3719189 108.2522698 113.3886971  86.4028119 107.1910929 113.7096995
  82.9854913 118.0406484 108.1462688  83.1677307 117.2228140 108.6090440
  83.8087899 118.2574176 107.7087578  82.0735312 108.7466602 120.5300555
  81.3975949 108.6460731 121.2002930  82.8962946 108.5905815 120.9936552
  73.8214171 114.9838538 113.1513070  74.4067608 114.2382226 113.2840974
  73.6239010 115.2942495 114.0349734  76.6752826 118.0189786 108.1675512
  76.0063202 118.5035913 107.6839553  76.5365696 118.2659006 109.0818891
  68.4131826 107.5544138 111.8717513  68.4515925 107.0207729 112.6654631
  67.9072119 107.0279344 111.2528490  80.8158095 120.0533529 114.7658171
  81.3676403 120.2165151 115.5307256  81.1564288 120.6437967 114.0938196
  75.7922588 102.4008679 115.3680056  75.8563915 103.2623510 114.9557453
  75.7289708 101.7882681 114.6352414  75.2674861 104.4731811 119.0153090
  75.8946899 104.0908889 119.6290614  74.4102779 104.2546013 119.3808782
  85.6668969 114.8794787 120.6206825  86.2108873 115.4924745 120.1261780
  85.0855814 115.4374365 121.1373838  83.9526482 118.0015505 111.7521853
  83.8277622 117.2005245 111.2432799  84.6105573 118.4961698 111.2635823
  86.0161391 115.8024525 113.3801403  85.0691726 115.6829876 113.3079730
  86.3644164 114.9147023 113.4627665  78.3760964 101.6918664 117.2039645
  78.8995366 101.9380960 117.9665954  78.1573297 102.5238698 116.7842782
  83.0207824 115.5977241 109.5805755  82.8732786 114.6693948 109.7613325
  83.8461317 115.6197332 109.0962831  86.6241946 116.4205800 110.6670628
  87.5488493 116.2148661 110.5295079  86.4557249 116.1722201 111.5759970
  79.5813509 102.6332359 114.8889316  79.2410329 101.8340172 115.2909995
  78.8752515 102.9334070 114.3166149  80.2329981  99.7181671 113.3416639
  81.0556050  99.2442149 113.2195529  80.4768044 100.4972155 113.8415325
  81.4691073 103.8340680 113.2442634  81.2108851 104.7557751 113.2426965
  80.9376113 103.4371115 113.9343098  86.4137262 116.9391467 106.0232720
  86.5874139 116.3737890 105.2706572  86.9066153 117.7392362 105.8412209
  72.2314222 108.9506136 114.0896278  71.6867690 109.7265944 114.2216553
  73.1093572 109.2976941 113.9315400  73.0180244 108.0776033 116.9826435
  72.2761980 108.2258668 117.5691066  72.6972988 108.3384298 116.1193185
  80.9623906 117.6192011 116.7806825  81.2711033 117.3741158 117.6529525
  81.7599388 117.8238649 116.2925695  73.4636857 115.9641461 109.0136830
  74.2894877 115.6645233 108.6335473  73.1130909 115.1949084 109.4626619
  78.4318390 115.3167929 111.0834503  77.8098400 114.6538634 110.7836731
  79.1023257 115.3429061 110.4008151  71.6645462 113.8827788 109.9725763
  70.8277371 113.4549962 109.7909765  71.6369108 114.0760231 110.9096555
  78.5042918 103.7949717 120.6767009  78.5531073 104.6711840 120.2944779
  79.0465432 103.2527111 120.1038653  88.9897764 114.3390841 119.9568147
  88.1993307 114.3214980 119.4172646  88.7531118 114.8779134 120.7117183
  89.1095639 111.1883307 117.2700875  89.1593644 111.0233315 118.2116398
  89.0009562 110.3210566 116.8798756  86.3999401 107.1714235 118.5860182
  87.3009264 107.0320700 118.2944180  86.4747376 107.3368690 119.5258359
  80.7342206 104.5481090 117.4313368  79.8645516 104.8414656 117.1595957
  80.9701687 105.1321535 118.1520632  90.6113835 113.6080249 117.5142897
  90.3198644 113.9710229 118.3506358  89.9985967 112.8947257 117.3356229
  91.8109518 111.1733128 110.0345467  92.6456409 111.6122932 110.1983027
  91.9468647 110.6971782 109.2153713  88.8601024 108.7312863 115.9822955
  89.3355145 108.9240510 115.1741806  87.9366589 108.7872049 115.7366338
  83.4381240 100.7660707 114.9478789  83.9563184 101.5021734 114.6225277
  83.0836373 101.0724700 115.7825548  87.5602693 105.6078623 114.2151260
  88.5120116 105.7076721 114.2363484  87.3906143 104.8156892 114.7249345
  90.0390770 108.8284743 113.3293560  90.0067091 107.8900744 113.5153244
  90.6491394 108.9068780 112.5959385  90.1885259 105.6195786 113.3751843
  89.6724308 104.8354243 113.1881772  91.0725207 105.2914503 113.5398363
  95.8567320 109.8900750 112.4699597  96.5870709 109.6286038 113.0307300
  95.2474266 109.1529472 112.5101665  93.9382617 108.0308612 113.0674048
  93.2115781 107.8964577 112.4590539  93.5229904 108.3385441 113.8730766
  81.7612794 111.7498542 120.8321421  82.6815803 111.9277141 121.0261467
  81.7262377 110.8054587 120.6801120  70.9794959 106.9437136 109.7574696
  70.6597743 106.0902444 109.4649070  70.4328387 107.1585714 110.5132663
  74.7574866 109.6599577 113.4744202  74.9760876 110.5916685 113.4932236
  75.1700640 109.3007551 114.2599006  79.6302732 105.2332783 122.8646951
  79.5299459 106.1827140 122.7959042  79.4124274 104.9051021 121.9923021
  70.8483219 110.5640047 111.7267817  70.1546690 110.1494000 111.2137772
  71.5956210 110.6060584 111.1301236  79.4934002 108.6629921 121.6812013
  79.0101083 109.4630282 121.8875902  79.5794941 108.6737866 120.7279457
  72.7619961 110.4958301 109.6033832  72.7390649 110.5945988 108.6515715
  73.0720598 111.3423452 109.9250998  75.4207339 112.5534456 113.7180446
  76.3750593 112.5218398 113.6510378  75.2219863 112.0925080 114.5330672
  76.0106721 111.1235572 116.2851244  76.8299610 111.6179651 116.3086081
  76.2843529 110.2067540 116.2568812  91.5560412 104.2520465 110.4207479
  92.1504903 104.0116201 109.7100788  91.6286996 103.5327595 111.0481016
  73.7757568 118.0954076 110.7350644  73.6412036 117.3354476 110.1688642
  73.3589630 118.8194975 110.2679433  76.9326694 118.9923393 110.9469087
  76.8159078 119.9368825 110.8447777  76.1119140 118.6896954 111.3354886
  71.2641636 105.4573706 116.9843441  71.9100499 104.9472660 117.4730666
  71.0558787 106.1942388 117.5586866  83.7895028 112.5254553 122.4835582
  84.6586187 112.6995206 122.1222217  83.3101779 113.3448970 122.3611311
  77.9581208 119.6451654 114.1625015  78.8608455 119.6775265 114.4791510
  77.7318578 118.7152105 114.1771351  79.7134810 118.3982641 110.8235094
  78.7630441 118.3984503 110.7099466  80.0167296 117.6515376 110.3071129
  75.6039127 102.6041323 121.0818455  76.4670588 102.2478128 121.2921780
  75.0304537 102.2655218 121.7693860  95.4487504 124.2343179 111.8880856
  96.0865914 124.1149927 111.1844196  95.3308346 125.1824023 111.9468809
  92.2577210 124.1870608 111.8242381  91.9195721 124.0711672 110.9362916
  93.1266978 123.7861773 111.8043387  93.6963584 129.7077052 103.1253737
  93.0451564 130.2931132 102.7387751  94.4907947 130.2383247 103.1848774
  90.3860461 125.5019420 113.3209130  90.9824033 125.2775442 112.6066093
  90.4435432 124.7604165 113.9234578  95.0028772 121.9594633 108.9634064
  95.7891861 121.5414056 108.6124481  95.2667476 122.8640725 109.1315713
  95.1738849 127.3967484 103.6622721  94.5384682 127.4702110 104.3743626
  94.8436256 127.9861082 102.9841800 100.4037199 121.8969866 109.8667043
 101.1362371 121.3269083 110.1004872  99.6476555 121.5091467 110.3073549
  92.0213319 124.3197108 107.0630385  91.6571526 123.7927729 107.7743307
  92.8780435 123.9295577 106.8896871  97.9262620 115.6091441 114.3261652
  97.5945944 116.4786852 114.1022867  97.3308233 115.2927725 115.0055682
  94.4194139 127.8103987 113.7257564  94.1194862 128.7129025 113.6173371
  94.0745199 127.5436170 114.5778717  97.8191283 120.3286527 111.4055002
  96.9108160 120.2601935 111.1113763  97.7678879 120.8058472 112.2336827
  89.4014919 134.5748307 106.6928532  89.3238949 135.5256132 106.7717013
  88.7976562 134.2294179 107.3503458  99.6852929 118.5302965 113.1832876
  99.0427309 118.8235498 112.5372670  99.1807858 118.4155886 113.9886072
  97.3393093 122.2766138 103.8718735  98.2510949 122.5093525 103.6966432
  96.8302740 122.8603183 103.3093813  91.9764931 121.6363373 114.8813584
  92.8226126 122.0602787 115.0248233  91.9163568 120.9796997 115.5752147
  95.9462675 127.2591957 111.2632316  95.3171538 127.4237671 110.5608384
  95.5588337 127.6733566 112.0343280  99.8251907 128.1946395 108.6176680
  99.1402945 128.5745296 108.0673713  99.9095756 128.8041721 109.3508628
  95.1264376 119.2967741 116.5394758  94.8825308 120.0509802 116.0029034
  95.4024306 119.6753089 117.3742005  94.6829068 118.4524174 112.1208596
  93.8213547 118.7505428 112.4125333  94.7091502 118.6694573 111.1889628
  91.4990637 126.9966365 108.5282401  91.9628983 127.2754068 107.7387024
  91.2347435 126.0949809 108.3455492  90.4359523 123.1189517 105.3371966
  91.1383566 123.5710561 105.8045893  90.1040152 122.4773336 105.9651860
  88.8839885 121.7101274 119.7123176  88.2538545 122.3917555 119.9458573
  88.7775973 121.5984356 118.7676314  82.4622560 121.6303560 113.0704091
  82.7130599 122.5150570 113.3361667  82.9982108 121.4508162 112.2979183
 106.2854660 125.0617058 109.7379352 105.5318368 124.4924456 109.5823357
 106.4202201 125.0279722 110.6849987  91.6753288 129.9330460 105.4134072
  91.5398963 130.7781996 105.8418919  92.2163100 130.1349738 104.6500005
  88.1620627 116.0122040 122.0748427  87.7687573 115.4588238 122.7496071
  88.9786768 116.3232618 122.4654944  91.0788588 117.4279919 119.6668683
  91.8198302 118.0287072 119.5873146  91.3106511 116.6857557 119.1086726
  86.2229926 122.6136286 117.9446913  86.1083442 121.7121543 118.2454012
  85.3674444 122.8599983 117.5931730  88.0608885 132.0849828 114.0695092
  88.6116310 131.9566891 113.2972086  87.2220361 132.3844717 113.7189985
  95.0245751 113.4561022 113.9432965  94.6810021 114.3462663 113.8672076
  95.3924714 113.2662679 113.0802550  94.9896034 123.4469633 102.4505400
  94.4742657 124.2174238 102.6893788  94.7173342 122.7734769 103.0738462
  92.5743145 118.2919334 107.5090639  91.7184741 117.9026184 107.3296277
  92.9870097 118.3711294 106.6490424  94.1042292 115.8265677 111.9082198
  93.6007087 115.7895812 111.0950004  94.3972899 116.7358420 111.9678855
  90.3485178 115.9104407 110.9148380  91.2138174 115.7147215 110.5554270
  90.4162687 115.6814758 111.8417737  99.9630308 126.2001988 104.3858574
  99.1859751 125.8613147 103.9413736 100.6421789 126.2054611 103.7113539
  94.7782337 121.3196725 104.2765181  94.4732473 121.6342874 105.1275325
  95.7312779 121.3978145 104.3192514  93.2228769 127.4786948 105.9258135
  92.6950131 126.7439708 105.6131373  92.7216272 128.2561625 105.6798104
  98.2021615 125.6735969 111.0425182  97.5445290 126.3635230 111.1305310
  99.0062014 126.0632401 111.3859168  87.9547497 118.1406615 108.2864747
  88.5291249 117.9181796 107.5537940  88.5418479 118.2095309 109.0393348
  97.0127074 124.0280341 109.0929123  97.5258956 124.6610333 109.5950833
  97.6628298 123.4281537 108.7272483  91.3681369 125.2967159  98.9293108
  90.4608431 125.0656412  99.1284257  91.8652401 124.5004778  99.1167090
  94.2749448 134.0064666 101.8489795  93.6011147 134.3096362 102.4574752
  94.6615270 134.8093746 101.4995252  93.4907905 121.5029797 111.3387464
  92.5730466 121.7244744 111.1809152  93.9068048 121.5776107 110.4799171
  94.2742953 122.9021213 106.4690144  95.0214771 123.4142610 106.1597266
  94.5434542 122.5805265 107.3294538  92.5469603 125.3979753 103.4517099
  91.6380822 125.1138786 103.5489568  92.5764686 125.8178832 102.5920405
  97.7788870 129.0086343 107.2208266  97.3251197 128.1677253 107.2773457
  97.1482837 129.6447741 107.5583046  96.7221790 119.9378329 108.4508934
  95.9844546 119.4255715 108.7819176  96.9748563 119.4978711 107.6392210
  96.2221809 130.8462840 108.1558084  96.5144784 131.4067897 107.4370450
  96.7320430 131.1391401 108.9111243  96.8233417 112.7154581 109.0450703
  97.1292294 111.8551944 108.7576618  97.5486022 113.3072201 108.8449697
  91.0954497 123.0108374 109.5526894  91.1503107 122.0582210 109.4769370
  90.2845699 123.1667813 110.0368192  92.2445690 126.9388497 100.7905177
  91.8065120 126.2224356 100.3310814  92.9856131 127.1664612 100.2290269
  91.1855435 131.6243191 109.2451537  91.1431613 131.8504037 108.3160069
  92.1018133 131.3906565 109.3937339  94.6321068 122.0927258 116.1432167
  94.9870456 122.3198731 117.0026632  95.2793200 122.4245635 115.5209422
 100.3618805 125.2145694 106.8481496 100.2236704 125.4047290 105.9202685
 100.0055024 125.9765077 107.3049547  88.5260931 119.2003789 112.9278508
  89.1660311 119.0592548 112.2301471  87.6938462 118.9138303 112.5517110
  87.0014473 120.5841871 114.8750319  87.6737527 120.3759234 114.2262968
  86.1744260 120.3863957 114.4355551  92.9040045 117.2103812 116.8915980
  92.2567960 117.9093762 116.7980456  93.6741061 117.6439956 117.2592228
  93.0804180 125.0484577 114.9512800  94.0096240 125.1995737 114.7781767
  92.6595210 125.1368598 114.0961446  91.8792511 129.0735242 112.7211337
  91.7403597 128.7054026 113.5937275  91.0907108 129.5882881 112.5495295
  92.4740663 134.1744338 104.0636874  92.6492419 133.7032381 104.8782496
  91.7873451 134.8010104 104.2918135  93.4297726 128.4516844 110.1100175
  93.0947559 128.4117614 111.0057825  92.9301672 127.7861560 109.6370585
  87.4041970 123.8584474 115.6352756  87.2661768 123.1264713 116.2364295
  88.3146894 123.7693375 115.3536944  96.3656918 125.7972879 100.3837235
  95.7486089 125.0719707 100.2870287  95.8973407 126.5582239 100.0404309
  90.0324271 123.5704434 115.1236436  90.7423890 122.9297626 115.0823054
  89.9893579 123.8217329 116.0462617  88.7453205 120.5569652 116.9432075
  88.2090562 120.1060390 117.5953672  88.1569914 120.6915560 116.2002540
  84.4792326 119.6925659 114.0285070  84.3950515 119.0851329 113.2935480
  83.6575033 120.1834678 114.0294566  91.3419390 132.3684593 106.7521059
  90.5586912 132.9106274 106.8459284  92.0412135 132.8858573 107.1515301
  94.6516040 118.1779223 109.3955265  95.1484740 117.4249185 109.0756335
  93.8803022 118.2143540 108.8298474 102.5045798 123.8819588 111.0373556
 102.4935674 124.7644304 110.6667489 101.6363177 123.5291139 110.8428093
  95.7345821 126.9350910 106.9693688  94.8002100 127.0552373 106.7998393
  95.9122489 126.0323377 106.7053698  91.2351009 120.3196606 109.1226949
  90.8648796 119.7667646 109.8107855  91.7310101 119.7154739 108.5701950
  99.1218372 122.7768229 107.5043722  99.5878824 123.6096221 107.4304025
  99.5725873 122.3113211 108.2088981  97.1894603 129.1212051 104.5029874
  97.4654447 129.0068645 105.4123749  96.3199102 128.7229536 104.4642048
  97.0935035 115.1448816 111.5434624  96.1798115 115.3753043 111.7116831
  97.5228136 115.2287260 112.3948656  96.8641493 123.3338708 114.0434518
  96.2112944 123.5814616 113.3886971  97.2421873 122.5202847 113.7096995
  93.8248667 133.3698402 108.1462688  94.0071062 132.5520057 108.6090440
  94.6481653 133.5866094 107.7087578  94.1590833 132.2966587 105.4077737
  94.6878599 131.7859041 104.7947899  94.4219052 131.9809117 106.2723270
  87.5146581 133.3481703 108.1675512  86.8456956 133.8327831 107.6839553
  87.3759450 133.5950924 109.0818891  79.2525580 122.8836056 111.8717513
  79.2909680 122.3499647 112.6654631  78.7465873 122.3571262 111.2528490
  86.6316343 117.7300597 115.3680056  86.6957669 118.5915428 114.9557453
  86.5683463 117.1174598 114.6352414  86.1068615 119.8023729 119.0153090
  86.7340654 119.4200806 119.6290614  85.2496534 119.5837931 119.3808782
  89.2154718 117.0210581 117.2039645  89.7389120 117.2672878 117.9665954
  88.9967052 117.8530616 116.7842782  93.8601578 130.9269159 109.5805755
  93.7126541 129.9985866 109.7613325  94.6855072 130.9489249 109.0962831
  90.4207263 117.9624276 114.8889316  90.0804084 117.1632090 115.2909995
  89.7146270 118.2625987 114.3166149  91.0723735 115.0473589 113.3416639
  91.8949805 114.5734067 113.2195529  91.3161799 115.8264073 113.8415325
  93.8563093 118.7806996 104.5737873  94.0726707 119.6631634 104.2726701
  93.3757160 118.3893210 103.8443515  88.5962314 121.7392710 111.1508617
  88.4506895 122.0533013 112.0432899  88.1187518 122.3577610 110.5979516
  90.4558697 118.7295258 111.1989507  90.4420266 117.8336351 110.8621805
  91.1731125 118.7365921 111.8327793  92.3084828 119.1632598 113.2442634
  92.0502605 120.0849668 113.2426965  91.7769868 118.7663032 113.9343098
  97.2531016 132.2683385 106.0232720  97.4267894 131.7029807 105.2706572
  97.7459908 133.0684280 105.8412209  89.8595593 117.6109638 106.4677077
  89.9811504 116.6826284 106.6667964  89.5697635 117.6248324 105.5555392
  92.7286783 115.2964548 109.6043797  92.7508480 115.3603881 108.6495776
  93.1454842 114.4569057 109.7984303 103.1070408 125.0319808 107.6423019
 103.5501554 124.2827133 107.2442143 102.2296918 125.0229944 107.2596751
  98.2406189 131.5850149 103.1229618  98.9357093 132.2056842 103.3416932
  98.5829339 130.7345500 103.3981996  83.8573998 123.4067950 116.9826435
  83.1155734 123.5550586 117.5691066  83.5366742 123.6676216 116.1193185
 100.1397612 129.0349855 104.6516949 100.6648936 129.3737128 103.9266269
 100.0519965 128.0996870 104.4680083  91.8238273 135.1021838 109.0112202
  91.3843263 134.6098217 109.7045058  92.5746390 134.5594806 108.7704277
  89.2712145 130.6459847 111.0834503  88.6492154 129.9830552 110.7836731
  89.9417012 130.6720979 110.4008151  89.3436672 119.1241635 120.6767009
  89.3924828 120.0003758 120.2944779  89.8859187 118.5819028 120.1038653
  91.5735961 119.8773008 117.4313368  90.7039270 120.1706574 117.1595957
  91.8095441 120.4613453 118.1520632 102.6503272 126.5025046 110.0345467
 103.4850164 126.9414850 110.1983027 102.7862401 126.0263699 109.2153713
  94.2774995 116.0952624 114.9478789  94.7956939 116.8313651 114.6225277
  93.9230127 116.4016618 115.7825548  94.5287589 112.5152907 110.4679685
  94.8089343 111.8476096 111.0940112  95.3138196 112.7082003 109.9554349
  92.3321057 131.6911901 102.0304711  91.7595024 132.3102088 101.5775183
  92.9053851 132.2411263 102.5644633  98.3996447 120.9370541 114.2151260
  99.3513870 121.0368639 114.2363484  98.2299898 120.1448810 114.7249345
  96.4210827 118.0226124 114.4010661  95.8260759 118.3031137 113.7057150
  96.1360523 118.5120025 115.1727402  95.5518317 131.9749051 103.1613294
  96.4848990 131.9094613 103.3646169  95.4641530 132.8105318 102.7027826
  98.1806334 131.2914921 100.1217241  98.1019965 130.9574785 101.0152999
  99.0016001 131.7836689 100.1208714 100.8784525 124.1576661 113.3293560
 100.8460845 123.2192661 113.5153244 101.4885149 124.2360697 112.5959385
  92.7167856 123.0272714  99.3720764  93.6626961 122.8978922  99.4409182
  92.3382101 122.2887376  99.8490192 101.0279013 120.9487704 113.3751843
 100.5118062 120.1646161 113.1881772 101.9118962 120.6206421 113.5398363
  98.6889740 114.6928720 109.3347656  98.4914561 114.3843808 110.2190988
  99.2989446 115.4190359 109.4645586  94.4463387 114.5737627 107.0844187
  94.9994426 114.9933080 107.7434210  94.6833473 113.6473375 107.1267143
  97.8242194 116.6838152 106.5922851  97.2440863 117.3422956 106.2100904
  97.5578127 115.8615496 106.1810269  96.2745760 116.0843209 108.7944172
  96.7745539 116.1959744 107.9858490  96.9181368 115.7804262 109.4344980
  86.8500476 126.4527490 116.2851244  87.6693365 126.9471568 116.3086081
  87.1237284 125.5359458 116.2568812  96.6067072 118.8438242 105.6479200
  95.7192927 119.1287893 105.4299394  97.0221061 118.6832006 104.8006476
  99.9581608 118.8684763 109.3633539 100.7341998 119.3581216 109.6358156
  99.2329742 119.2942817 109.8205408 102.3954167 119.5812382 110.4207479
 102.9898658 119.3408118 109.7100788 102.4680751 118.8619513 111.0481016
  84.6151323 133.4245993 110.7350644  84.4805790 132.6646394 110.1688642
  84.1983385 134.1486893 110.2679433  95.7510286 128.6082917  99.7427220
  96.4546136 128.8132919 100.3584875  95.0272934 129.1759679 100.0076303
  96.5808096 124.3592778 105.8629490  96.5243297 124.8161329 105.0237122
  97.1336438 123.5983463 105.6852333 100.3912902 120.1482510 106.6879609
 100.1349836 119.7479146 107.5187817  99.7665770 120.8626304 106.5629748
 104.7025240 122.8878583 109.1950901 104.1424798 122.9571772 109.9682463
 104.0968743 122.7119568 108.4750397  87.7720448 134.3215310 110.9469087
  87.6552833 135.2660743 110.8447777  86.9512895 134.0188872 111.3354886
  97.6596983 129.0465446 101.7925680  98.4942587 128.6146644 101.6103154
  97.4981326 128.8747460 102.7202574  97.3142875 125.5497559 103.1582019
  97.2591679 125.3841831 102.2170463  96.6888930 126.2573592 103.3144209
  82.1035390 120.7865624 116.9843441  82.7494254 120.2764578 117.4730666
  81.8952541 121.5234305 117.5586866  90.5528565 133.7274559 110.8235094
  89.6024196 133.7276420 110.7099466  90.8561051 132.9807293 110.3071129
  86.4432881 117.9333241 121.0818455  87.3064343 117.5770046 121.2921780
  85.8698292 117.5947136 121.7693860  98.4612966 142.1258106 103.5240871
  99.2343842 141.5787094 103.3853747  98.8138365 142.9902356 103.7355333
 100.7979244 138.2850773 101.1559321 101.0504764 137.7632294 100.3942784
  99.8603803 138.1216918 101.2586005 100.5175532 140.1878879 103.3583696
 100.4011791 139.5123782 104.0264780 100.6277792 139.7011252 102.5415849
 102.5012560 134.6778925 102.0591734 102.6686963 135.5459162 102.4262205
 102.3109729 134.8406207 101.1353023 102.4801781 137.1336583 103.0438401
 102.3601406 137.5793634 103.8823881 101.7854370 137.4821901 102.4851939
  96.9693357 137.0709567 107.5972577  96.1724520 137.1828261 108.1156072
  96.7418949 137.4096219 106.7313467 105.8289789 138.7761551 102.4505400
 105.3136412 139.5466155 102.6893788 105.5567097 138.1026687 103.0738462
  99.1210838 135.5002993 102.3060632  98.2848151 135.8377680 102.6269907
  98.9815608 135.3651973 101.3687769 101.0963919 130.3439781 107.0139816
 100.4428331 130.0288798 106.3896431 101.0544393 129.7215522 107.7399639
 102.2075124 140.6259076  98.9293108 101.3002185 140.3948330  99.1284257
 102.7046156 139.8296695  99.1167090  93.9551528 138.4477185 107.4332301
  93.7575927 137.8546546 106.7083367  93.3998192 138.1429395 108.1508240
 103.0839445 142.2680415 100.7905177 102.6458875 141.5516274 100.3310814
 103.8249886 142.4956530 100.2290269  96.4497753 137.9741219 105.1173253
  95.5195341 137.9125675 105.3343215  96.5455225 137.4517172 104.3209894
  96.3683302 134.4996032 107.7051495  96.6290120 135.4141365 107.5960655
  97.1900475 134.0320475 107.8548107 107.2050673 141.1264796 100.3837235
 106.5879843 140.4011625 100.2870287 106.7367161 141.8874157 100.0404309
  98.9949219 135.3450221  99.5058539  98.1178685 135.2239022  99.1420786
  99.4706972 134.5536299  99.2537428  93.7227912 136.9392076 104.9471445
  94.0181353 136.0302754 104.8938498  92.8215948 136.9179815 104.6252447
  95.4515754 134.6206174 105.0710770  95.1228460 133.7403553 104.8885876
  95.8055125 134.5653842 105.9587159  98.5657577 134.9079143 105.4386247
  98.9053650 135.4365065 104.7164856  99.0129698 135.2459550 106.2144814
 100.5525724 133.4053765 103.6379540 101.2734087 133.7835018 103.1343257
  99.9291028 134.1242642 103.7414518 104.6956847 134.1098914 104.5737873
 104.9120462 134.9923552 104.2726701 104.2150914 133.7185127 103.8443515
 100.6989347 132.9401555 106.4677077 100.8205259 132.0118202 106.6667964
 100.4091390 132.9540241 105.5555392  97.4272039 140.5520866 105.5654033
  97.1818081 139.6483196 105.7634243  97.5967954 140.5538016 104.6233511
  96.6967687 136.2849223 103.0640194  96.0036932 136.3593578 102.4080230
  96.4519439 135.5209567 103.5861711 103.5561610 138.3564631  99.3720764
 104.5020715 138.2270839  99.4409182 103.1775855 137.6179293  99.8490192
 101.7404527 136.2814608  99.3075649 100.8335983 135.9847720  99.3838363
 102.0180508 135.9844426  98.4409935 103.3566593 130.8251497 105.4619890
 102.5467321 130.4798582 105.8375137 104.0451010 130.5159041 106.0507502
 105.2857141 129.9029544 107.0844187 105.8388180 130.3224998 107.7434210
 105.5227228 128.9765292 107.1267143 100.5103312 133.1401543  99.4487628
 101.3722476 133.4656441  99.7083446 100.6953656 132.3533039  98.9360694
 101.4632755 130.3797586 102.7367337 101.4511425 131.3239426 102.8935608
 102.3556177 130.1967731 102.4426799 105.2784875 126.9740363 106.9913274
 104.5117270 126.4198849 107.1369956 105.6895580 127.0462231 107.8527426
  30.4124978   9.2653796  98.6126163  31.0503388   9.1460543  97.9089503
  30.2945821  10.2134640  98.6714115  27.2214684   9.2181224  98.5487688
  26.8833196   9.1022289  97.6608223  28.0904452   8.8172389  98.5288694
  23.0801500  11.0716700  94.5384579  22.5166365  10.9806637  93.7700866
  22.9653895  10.2516605  95.0187071  20.6265932  12.5667892  97.3768799
  21.4187224  12.2258717  96.9615098  20.8662582  12.6762867  98.2970952
  28.6601059  14.7387668  89.8499044  28.0089038  15.3241749  89.4633057
  29.4545421  15.2693863  89.9094081  22.5856686  11.8276805  90.2486178
  23.3587562  11.2805792  90.1099054  22.9382085  12.6921055  90.4600639
  24.4241728  13.1553188 103.4553077  24.1331594  14.0598818 103.3399744
  25.0598713  13.1969715 104.1697147  25.3497935  10.5330036 100.0454437
  25.9461507  10.3086059  99.3311400  25.4072907   9.7914782 100.6479885
  24.9222964   7.9869471  87.8804628  25.1748484   7.4650993  87.1188091
  23.9847523   7.8235617  87.9831311  29.9666246   6.9905250  95.6879371
  30.7529336   6.5724673  95.3369788  30.2304951   7.8951342  95.8561019
  30.1376324  12.4278100  90.3868028  29.5022157  12.5012727  91.0988933
  29.8073730  13.0171699  89.7087107  35.3674673   6.9280483  96.5912350
  36.0999845   6.3579700  96.8250179  34.6114029   6.5402083  97.0318855
  24.6419252   9.8897577  90.0829003  24.5255510   9.2142481  90.7510087
  24.7521512   9.4029951  89.2661156  26.9850793   9.3507725  93.7875692
  26.6209000   8.8238345  94.4988613  27.8417909   8.9606194  93.6142177
  26.6256280   4.3797624  88.7837041  26.7930683   5.2477861  89.1507512
  26.4353449   4.5424906  87.8598330  29.3831613  12.8414603 100.4502871
  29.0832336  13.7439642 100.3418678  29.0382673  12.5746786 101.3024024
  22.8344095   9.2928400  96.4839575  21.9094591   9.1604614  96.6917267
  23.0828508  10.0722619  96.9809518  32.7828757   5.3597143  98.1300308
  31.8745634   5.2912552  97.8359069  32.7316353   5.8369088  98.9582134
  26.6045501   6.8355282  89.7683707  26.4845126   7.2812332  90.6069188
  25.9098089   7.1840599  89.2097245  20.1952906   8.9361674  97.3183364
  20.3245287   9.1896152  98.2322776  19.5150357   9.5289382  96.9988019
  24.3652393  19.6058923  93.4173839  24.2876423  20.5566749  93.4962319
  23.7614037  19.2604796  94.0748765  34.6490404   3.5613582  99.9078182
  34.0064784   3.8546115  99.2617977  34.1445332   3.4466502 100.7131379
  32.3030567   7.3076755  90.5964041  33.2148423   7.5404142  90.4211739
  31.7940214   7.8913799  90.0339120  30.5871335  11.7301383 104.2325334
  30.9954691  11.2883793 103.4879966  29.8648596  11.1554010 104.4859527
  30.9100150  12.2902573  97.9877623  30.2809012  12.4548287  97.2853691
  30.5225812  12.7044183  98.7588587  34.7889381  13.2257011  95.3421987
  34.1040420  13.6055913  94.7919020  34.8733231  13.8352338  96.0753934
  32.0440313  10.8716970 101.9417330  32.2557208  11.5148730 101.2651711
  31.9970061  10.0379287 101.4739260  29.6466542   3.4834791  98.8453902
  28.7851021   3.7816044  99.1370640  29.6728977   3.7005190  97.9134935
  26.4628111  12.0276981  95.2527708  26.9266457  12.3064684  94.4632330
  26.1984910  11.1260426  95.0700799  23.3552192  11.5748463  98.1907471
  23.9253550  12.0035731  97.5524956  23.9460304  11.2931048  98.8891657
  25.3996997   8.1500134  92.0617273  26.1021041   8.6021177  92.5291199
  25.0677626   7.5083953  92.6897166  33.1586141  13.7488926 100.1139687
  33.9803585  13.3469113  99.8322369  33.1548544  13.6457160 101.0655803
  21.0937077   6.7728266  94.3217883  20.2968240   6.8846960  94.8401379
  20.8662669   7.1114918  93.4558774  26.9242744  13.2972969 102.2700398
  26.9887177  13.7593376 103.1058570  26.2153668  12.6670334 102.3982708
  41.2492134  10.0927674  96.4624659  40.4955842   9.5235072  96.3068663
  41.3839675  10.0590339  97.4095294  26.6390762  14.9641076  92.1379378
  26.5036437  15.8092612  92.5664226  27.1800575  15.1660354  91.3745312
  20.0920159  12.4816514  92.7107303  20.6044680  13.2759765  92.8612868
  20.7442872  11.7842805  92.6440905  21.9015044  15.5982271  94.7930057
  22.0781673  16.5200235  94.6051040  22.6971878  15.2840690  95.2224436
  28.2659238  15.5864643 106.2679720  27.8223093  14.8001021 105.9500625
  28.9276452  15.7743793 105.6023611  23.0246360  17.1160445 100.7940399
  23.5753785  16.9877508 100.0217393  22.1857836  17.4155334 100.4435292
  30.3640477  15.8667443 104.2961122  30.3458952  16.6876324 103.8041391
  31.2860397  15.7421518 104.5211263  18.0569076  10.8105169  93.4866874
  18.8944298  11.2202177  93.2700582  18.2347344   9.8704611  93.4567068
  29.9533508   8.4780249  89.1750707  29.4380132   9.2484854  89.4139094
  29.6810817   7.8045386  89.7983768  27.5380619   3.3229950  94.2335945
  26.6822216   2.9336801  94.0541584  27.9507571   3.4021911  93.3735731
  34.9267783  11.2312604  91.1103880  34.1497225  10.8923764  90.6659042
  35.6059263  11.2365227  90.4358845  29.7419812   6.3507342  91.0010488
  29.4369947   6.6653491  91.8520631  30.6950254   6.4288761  91.0437821
  28.1866243  12.5097565  92.6503442  27.6587605  11.7750324  92.3376680
  27.6853746  13.2872241  92.4043410  33.1659089  10.7046585  97.7670488
  32.5082764  11.3945847  97.8550617  33.9699489  11.0943017  98.1104475
  31.9764548   9.0590958  95.8174430  32.4896430   9.6920950  96.3196140
  32.6265772   8.4592154  95.4517790  23.2454558   5.2021692  89.0305939
  22.4091870   5.5396379  89.3515214  23.1059328   5.0670672  88.0933076
  26.3318844  10.3277775  85.6538415  25.4245905  10.0967029  85.8529564
  26.8289876   9.5315394  85.8412397  29.2386922  19.0375282  88.5735101
  28.5648621  19.3406979  89.1820059  29.6252744  19.8404363  88.2240558
  28.4545379   6.5340414  98.0632771  27.5367940   6.7555361  97.9054459
  28.8705523   6.6086724  97.2044478  29.2380427   7.9331829  93.1935451
  29.9852246   8.4453226  92.8842573  29.5072016   7.6115882  94.0539844
  27.5107077  10.4290370  90.1762405  26.6018296  10.1449403  90.2734875
  27.5402161  10.8489449  89.3165712  32.7426344  14.0396959  93.9453573
  32.2888672  13.1987869  94.0018763  32.1120311  14.6758358  94.2828353
  31.6859264   4.9688945  95.1754240  30.9482021   4.4566332  95.5064483
  31.9386038   4.5289327  94.3637517  31.1859284  15.8773456  94.8803391
  31.4782258  16.4378513  94.1615757  31.6957904  16.1702017  95.6356550
  26.0591971   8.0418991  96.2772201  26.1140581   7.0892827  96.2014677
  25.2483173   8.1978430  96.7613499  27.2083165  11.9699114  87.5150484
  26.7702595  11.2534973  87.0556121  27.9493606  12.1975228  86.9535575
  23.9984331   6.6596050  94.0362579  23.1852197   6.9590221  94.4427772
  24.4943325   6.2651739  94.7537062  26.1492909  16.6553807  95.9696844
  26.1069088  16.8814654  95.0405376  27.0655608  16.4217182  96.1182645
  35.3256280  10.2456311  93.5726802  35.1874178  10.4357907  92.6447992
  34.9692498  11.0075693  94.0294853  35.3525659  12.3132838  98.5838074
  35.7862166  12.2208127  99.4321128  36.0657240  12.2890338  97.9458090
  24.2658710  13.5316836  95.7658807  25.0599308  13.0367156  95.5641382
  23.5550402  13.0034699  95.4026512  29.0853554  15.9134932 100.1171174
  29.1390576  16.4825868 100.8848890  28.2168335  16.0836817  99.7525212
  20.5741473   7.6759918  91.8418559  19.6439061   7.6144373  92.0588522
  20.6698945   7.1535871  91.0455201  36.2141209  12.3556538 101.1170959
  36.4077099  13.2602349 101.3630234  36.1141827  11.8963957 101.9509544
  31.2756317  12.5063281 106.6911840  31.1241824  12.2773833 105.7741924
  31.2660997  13.4633882 106.7043185  28.0441654  10.0795194 101.6758106
  28.9733714  10.2306353 101.5027074  27.6232684  10.1679215 100.8206753
  26.8429986  14.1045858  99.4456644  26.7041071  13.7364643 100.3182582
  26.0544582  14.6193498  99.2740602  27.4378138  19.2054955  90.7882180
  27.6129893  18.7342998  91.6027803  26.7510926  19.8320721  91.0163441
  28.3935201  13.4827461  96.8345482  28.0585033  13.4428231  97.7303132
  27.8939146  12.8172177  96.3615892  31.3294392  10.8283495  87.1082541
  30.7123563  10.1030323  87.0115594  30.8610881  11.5892856  86.7649616
  32.9848524  15.5382404 104.7688322  32.9261070  14.8541624 104.1018905
  33.3868042  16.2801394 104.3168948  22.0039223  22.3544317  97.5622041
  22.2435821  22.9862842  98.2401059  21.1608419  22.0032357  97.8487400
  32.9865931  13.5021988 103.0002301  32.0992710  13.1647909 103.1228700
  33.5564482  12.7705019 103.2371067  26.5167085  18.1623440  99.9663545
  26.4437256  18.9678411 100.4782849  26.0744478  18.3615406  99.1411566
  26.3056864  17.3995210  93.4766366  25.5224386  17.9416890  93.5704591
  27.0049610  17.9169190  93.8760607  29.6153514   3.2089839  96.1200572
  30.1122214   2.4559802  95.8001642  28.8440496   3.2454156  95.5543781
  37.4683272   8.9130205  97.7618863  37.4573148   9.7954920  97.3912796
  36.6000651   8.5601756  97.5673400  28.9765768  18.0610274 102.1221703
  29.6893740  18.6957739 102.0497605  28.4855797  18.1574140 101.3061705
  30.6983295  11.9661527  93.6938995  29.7639574  12.0862989  93.5243699
  30.8759964  11.0633993  93.4299005  26.1988483   5.3507222  95.8472256
  25.8286271   4.7978263  96.5353162  26.6947576   4.7465356  95.2947256
  34.0855847   7.8078846  94.2289029  34.5516299   8.6406837  94.1549332
  34.5363347   7.3423827  94.9334288  24.0277682  15.8104717 102.9427274
  24.7287141  16.4441200 103.0956668  23.5572797  16.1519449 102.1822913
  32.1532078  14.1522667  91.2275181  32.4291922  14.0379262  92.1369055
  31.2836576  13.7540152  91.1887354  32.0572509   0.1759433  98.2679930
  31.1435589   0.4063660  98.4362137  32.4865611   0.2597877  99.1193963
  31.8278968   8.3649325 100.7679824  31.1750418   8.6125232 100.1132277
  32.2059348   7.5513463 100.4342302  28.7886142  18.4009018  94.8707995
  28.9708536  17.5830674  95.3335747  29.6119128  18.6176710  94.4332885
  29.1228307  17.3277203  92.1323043  29.6516074  16.8169658  91.5193205
  29.3856527  17.0119733  92.9968576  19.6245400  15.3441072  99.8758377
  20.2098837  14.5984760 100.0086281  19.4270238  15.6545029 100.7595041
  22.4784055  18.3792320  94.8920819  21.8094430  18.8638447  94.4084859
  22.3396925  18.6261540  95.8064198  26.6189324  20.4136063 101.4903478
  27.1707632  20.5767685 102.2552563  26.9595517  21.0040501 100.8183502
  31.4700198  15.2397321 107.3452132  32.0140102  15.8527279 106.8507087
  30.8887043  15.7976899 107.8619145  29.7557711  18.3618039  98.4767160
  29.6308850  17.5607779  97.9678105  30.4136802  18.8564232  97.9881130
  31.8192619  16.1627059 100.1046710  30.8722955  16.0432410 100.0325036
  32.1675392  15.2749557 100.1872971  28.8239053  15.9579775  96.3051062
  28.6764015  15.0296483  96.4858632  29.6492546  15.9799866  95.8208137
  32.4273174  16.7808334  97.3915935  33.3519722  16.5751195  97.2540386
  32.2588478  16.5324735  98.3005276  28.8200567   3.8117613  91.2983179
  29.0364181   4.6942251  90.9972007  28.3394634   3.4203826  90.5688821
  23.5599788   6.7703326  97.8753924  23.4144369   7.0843629  98.7678205
  23.0824992   7.3888226  97.3224822  32.2168491  17.2994001  92.7478026
  32.3905368  16.7340424  91.9951879  32.7097382  18.0994896  92.5657516
  38.0707882  10.0630424  94.3668326  38.5139028   9.3137750  93.9687449
  37.1934392  10.0540561  93.9842058  33.2043663  16.6160766  89.8474924
  33.8994568  17.2367458  90.0662239  33.5466813  15.7656117  90.1227302
  35.1035086  14.0660471  91.3762255  35.6286410  14.4047744  90.6511575
  35.0157439  13.1307487  91.1925390  26.7655135  17.9794545 103.5052132
  27.0742261  17.7343692 104.3774831  27.5630617  18.1841183 103.0171002
  26.7875747  20.1332455  95.7357508  26.3480737  19.6408833  96.4290365
  27.5383864  19.5905422  95.4949584  19.2668086  16.3243995  95.7382136
  20.0926106  16.0247767  95.3580780  18.9162138  15.5551618  96.1871925
  24.2349619  15.6770464  97.8079810  23.6129628  15.0141169  97.5082038
  24.9054486  15.7031596  97.1253458  17.4676691  14.2430322  96.6971070
  16.6308599  13.8152496  96.5155071  17.4400337  14.4362765  97.6341861
  34.7928992  14.6993375 106.6813453  34.0024536  14.6817514 106.1417953
  34.5562347  15.2381669 107.4362490  34.9126867  11.5485841 103.9946182
  34.9624872  11.3835849 104.9361705  34.8040791  10.6813100 103.6044062
  23.7963126  14.2274387  91.2838271  23.9451246  14.9109851  90.6304943
  24.6029570  14.2079477  91.7987726  36.4145064  13.9682783 104.2388203
  36.1229873  14.3312763 105.0751664  35.8017196  13.2549791 104.0601535
  37.6140747  11.5335663  96.7590773  38.4487638  11.9725467  96.9228334
  37.7499875  11.0574316  95.9399019  34.6632252   9.0915397 102.7068261
  35.1386374   9.2843044 101.8987113  33.7397818   9.1474583 102.4611645
  21.5515759  10.2539565  92.2899340  21.3061801   9.3501895  92.4879550
  21.7211674  10.2556715  91.3478818  27.2958532  16.7222517  88.7550018
  26.7232499  17.3412705  88.3020490  27.8691325  17.2721879  89.2889940
  33.3633921   5.9681158 100.9396567  34.3151344   6.0679255 100.9608791
  33.1937372   5.1759426 101.4494651  31.3848301   3.0536741 101.1255968
  30.7898233   3.3341753 100.4302456  31.0997998   3.5430642 101.8972709
  30.5155791  17.0059668  89.8858600  31.4486465  16.9405229  90.0891476
  30.4279004  17.8415934  89.4273133  33.1443808  16.3225538  86.8462548
  33.0657440  15.9885402  87.7398306  33.9653475  16.8147306  86.8454020
  35.8421999   9.1887277 100.0538866  35.8098319   8.2503278 100.2398550
  36.4522623   9.2671314  99.3204691  27.6805330   8.0583330  86.0966071
  28.6264435   7.9289538  86.1654489  27.3019575   7.3197992  86.5735499
  35.9916488   5.9798321 100.0997150  35.4755536   5.1956777  99.9127079
  36.8756436   5.6517037 100.2643669  33.6527215  -0.2760664  96.0592962
  33.4552036  -0.5845576  96.9436294  34.2626920   0.4500975  96.1890892
  41.6598549  10.2503284  99.1944903  42.3901938   9.9888572  99.7552607
  41.0505495   9.5132006  99.2346971  39.7413846   8.3911147  99.7919354
  39.0147010   8.2567112  99.1835846  39.3261133   8.6987975 100.5976073
  25.8648247   5.9833307  86.0320956  24.9579703   5.6866419  86.1083669
  26.1424228   5.6863125  85.1655242  20.5606095  10.0202111 100.1989509
  20.7792105  10.9519219 100.2177542  20.9731869   9.6610085 100.9844313
  16.6514448  10.9242581  98.4513124  15.9577919  10.5096534  97.9383078
  17.3987439  10.9663118  97.8546543  32.7879668   1.7148768  93.3168158
  32.2078337   2.3733572  92.9346210  32.5215601   0.8926113  92.9055575
  31.2383235   1.1153826  95.5189478  31.7383013   1.2270361  94.7103797
  31.8818843   0.8114879  96.1590287  18.5651190  10.8560835  96.3279139
  18.5421878  10.9548523  95.3761022  18.8751827  11.7025986  96.6496305
  21.2238568  12.9136990 100.4425753  22.1781822  12.8820933 100.3755685
  21.0251092  12.4527614 101.2575979  31.5704546   3.8748859  92.3724506
  30.6830401   4.1598509  92.1544701  31.9858535   3.7142622  91.5251783
  34.9219083   3.8995380  96.0878845  35.6979473   4.3891832  96.3603462
  34.1967217   4.3253434  96.5450715  37.3591641   4.6122999  97.1452786
  37.9536132   4.3718735  96.4346094  37.4318225   3.8930129  97.7726322
  19.5788797  18.4556610  97.4595951  19.4443265  17.6957011  96.8933949
  19.1620859  19.1797510  96.9924740  30.7147760  13.6393533  86.4672526
  31.4183610  13.8443536  87.0830182  29.9910409  14.2070295  86.7321610
  31.5445570   9.3903395  92.5874796  31.4880772   9.8471946  91.7482429
  32.0973913   8.6294079  92.4097639  35.3550376   5.1793126  93.4124916
  35.0987310   4.7789762  94.2433124  34.7303244   5.8936920  93.2875055
  39.6662714   7.9189200  95.9196207  39.1062272   7.9882389  96.6927769
  39.0606217   7.7430184  95.1995704  22.7357923  19.3525927  97.6714394
  22.6190307  20.2971359  97.5693084  21.9150369  19.0499488  98.0600193
  32.6234457  14.0776063  88.5170986  33.4580061  13.6457261  88.3348461
  32.4618800  13.9058076  89.4447881  32.2780349  10.5808176  89.8827326
  32.2229153  10.4152447  88.9415770  31.6526405  11.2884209  90.0389515
  23.7612437  20.0054189 100.8870322  24.6639684  20.0377799 101.2036817
  23.5349807  19.0754640 100.9016658  25.5166039  18.7585175  97.5480401
  24.5661670  18.7587037  97.4344773  25.8198525  18.0117910  97.0316435
  41.2518732  24.5945714  98.6126163  41.8897142  24.4752461  97.9089503
  41.1339575  25.5426558  98.6714115  38.0608439  24.5473142  98.5487688
  37.7226950  24.4314206  97.6608223  38.9298207  24.1464307  98.5288694
  33.9195254  26.4008618  94.5384579  33.3560119  26.3098555  93.7700866
  33.8047649  25.5808523  95.0187071  38.5428222  25.7007993 104.5073893
  38.5316862  25.3060792 103.6354397  38.7048861  24.9674066 105.1007665
  31.4659686  27.8959810  97.3768799  32.2580978  27.5550634  96.9615098
  31.7056336  28.0054785  98.2970952  39.4994813  30.0679586  89.8499044
  38.8482793  30.6533666  89.4633057  40.2939176  30.5985781  89.9094081
  33.4250440  27.1568723  90.2486178  34.1981316  26.6097710  90.1099054
  33.7775839  28.0212972  90.4600639  35.2635483  28.4845105 103.4553077
  34.9725349  29.3890736 103.3399744  35.8992467  28.5261633 104.1697147
  36.1891690  25.8621954 100.0454437  36.7855262  25.6377976  99.3311400
  36.2466661  25.1206699 100.6479885  35.7616718  23.3161389  87.8804628
  36.0142239  22.7942910  87.1188091  34.8241277  23.1527535  87.9831311
  40.8060001  22.3197167  95.6879371  41.5923090  21.9016591  95.3369788
  41.0698705  23.2243260  95.8561019  40.9770078  27.7570018  90.3868028
  40.3415911  27.8304644  91.0988933  40.6467485  28.3463617  89.7087107
  46.2068428  22.2572401  96.5912350  46.9393600  21.6871618  96.8250179
  45.4507784  21.8694001  97.0318855  35.4813007  25.2189495  90.0829003
  35.3649265  24.5434398  90.7510087  35.5915267  24.7321869  89.2661156
  37.8244548  24.6799642  93.7875692  37.4602755  24.1530263  94.4988613
  38.6811664  24.2898111  93.6142177  43.7293848  15.9693975 101.0506958
  43.3977173  16.8389386 100.8268173  43.1339462  15.6530259 101.7300989
  37.4650035  19.7089542  88.7837041  37.6324437  20.5769778  89.1507512
  37.2747204  19.8716824  87.8598330  40.2225368  28.1706521 100.4502871
  39.9226091  29.0731560 100.3418678  39.8776427  27.9038704 101.3024024
  33.6737849  24.6220318  96.4839575  32.7488346  24.4896532  96.6917267
  33.9222263  25.4014537  96.9809518  43.6222512  20.6889061  98.1300308
  42.7139389  20.6204469  97.8359069  43.5710107  21.1661006  98.9582134
  37.4439256  22.1647199  89.7683707  37.3238881  22.6104250  90.6069188
  36.7491844  22.5132517  89.2097245  31.0346660  24.2653591  97.3183364
  31.1639042  24.5188070  98.2322776  30.3544112  24.8581299  96.9988019
  35.2046148  34.9350841  93.4173839  35.1270177  35.8858666  93.4962319
  34.6007791  34.5896714  94.0748765  37.6963377  22.1078707 106.0735205
  36.9196711  22.6672627 106.0638070  38.3353940  22.5935490 106.5950076
  45.4884158  18.8905499  99.9078182  44.8458538  19.1838033  99.2617977
  44.9839087  18.7758420 100.7131379  43.1424322  22.6368673  90.5964041
  44.0542178  22.8696059  90.4211739  42.6333969  23.2205717  90.0339120
  35.9509750  24.9164160 105.6353172  36.6924434  25.4549204 105.3587996
  35.2446735  25.5430449 105.7924724  41.4265089  27.0593300 104.2325334
  41.8348445  26.6175711 103.4879966  40.7042351  26.4845928 104.4859527
  37.7796159  21.9965907 101.6058891  38.6257355  22.4205321 101.7493540
  37.7194797  21.3399531 102.2997454  41.7493904  27.6194491  97.9877623
  41.1202766  27.7840205  97.2853691  41.3619566  28.0336101  98.7588587
  45.6283136  28.5548929  95.3421987  44.9434174  28.9347830  94.7919020
  45.7126985  29.1644256  96.0753934  40.9295605  19.6570276 103.2640065
  40.6856537  20.4112336 102.7274340  41.2055535  20.0355623 104.0987312
  42.8834068  26.2008888 101.9417330  43.0950963  26.8440648 101.2651711
  42.8363816  25.3671204 101.4739260  40.4860296  18.8126709  98.8453902
  39.6244776  19.1107962  99.1370640  40.5122731  19.0297107  97.9134935
  37.3021866  27.3568899  95.2527708  37.7660211  27.6356602  94.4632330
  37.0378664  26.4552344  95.0700799  34.1945947  26.9040381  98.1907471
  34.7647304  27.3327649  97.5524956  34.7854059  26.6222965  98.8891657
  36.2390752  23.4792051  92.0617273  36.9414795  23.9313095  92.5291199
  35.9071380  22.8375870  92.6897166  34.6871113  22.0703808 106.4368482
  34.0569774  22.7520089 106.6703879  34.5807201  21.9586890 105.4921621
  29.9816086  21.7375604  97.3634407  29.1915140  21.9933133  96.8874517
  30.4727333  22.5523942  97.4686447  43.9979895  29.0780843 100.1139687
  44.8197339  28.6761031  99.8322369  43.9942298  28.9749077 101.0655803
  31.9330831  22.1020183  94.3217883  31.1361995  22.2138878  94.8401379
  31.7056423  22.4406836  93.4558774  37.7636499  28.6264887 102.2700398
  37.8280931  29.0885294 103.1058570  37.0547423  27.9962252 102.3982708
  28.2653789  21.9906095  99.7949397  28.5161827  22.8753105 100.0606973
  28.8013337  21.8110696  99.0224489  52.0885889  25.4219592  96.4624659
  51.3349597  24.8526990  96.3068663  52.2233430  25.3882256  97.4095294
  37.4784517  30.2932994  92.1379378  37.3430191  31.1384530  92.5664226
  38.0194329  30.4952272  91.3745312  33.9651856  16.3724574 108.7993734
  33.5718802  15.8190773 109.4741378  34.7817997  16.6835152 109.1900251
  30.9313914  27.8108432  92.7107303  31.4438435  28.6051682  92.8612868
  31.5836627  27.1134723  92.6440905  32.7408799  30.9274188  94.7930057
  32.9175427  31.8492153  94.6051040  33.5365632  30.6132608  95.2224436
  36.8819817  17.7882453 106.3913990  37.6229531  18.3889606 106.3118453
  37.1137740  17.0460091 105.8332033  32.0261155  22.9738820 104.6692220
  31.9114670  22.0724078 104.9699319  31.1705673  23.2202517 104.3177036
  39.1052993  30.9156561 106.2679720  38.6616847  30.1292939 105.9500625
  39.7670207  31.1035711 105.6023611  33.8640114  32.4452362 100.7940399
  34.4147539  32.3169426 100.0217393  33.0251590  32.7447251 100.4435292
  41.2034231  31.1959361 104.2961122  41.1852706  32.0168242 103.8041391
  42.1254151  31.0713436 104.5211263  37.6607285  28.7103490 105.1384630
  38.1935622  27.9491778 104.9083938  37.1321366  28.4177142 105.8808785
  40.8276980  13.8163556 100.6678272  40.4841250  14.7065198 100.5917382
  41.1955943  13.6265214  99.8047857  28.8962831  26.1397086  93.4866874
  29.7338053  26.5494095  93.2700582  29.0741098  25.1996529  93.4567068
  40.7927263  23.8072167  89.1750707  40.2773886  24.5776772  89.4139094
  40.5204571  23.1337303  89.7983768  38.3774374  18.6521868  94.2335945
  37.5215970  18.2628718  94.0541584  38.7901326  18.7313829  93.3735731
  39.9073521  16.1868211  98.6327505  39.4038316  16.1498346  97.8195310
  40.2004127  17.0960954  98.6924162  36.1516406  16.2706941  97.6393687
  37.0169403  16.0749750  97.2799576  36.2193915  16.0417293  98.5663044
  45.7661537  26.5604522  91.1103880  44.9890980  26.2215681  90.6659042
  46.4453018  26.5657145  90.4358845  40.5813566  21.6799259  91.0010488
  40.2763702  21.9945408  91.8520631  41.5344008  21.7580679  91.0437821
  39.0259998  27.8389483  92.6503442  38.4981359  27.1042242  92.3376680
  38.5247501  28.6164159  92.4043410  44.0052844  26.0338503  97.7670488
  43.3476518  26.7237764  97.8550617  44.8093243  26.4234935  98.1104475
  33.7578725  18.5009149  95.0110054  34.3322477  18.2784330  94.2783247
  34.3449708  18.5697843  95.7638655  42.8158303  24.3882876  95.8174430
  43.3290184  25.0212868  96.3196140  43.4659527  23.7884071  95.4517790
  34.0848313  20.5313610  89.0305939  33.2485625  20.8688296  89.3515214
  33.9453082  20.3962590  88.0933076  36.0601393  15.3750398  93.7385123
  35.4065806  15.0599415  93.1141738  36.0181867  14.7526138  94.4644946
  37.1712598  25.6569693  85.6538415  36.2639660  25.4258946  85.8529564
  37.6683630  24.8607312  85.8412397  40.0780677  34.3667200  88.5735101
  39.4042376  34.6698897  89.1820059  40.4646499  35.1696280  88.2240558
  39.2939134  21.8632331  98.0632771  38.3761695  22.0847278  97.9054459
  39.7099277  21.9378642  97.2044478  40.0774181  23.2623747  93.1935451
  40.8246000  23.7745144  92.8842573  40.3465771  22.9407800  94.0539844
  38.3500831  25.7582288  90.1762405  37.4412051  25.4741320  90.2734875
  38.3795915  26.1781366  89.3165712  43.5820099  29.3688877  93.9453573
  43.1282426  28.5279787  94.0018763  42.9514066  30.0050276  94.2828353
  42.5253018  20.2980863  95.1754240  41.7875775  19.7858249  95.5064483
  42.7779792  19.8581245  94.3637517  42.0253038  31.2065374  94.8803391
  42.3176013  31.7670431  94.1615757  42.5351659  31.4993935  95.6356550
  42.6264646  13.0757115  95.7696009  42.9323523  12.2154479  95.4821925
  43.3517251  13.6674735  95.5695003  28.9189002  23.4787802  94.1577607
  28.7213402  22.8857162  93.4328674  28.3635666  23.1740012  94.8753546
  36.8985726  23.3710908  96.2772201  36.9534335  22.4184745  96.2014677
  36.0876928  23.5270347  96.7613499  38.0476919  27.2991031  87.5150484
  37.6096349  26.5826890  87.0556121  38.7887360  27.5267146  86.9535575
  34.8378085  21.9887968  94.0362579  34.0245951  22.2882139  94.4427772
  35.3337080  21.5943657  94.7537062  36.9886663  31.9845725  95.9696844
  36.9462842  32.2106571  95.0405376  37.9049362  31.7509100  96.1182645
  40.4352297  22.4529792 102.8677473  40.7901685  22.6801266 103.7271939
  41.0824428  22.7848169 102.2454729  46.1650034  25.5748228  93.5726802
  46.0267933  25.7649824  92.6447992  45.8086253  26.3367611  94.0294853
  34.3292160  19.5606324  99.6523814  34.9691540  19.4195083  98.9546778
  33.4969691  19.2740837  99.2762416  46.1919414  27.6424755  98.5838074
  46.6255920  27.5500044  99.4321128  46.9050994  27.6182256  97.9458090
  35.1052464  28.8608754  95.7658807  35.8993063  28.3659074  95.5641382
  34.3944157  28.3326617  95.4026512  39.9247309  31.2426849 100.1171174
  39.9784331  31.8117786 100.8848890  39.0562090  31.4128734  99.7525212
  31.4135228  23.0051836  91.8418559  30.4832816  22.9436291  92.0588522
  31.5092700  22.4827788  91.0455201  31.3320777  19.5306648  94.4296801
  31.5927594  20.4451982  94.3205962  32.1537949  19.0631091  94.5793414
  32.8045702  20.9444406 101.5995626  33.4768755  20.7361768 100.9508275
  31.9775489  20.7466492 101.1600858  47.0534963  27.6848456 101.1170959
  47.2470853  28.5894267 101.3630234  46.9535581  27.2255875 101.9509544
  38.7071274  17.5706347 103.6161287  38.0599189  18.2696296 103.5225763
  39.4772289  18.0042491 103.9837535  42.1150072  27.8355199 106.6911840
  41.9635578  27.6065750 105.7741924  42.1054751  28.7925800 106.7043185
  38.8835408  25.4087111 101.6758106  39.8127468  25.5598271 101.5027074
  38.4626438  25.4971132 100.8206753  37.6823740  29.4337776  99.4456644
  37.5434826  29.0656560 100.3182582  36.8938336  29.9485415  99.2740602
  38.2771892  34.5346872  90.7882180  38.4523648  34.0634916  91.6027803
  37.5904680  35.1612639  91.0163441  39.2328955  28.8119379  96.8345482
  38.8978788  28.7720149  97.7303132  38.7332901  28.1464095  96.3615892
  33.2073199  24.2187009 102.3598063  33.0692997  23.4867247 102.9609602
  34.1178123  24.1295909 102.0782251  42.1688147  26.1575413  87.1082541
  41.5517318  25.4322241  87.0115594  41.7004635  26.9184773  86.7649616
  35.8355500  23.9306968 101.8481743  36.5455118  23.2900160 101.8068361
  35.7924808  24.1819863 102.7707923  43.8242279  30.8674321 104.7688322
  43.7654825  30.1833541 104.1018905  44.2261797  31.6093311 104.3168948
  34.5484434  20.9172186 103.6677382  34.0121791  20.4662924 104.3198978
  33.9601142  21.0518095 102.9247846  32.8432977  37.6836235  97.5622041
  33.0829576  38.3154759  98.2401059  32.0002174  37.3324275  97.8487400
  33.9586693  20.3760837  86.2303846  33.0816159  20.2549638  85.8666092
  34.4344446  19.5846916  85.9782734  43.8259686  28.8313905 103.0002301
  42.9386465  28.4939827 103.1228700  44.3958237  28.0996936 103.2371067
  25.4788833  25.1637997  96.3245353  26.1659873  24.8499727  95.7366368
  25.3236962  26.0679362  96.0512604  30.2823555  20.0528194 100.7530376
  30.1981744  19.4453863 100.0180786  29.4606262  20.5437212 100.7539873
  37.3560839  33.4915358  99.9663545  37.2831011  34.2970329 100.4782849
  36.9138232  33.6907323  99.1411566  37.1450619  32.7287128  93.4766366
  36.3618141  33.2708808  93.5704591  37.8443364  33.2461107  93.8760607
  40.4547269  18.5381757  96.1200572  40.9515969  17.7851719  95.8001642
  39.6834250  18.5746074  95.5543781  48.3077026  24.2422123  97.7618863
  48.2966903  25.1246838  97.3912796  47.4394406  23.8893673  97.5673400
  39.8159523  33.3902192 102.1221703  40.5287495  34.0249656 102.0497605
  39.3249551  33.4866058 101.3061705  41.5377050  27.2953444  93.6938995
  40.6033328  27.4154907  93.5243699  41.7153718  26.3925911  93.4299005
  37.0382238  20.6799140  95.8472256  36.6680025  20.1270180  96.5353162
  37.5341330  20.0757274  95.2947256  44.9249601  23.1370764  94.2289029
  45.3910053  23.9698755  94.1549332  45.3757102  22.6715745  94.9334288
  34.8671436  31.1396635 102.9427274  35.5680896  31.7733118 103.0956668
  34.3966551  31.4811367 102.1822913  42.9925832  29.4814585  91.2275181
  43.2685676  29.3671179  92.1369055  42.1230331  29.0832070  91.1887354
  42.8966264  15.5051351  98.2679930  41.9829344  15.7355577  98.4362137
  43.3259365  15.5889795  99.1193963  42.6672722  23.6941243 100.7679824
  42.0144172  23.9417150 100.1132277  43.0453102  22.8805381 100.4342302
  39.6279896  33.7300936  94.8707995  39.8102291  32.9122592  95.3335747
  40.4512882  33.9468628  94.4332885  39.9622062  32.6569121  92.1323043
  40.4909828  32.1461575  91.5193205  40.2250281  32.3411651  92.9968576
  38.7160295  24.4361054 107.2545862  38.0400932  24.3355183 107.9248237
  39.5387929  24.2800267 107.7181859  30.4639154  30.6732990  99.8758377
  31.0492591  29.9276678 100.0086281  30.2663993  30.9836947 100.7595041
  33.3177810  33.7084238  94.8920819  32.6488185  34.1930365  94.4084859
  33.1790679  33.9553458  95.8064198  25.0556809  23.2438590  98.5962820
  25.0940909  22.7102181  99.3899938  24.5497102  22.7173796  97.9773797
  37.4583078  35.7427981 101.4903478  38.0101386  35.9059603 102.2552563
  37.7989272  36.3332419 100.8183502  32.4347571  18.0903131 102.0925362
  32.4988898  18.9517962 101.6802760  32.3714692  17.4777132 101.3597721
  31.9099844  20.1626263 105.7398396  32.5371883  19.7803341 106.3535921
  31.0527763  19.9440465 106.1054089  42.3093952  30.5689239 107.3452132
  42.8533856  31.1819197 106.8507087  41.7280797  31.1268817 107.8619145
  28.6865387  21.9702692  91.6716751  28.9818828  21.0613371  91.6183805
  27.7853422  21.9490432  91.3497754  40.5951465  33.6909957  98.4767160
  40.4702605  32.8899696  97.9678105  41.2530557  34.1856150  97.9881130
  32.2159634  20.0458689  97.6544300  31.4946219  20.6594657  97.5151773
  33.0052889  20.5816454  97.5760946  42.6586374  31.4918977 100.1046710
  41.7116709  31.3724328 100.0325036  43.0069147  30.6041475 100.1872971
  35.0185947  17.3813116 103.9284952  35.5420349  17.6275412 104.6911261
  34.7998280  18.2133150 103.5088089  30.4153228  19.6516790  91.7956076
  30.0865934  18.7714169  91.6131182  30.7692599  19.5964459  92.6832466
  39.6632807  31.2871693  96.3051062  39.5157770  30.3588400  96.4858632
  40.4886301  31.3091784  95.8208137  33.5295051  19.9389760  92.1631554
  33.8691124  20.4675681  91.4410162  33.9767172  20.2770166  92.9390121
  43.2666929  32.1100252  97.3915935  44.1913476  31.9043113  97.2540386
  43.0982232  31.8616653  98.3005276  36.2238492  18.3226811 101.6134622
  35.8835313  17.5234624 102.0155302  35.5177499  18.6228522 101.0411455
  36.8754964  15.4076123 100.0661945  37.6981033  14.9336601  99.9440836
  37.1193028  16.1866607 100.5660631  35.5163199  18.4364382  90.3624847
  36.2371561  18.8145634  89.8588564  34.8928503  19.1553258  90.4659825
  39.6594321  19.1409531  91.2983179  39.8757936  20.0234168  90.9972007
  39.1788389  18.7495744  90.5688821  34.3993543  22.0995244  97.8753924
  34.2538124  22.4135547  98.7678205  33.9218746  22.7180144  97.3224822
  36.2589926  19.0897792  97.9234813  36.2451494  18.1938885  97.5867111
  36.9762354  19.0968455  98.5573099  38.1116056  19.5235132  99.9687941
  37.8533834  20.4452203  99.9672271  37.5801097  19.1265566 100.6588405
  43.0562245  32.6285919  92.7478026  43.2299123  32.0632342  91.9951879
  43.5491136  33.4286814  92.5657516  28.8739205  24.6400588 100.8141585
  28.3292673  25.4160396 100.9461859  29.7518555  24.9871393 100.6560706
  35.6626822  17.9712172  93.1922383  35.7842733  17.0428818  93.3913271
  35.3728864  17.9850858  92.2800699  38.5318012  15.6567082  96.3289103
  38.5539709  15.7206416  95.3741083  38.9486071  14.8171591  96.5229610
  48.9101636  25.3922342  94.3668326  49.3532782  24.6429667  93.9687449
  48.0328147  25.3832478  93.9842058  44.0437418  31.9452683  89.8474924
  44.7388322  32.5659376  90.0662239  44.3860568  31.0948035  90.1227302
  29.6605227  23.7670484 103.7071742  28.9186963  23.9153120 104.2936372
  29.3397971  24.0278750 102.8438491  45.9428841  29.3952389  91.3762255
  46.4680165  29.7339662  90.6511575  45.8551193  28.4599404  91.1925390
  37.6048889  33.3086463 103.5052132  37.9136016  33.0635609 104.3774831
  38.4024372  33.5133101 103.0171002  37.6269502  35.4624372  95.7357508
  37.1874492  34.9700751  96.4290365  38.3777618  34.9197340  95.4949584
  30.1061841  31.6535913  95.7382136  30.9319860  31.3539685  95.3580780
  29.7555893  30.8843536  96.1871925  35.0743374  31.0062381  97.8079810
  34.4523383  30.3433086  97.5082038  35.7448241  31.0323513  97.1253458
  28.3070446  29.5722240  96.6971070  27.4702354  29.1444414  96.5155071
  28.2794091  29.7654683  97.6341861  35.1467901  19.4844169 107.4012316
  35.1956057  20.3606292 107.0190086  35.6890415  18.9421562 106.8283959
  45.6322747  30.0285293 106.6813453  44.8418291  30.0109431 106.1417953
  45.3956101  30.5673586 107.4362490  45.7520622  26.8777759 103.9946182
  45.8018627  26.7127766 104.9361705  45.6434545  26.0105018 103.6044062
  34.6356881  29.5566305  91.2838271  34.7845001  30.2401769  90.6304943
  35.4423324  29.5371395  91.7987726  43.0424384  22.8608687 105.3105488
  43.9434247  22.7215152 105.0189486  43.1172359  23.0263142 106.2503666
  37.3767190  20.2375542 104.1558675  36.5070499  20.5309108 103.8841263
  37.6126670  20.8215987 104.8765938  47.2538819  29.2974701 104.2388203
  46.9623627  29.6604681 105.0751664  46.6410950  28.5841709 104.0601535
  48.4534501  26.8627580  96.7590773  49.2881392  27.3017384  96.9228334
  48.5893630  26.3866234  95.9399019  45.5026007  24.4207315 102.7068261
  45.9780129  24.6134961 101.8987113  44.5791572  24.4766501 102.4611645
  32.3909514  25.5831482  92.2899340  32.1455556  24.6793812  92.4879550
  32.5605428  25.5848633  91.3478818  40.0806223  16.4555159 101.6724095
  40.5988167  17.1916186 101.3470584  39.7261356  16.7619152 102.5070854
  31.6605161  21.3159840  89.7885501  30.9674406  21.3904195  89.1325537
  31.4156913  20.5520184  90.3107018  40.3318818  12.8755441  97.1924992
  40.6120571  12.2078630  97.8185418  41.1169425  13.0684537  96.6799656
  38.1352286  32.0514435  88.7550018  37.5626253  32.6704622  88.3020490
  38.7085080  32.6013797  89.2889940  44.2027676  21.2973075 100.9396567
  45.1545099  21.3971173 100.9608791  44.0331126  20.5051344 101.4494651
  42.2242055  18.3828658 101.1255968  41.6291988  18.6633671 100.4302456
  41.9391752  18.8722559 101.8972709  41.3549546  32.3351585  89.8858600
  42.2880219  32.2697147  90.0891476  41.2672759  33.1707852  89.4273133
  43.9837563  31.6517456  86.8462548  43.9051194  31.3177319  87.7398306
  44.8047229  32.1439224  86.8454020  46.6815754  24.5179195 100.0538866
  46.6492074  23.5795196 100.2398550  47.2916377  24.5963232  99.3204691
  38.5199085  23.3875248  86.0966071  39.4658189  23.2581456  86.1654489
  38.1413330  22.6489910  86.5735499  46.8310242  21.3090238 100.0997150
  46.3149291  20.5248695  99.9127079  47.7150191  20.9808955 100.2643669
  44.4920969  15.0531254  96.0592962  44.2945790  14.7446342  96.9436294
  45.1020675  15.7792893  96.1890892  52.4992304  25.5795202  99.1944903
  53.2295692  25.3180490  99.7552607  51.8899249  24.8423924  99.2346971
  50.5807601  23.7203064  99.7919354  49.8540764  23.5859029  99.1835846
  50.1654888  24.0279893 100.5976073  38.4037777  27.4392994 107.5566728
  39.3240787  27.6171593 107.7506774  38.3687360  26.4949039 107.4046427
  36.7042002  21.3125224  86.0320956  35.7973457  21.0158337  86.1083669
  36.9817983  21.0155042  85.1655242  27.6219942  22.6331588  96.4820002
  27.3022726  21.7796896  96.1894376  27.0753370  22.8480166  97.2377969
  31.3999850  25.3494029 100.1989509  31.6185859  26.2811136 100.2177542
  31.8125624  24.9902003 100.9844313  38.3204067  15.8562114  92.1865197
  37.5104796  15.5109199  92.5620443  39.0088484  15.5469658  92.7752809
  40.2494616  14.9340161  93.8089494  40.8025654  15.3535614  94.4679517
  40.4864702  14.0075909  93.8512450  36.2727715  20.9227234 109.5892258
  36.1724442  21.8721591 109.5204349  36.0549257  20.5945473 108.7168328
  35.4740786  18.1712160  86.1732935  36.3359950  18.4967058  86.4328752
  35.6591131  17.3843655  85.6606001  27.4908202  26.2534499  98.4513124
  26.7971674  25.8388452  97.9383078  28.2381193  26.2955036  97.8546543
  43.6273423  17.0440686  93.3168158  43.0472092  17.7025490  92.9346210
  43.3609356  16.2218031  92.9055575  42.0776989  16.4445744  95.5189478
  42.5776768  16.5562278  94.7103797  42.7212597  16.1406797  96.1590287
  36.1358985  24.3524373 108.4057319  35.6526067  25.1524733 108.6121208
  36.2219924  24.3632318 107.4524763  29.4044945  26.1852753  96.3279139
  29.3815633  26.2840440  95.3761022  29.7145581  27.0317904  96.6496305
  32.0632323  28.2428908 100.4425753  33.0175576  28.2112850 100.3755685
  31.8644846  27.7819532 101.2575979  32.6531705  26.8130024 103.0096551
  33.4724594  27.3074103 103.0331388  32.9268512  25.8961992 102.9814118
  42.4098301  19.2040776  92.3724506  41.5224156  19.4890427  92.1544701
  42.8252290  19.0434540  91.5251783  45.7612837  19.2287297  96.0878845
  46.5373227  19.7183750  96.3603462  45.0360971  19.6545352  96.5450715
  48.1985396  19.9414917  97.1452786  48.7929886  19.7010653  96.4346094
  48.2711979  19.2222047  97.7726322  30.4182551  33.7848527  97.4595951
  30.2837019  33.0248928  96.8933949  30.0014614  34.5089427  96.9924740
  41.5541514  28.9685451  86.4672526  42.2577364  29.1735454  87.0830182
  40.8304163  29.5362213  86.7321610  42.3839325  24.7195312  92.5874796
  42.3274526  25.1763864  91.7482429  42.9367667  23.9585997  92.4097639
  46.1944131  20.5085044  93.4124916  45.9381065  20.1081680  94.2433124
  45.5696999  21.2228838  93.2875055  50.5056468  23.2481117  95.9196207
  49.9456026  23.3174307  96.6927769  49.8999972  23.0722102  95.1995704
  33.5751677  34.6817845  97.6714394  33.4584061  35.6263277  97.5693084
  32.7544123  34.3791406  98.0600193  43.4628212  29.4067980  88.5170986
  44.2973816  28.9749179  88.3348461  43.3012555  29.2349994  89.4447881
  43.1174104  25.9100094  89.8827326  43.0622908  25.7444365  88.9415770
  42.4920159  26.6176126  90.0389515  27.9066619  21.1468158 103.7088748
  28.5525483  20.6367112 104.1975973  27.6983770  21.8836840 104.2832173
  40.4320011  28.2149005 109.2080888  41.3011171  28.3889658 108.8467523
  39.9526763  29.0343422 109.0856618  36.4270229  15.4108203  89.4612644
  36.4148899  16.3550042  89.6180915  37.3193651  15.2278348  89.1672105
  34.6006191  35.3346106 100.8870322  35.5033438  35.3669717 101.2036817
  34.3743561  34.4046557 100.9016658  36.3559793  34.0877093  97.5480401
  35.4055424  34.0878955  97.4344773  36.6592280  33.3409828  97.0316435
  40.2422349  12.0050979  93.7158581  39.4754745  11.4509466  93.8615263
  40.6533054  12.0772848  94.5772732  32.2464110  18.2935775 107.8063762
  33.1095571  17.9372580 108.0167087  31.6729521  17.9549670 108.4939166
  44.7589009  41.7300536  94.5384579  44.1953874  41.6390473  93.7700866
  44.6441404  40.9100440  95.0187071  49.3821976  41.0299911 104.5073893
  49.3710617  40.6352709 103.6354397  49.5442616  40.2965984 105.1007665
  42.3053441  43.2251727  97.3768799  43.0974733  42.8842552  96.9615098
  42.5450091  43.3346702  98.2970952  44.2644195  42.4860641  90.2486178
  45.0375071  41.9389628  90.1099054  44.6169594  43.3504890  90.4600639
  46.1029237  43.8137023 103.4553077  45.8119103  44.7182654 103.3399744
  46.7386222  43.8553551 104.1697147  46.6010473  38.6453307  87.8804628
  46.8535993  38.1234828  87.1188091  45.6635032  38.4819452  87.9831311
  51.6453755  37.6489085  95.6879371  52.4316845  37.2308508  95.3369788
  51.9092460  38.5535177  95.8561019  57.0462182  37.5864318  96.5912350
  57.7787354  37.0163535  96.8250179  56.2901538  37.1985919  97.0318855
  46.3206761  40.5481413  90.0829003  46.2043019  39.8726316  90.7510087
  46.4309021  40.0613787  89.2661156  54.5687603  31.2985892 101.0506958
  54.2370928  32.1681303 100.8268173  53.9733216  30.9822176 101.7300989
  48.3043789  35.0381460  88.7837041  48.4718192  35.9061696  89.1507512
  48.1140958  35.2008741  87.8598330  44.5131604  39.9512235  96.4839575
  43.5882100  39.8188449  96.6917267  44.7616017  40.7306455  96.9809518
  54.4616266  36.0180979  98.1300308  53.5533143  35.9496387  97.8359069
  54.4103862  36.4952924  98.9582134  41.8740415  39.5945509  97.3183364
  42.0032796  39.8479988  98.2322776  41.1937866  40.1873217  96.9988019
  48.5357132  37.4370624 106.0735205  47.7590466  37.9964544 106.0638070
  49.1747695  37.9227407 106.5950076  56.3277913  34.2197417  99.9078182
  55.6852293  34.5129950  99.2617977  55.8232841  34.1050337 100.7131379
  46.7903504  40.2456078 105.6353172  47.5318189  40.7841122 105.3587996
  46.0840490  40.8722366 105.7924724  52.2658844  42.3885218 104.2325334
  52.6742200  41.9467629 103.4879966  51.5436105  41.8137846 104.4859527
  48.6189914  37.3257825 101.6058891  49.4651109  37.7497238 101.7493540
  48.5588552  36.6691449 102.2997454  51.7689359  34.9862193 103.2640065
  51.5250291  35.7404254 102.7274340  52.0449290  35.3647541 104.0987312
  53.7227822  41.5300806 101.9417330  53.9344717  42.1732565 101.2651711
  53.6757570  40.6963122 101.4739260  51.3254051  34.1418626  98.8453902
  50.4638530  34.4399880  99.1370640  51.3516486  34.3589025  97.9134935
  45.0339701  42.2332298  98.1907471  45.6041059  42.6619567  97.5524956
  45.6247813  41.9514883  98.8891657  47.0784506  38.8083969  92.0617273
  47.7808550  39.2605013  92.5291199  46.7465135  38.1667788  92.6897166
  45.5264868  37.3995726 106.4368482  44.8963529  38.0812007 106.6703879
  45.4200956  37.2878807 105.4921621  40.8209840  37.0667522  97.3634407
  40.0308894  37.3225050  96.8874517  41.3121088  37.8815860  97.4686447
  54.8373650  44.4072761 100.1139687  55.6591094  44.0052948  99.8322369
  54.8336053  44.3040995 101.0655803  42.7724586  37.4312101  94.3217883
  41.9755749  37.5430795  94.8401379  42.5450178  37.7698753  93.4558774
  48.6030253  43.9556804 102.2700398  48.6674686  44.4177212 103.1058570
  47.8941177  43.3254169 102.3982708  39.1047543  37.3198012  99.7949397
  39.3555582  38.2045022 100.0606973  39.6407092  37.1402614  99.0224489
  44.8045611  31.7016492 108.7993734  44.4112556  31.1482690 109.4741378
  45.6211751  32.0127070 109.1900251  41.7707668  43.1400350  92.7107303
  42.2832189  43.9343600  92.8612868  42.4230381  42.4426640  92.6440905
  47.7213572  33.1174371 106.3913990  48.4623285  33.7181524 106.3118453
  47.9531495  32.3752009 105.8332033  42.8654910  38.3030738 104.6692220
  42.7508425  37.4015995 104.9699319  42.0099427  38.5494435 104.3177036
  49.9446747  46.2448478 106.2679720  49.5010602  45.4584857 105.9500625
  50.6063961  46.4327629 105.6023611  44.7033869  47.7744280 100.7940399
  45.2541294  47.6461343 100.0217393  43.8645345  48.0739169 100.4435292
  52.0427986  46.5251278 104.2961122  52.0246461  47.3460159 103.8041391
  52.9647906  46.4005353 104.5211263  48.5001040  44.0395408 105.1384630
  49.0329376  43.2783696 104.9083938  47.9715121  43.7469060 105.8808785
  51.6670735  29.1455474 100.6678272  51.3235004  30.0357115 100.5917382
  52.0349697  28.9557131  99.8047857  39.7356585  41.4689004  93.4866874
  40.5731807  41.8786012  93.2700582  39.9134853  40.5288446  93.4567068
  49.2168128  33.9813786  94.2335945  48.3609725  33.5920636  94.0541584
  49.6295080  34.0605746  93.3735731  50.7467275  31.5160129  98.6327505
  50.2432071  31.4790264  97.8195310  51.0397882  32.4252872  98.6924162
  46.9910161  31.5998859  97.6393687  47.8563158  31.4041667  97.2799576
  47.0587670  31.3709210  98.5663044  44.5972480  33.8301066  95.0110054
  45.1716232  33.6076248  94.2783247  45.1843462  33.8989761  95.7638655
  44.9242067  35.8605527  89.0305939  44.0879379  36.1980214  89.3515214
  44.7846837  35.7254507  88.0933076  46.8995148  30.7042315  93.7385123
  46.2459560  30.3891333  93.1141738  46.8575622  30.0818056  94.4644946
  50.1332888  37.1924249  98.0632771  49.2155449  37.4139196  97.9054459
  50.5493032  37.2670559  97.2044478  53.3646773  35.6272781  95.1754240
  52.6269530  35.1150167  95.5064483  53.6173547  35.1873162  94.3637517
  53.4658400  28.4049033  95.7696009  53.7717277  27.5446396  95.4821925
  54.1911005  28.9966653  95.5695003  39.7582756  38.8079719  94.1577607
  39.5607156  38.2149080  93.4328674  39.2029420  38.5031930  94.8753546
  47.7379480  38.7002826  96.2772201  47.7928090  37.7476662  96.2014677
  46.9270682  38.8562265  96.7613499  45.6771840  37.3179886  94.0362579
  44.8639705  37.6174056  94.4427772  46.1730834  36.9235574  94.7537062
  51.2746052  37.7821710 102.8677473  51.6295439  38.0093183 103.7271939
  51.9218183  38.1140087 102.2454729  45.1685915  34.8898241  99.6523814
  45.8085294  34.7487000  98.9546778  44.3363445  34.6032755  99.2762416
  57.0313168  42.9716673  98.5838074  57.4649675  42.8791962  99.4321128
  57.7444749  42.9474173  97.9458090  42.2528982  38.3343753  91.8418559
  41.3226570  38.2728209  92.0588522  42.3486454  37.8119706  91.0455201
  42.1714531  34.8598566  94.4296801  42.4321348  35.7743899  94.3205962
  42.9931703  34.3923009  94.5793414  43.6439456  36.2736323 101.5995626
  44.3162510  36.0653685 100.9508275  42.8169243  36.0758409 101.1600858
  57.8928718  43.0140374 101.1170959  58.0864608  43.9186184 101.3630234
  57.7929336  42.5547793 101.9509544  49.5465028  32.8998264 103.6161287
  48.8992944  33.5988214 103.5225763  50.3166044  33.3334408 103.9837535
  52.9543826  43.1647116 106.6911840  52.8029333  42.9357668 105.7741924
  52.9448506  44.1217718 106.7043185  49.7229163  40.7379029 101.6758106
  50.6521223  40.8890189 101.5027074  49.3020193  40.8263050 100.8206753
  44.0466954  39.5478926 102.3598063  43.9086752  38.8159165 102.9609602
  44.9571877  39.4587826 102.0782251  46.6749254  39.2598886 101.8481743
  47.3848873  38.6192078 101.8068361  46.6318563  39.5111780 102.7707923
  54.6636033  46.1966239 104.7688322  54.6048579  45.5125459 104.1018905
  55.0655551  46.9385229 104.3168948  45.3878188  36.2464104 103.6677382
  44.8515545  35.7954842 104.3198978  44.7994897  36.3810012 102.9247846
  44.7980447  35.7052755  86.2303846  43.9209914  35.5841556  85.8666092
  45.2738200  34.9138833  85.9782734  54.6653440  44.1605823 103.0002301
  53.7780219  43.8231745 103.1228700  55.2351991  43.4288854 103.2371067
  36.3182587  40.4929915  96.3245353  37.0053627  40.1791645  95.7366368
  36.1630716  41.3971279  96.0512604  41.1217310  35.3820111 100.7530376
  41.0375498  34.7745781 100.0180786  40.3000016  35.8729130 100.7539873
  51.2941023  33.8673675  96.1200572  51.7909723  33.1143637  95.8001642
  50.5228005  33.9037991  95.5543781  59.1470781  39.5714040  97.7618863
  59.1360657  40.4538756  97.3912796  58.2788160  39.2185591  97.5673400
  50.6553277  48.7194109 102.1221703  51.3681249  49.3541574 102.0497605
  50.1643306  48.8157975 101.3061705  47.8775992  36.0091058  95.8472256
  47.5073780  35.4562098  96.5353162  48.3735085  35.4049191  95.2947256
  55.7643356  38.4662681  94.2289029  56.2303808  39.2990673  94.1549332
  56.2150856  38.0007663  94.9334288  45.7065191  46.4688553 102.9427274
  46.4074650  47.1025036 103.0956668  45.2360306  46.8103284 102.1822913
  53.7360018  30.8343268  98.2679930  52.8223098  31.0647495  98.4362137
  54.1653120  30.9181712  99.1193963  53.5066477  39.0233160 100.7679824
  52.8537927  39.2709068 100.1132277  53.8846857  38.2097298 100.4342302
  49.5554050  39.7652971 107.2545862  48.8794687  39.6647101 107.9248237
  50.3781684  39.6092185 107.7181859  41.3032909  46.0024908  99.8758377
  41.8886346  45.2568596 100.0086281  41.1057747  46.3128865 100.7595041
  35.8950564  38.5730508  98.5962820  35.9334663  38.0394099  99.3899938
  35.3890856  38.0465714  97.9773797  43.2741326  33.4195049 102.0925362
  43.3382652  34.2809879 101.6802760  43.2108446  32.8069050 101.3597721
  42.7493598  35.4918181 105.7398396  43.3765637  35.1095258 106.3535921
  41.8921517  35.2732383 106.1054089  53.1487707  45.8981156 107.3452132
  53.6927611  46.5111115 106.8507087  52.5674552  46.4560735 107.8619145
  39.5259141  37.2994610  91.6716751  39.8212582  36.3905289  91.6183805
  38.6247177  37.2782350  91.3497754  43.0553388  35.3750607  97.6544300
  42.3339974  35.9886574  97.5151773  43.8446644  35.9108372  97.5760946
  45.8579702  32.7105033 103.9284952  46.3814103  32.9567330 104.6911261
  45.6392035  33.5425068 103.5088089  41.2546983  34.9808708  91.7956076
  40.9259689  34.1006087  91.6131182  41.6086353  34.9256377  92.6832466
  44.3688806  35.2681678  92.1631554  44.7084878  35.7967599  91.4410162
  44.8160926  35.6062084  92.9390121  47.0632247  33.6518728 101.6134622
  46.7229067  32.8526541 102.0155302  46.3571253  33.9520439 101.0411455
  47.7148719  30.7368041 100.0661945  48.5374788  30.2628519  99.9440836
  47.9586782  31.5158525 100.5660631  46.3556953  33.7656299  90.3624847
  47.0765316  34.1437552  89.8588564  45.7322257  34.4845176  90.4659825
  50.4988076  34.4701448  91.2983179  50.7151690  35.3526086  90.9972007
  50.0182143  34.0787662  90.5688821  45.2387297  37.4287161  97.8753924
  45.0931878  37.7427464  98.7678205  44.7612501  38.0472062  97.3224822
  47.0983680  34.4189709  97.9234813  47.0845249  33.5230803  97.5867111
  47.8156108  34.4260373  98.5573099  48.9509811  34.8527050  99.9687941
  48.6927589  35.7744120  99.9672271  48.4194851  34.4557484 100.6588405
  39.7132959  39.9692506 100.8141585  39.1686428  40.7452314 100.9461859
  40.5912309  40.3163310 100.6560706  46.5020576  33.3004090  93.1922383
  46.6236487  32.3720736  93.3913271  46.2122618  33.3142776  92.2800699
  49.3711767  30.9859000  96.3289103  49.3933463  31.0498333  95.3741083
  49.7879826  30.1463509  96.5229610  40.4998981  39.0962402 103.7071742
  39.7580717  39.2445037 104.2936372  40.1791726  39.3570668 102.8438491
  48.4442644  48.6378380 103.5052132  48.7529770  48.3927527 104.3774831
  49.2418126  48.8425019 103.0171002  40.9455595  46.9827831  95.7382136
  41.7713615  46.6831603  95.3580780  40.5949647  46.2135453  96.1871925
  39.1464200  44.9014157  96.6971070  38.3096108  44.4736332  96.5155071
  39.1187845  45.0946601  97.6341861  45.9861656  34.8136087 107.4012316
  46.0349811  35.6898210 107.0190086  46.5284170  34.2713480 106.8283959
  56.4716501  45.3577210 106.6813453  55.6812045  45.3401349 106.1417953
  56.2349856  45.8965504 107.4362490  56.5914376  42.2069677 103.9946182
  56.6412381  42.0419684 104.9361705  56.4828300  41.3396936 103.6044062
  53.8818139  38.1900605 105.3105488  54.7828002  38.0507070 105.0189486
  53.9566113  38.3555060 106.2503666  48.2160944  35.5667459 104.1558675
  47.3464254  35.8601026 103.8841263  48.4520424  36.1507904 104.8765938
  58.0932573  44.6266618 104.2388203  57.8017382  44.9896599 105.0751664
  57.4804704  43.9133626 104.0601535  56.3419761  39.7499233 102.7068261
  56.8173883  39.9426879 101.8987113  55.4185327  39.8058419 102.4611645
  43.2303268  40.9123400  92.2899340  42.9849310  40.0085730  92.4879550
  43.3999183  40.9140550  91.3478818  50.9199978  31.7847076 101.6724095
  51.4381922  32.5208103 101.3470584  50.5655111  32.0911070 102.5070854
  42.4998916  36.6451758  89.7885501  41.8068161  36.7196113  89.1325537
  42.2550667  35.8812101  90.3107018  51.1712572  28.2047359  97.1924992
  51.4514326  27.5370548  97.8185418  51.9563179  28.3976455  96.6799656
  55.0421430  36.6264993 100.9396567  55.9938853  36.7263091 100.9608791
  54.8724881  35.8343261 101.4494651  53.0635810  33.7120576 101.1255968
  52.4685742  33.9925589 100.4302456  52.7785507  34.2014477 101.8972709
  57.5209508  39.8471113 100.0538866  57.4885828  38.9087113 100.2398550
  58.1310132  39.9255149  99.3204691  57.6703997  36.6382156 100.0997150
  57.1543045  35.8540613  99.9127079  58.5543945  36.3100873 100.2643669
  55.3314724  30.3823172  96.0592962  55.1339545  30.0738260  96.9436294
  55.9414429  31.1084811  96.1890892  63.3386058  40.9087119  99.1944903
  64.0689447  40.6472408  99.7552607  62.7293004  40.1715841  99.2346971
  61.4201355  39.0494982  99.7919354  60.6934519  38.9150947  99.1835846
  61.0048642  39.3571811 100.5976073  49.2431532  42.7684912 107.5566728
  50.1634541  42.9463511 107.7506774  49.2081115  41.8240957 107.4046427
  38.4613697  37.9623505  96.4820002  38.1416481  37.1088814  96.1894376
  37.9147125  38.1772084  97.2377969  42.2393604  40.6785946 100.1989509
  42.4579614  41.6103054 100.2177542  42.6519378  40.3193921 100.9844313
  49.1597822  31.1854032  92.1865197  48.3498550  30.8401117  92.5620443
  49.8482239  30.8761575  92.7752809  51.0888370  30.2632078  93.8089494
  51.6419409  30.6827532  94.4679517  51.3258457  29.3367827  93.8512450
  47.1121470  36.2519152 109.5892258  47.0118196  37.2013509 109.5204349
  46.8943012  35.9237391 108.7168328  38.3301957  41.5826417  98.4513124
  37.6365428  41.1680370  97.9383078  39.0774948  41.6246953  97.8546543
  54.4667177  32.3732604  93.3168158  53.8865846  33.0317408  92.9346210
  54.2003110  31.5509948  92.9055575  52.9170744  31.7737661  95.5189478
  53.4170522  31.8854196  94.7103797  53.5606352  31.4698714  96.1590287
  46.9752740  39.6816291 108.4057319  46.4919821  40.4816651 108.6121208
  47.0613679  39.6924236 107.4524763  40.2438699  41.5144671  96.3279139
  40.2209387  41.6132358  95.3761022  40.5539336  42.3609821  96.6496305
  42.9026077  43.5720826 100.4425753  43.8569331  43.5404768 100.3755685
  42.7038601  43.1111449 101.2575979  43.4925459  42.1421942 103.0096551
  44.3118348  42.6366020 103.0331388  43.7662267  41.2253910 102.9814118
  53.2492055  34.5332694  92.3724506  52.3617910  34.8182345  92.1544701
  53.6646044  34.3726457  91.5251783  56.6006592  34.5579215  96.0878845
  57.3766982  35.0475667  96.3603462  55.8754726  34.9837269  96.5450715
  59.0379150  35.2706834  97.1452786  59.6323641  35.0302570  96.4346094
  59.1105734  34.5513965  97.7726322  41.2576306  49.1140445  97.4595951
  41.1230774  48.3540846  96.8933949  40.8408368  49.8381345  96.9924740
  57.0337885  35.8376962  93.4124916  56.7774819  35.4373597  94.2433124
  56.4090753  36.5520756  93.2875055  61.3450223  38.5773035  95.9196207
  60.7849781  38.6466224  96.6927769  60.7393726  38.4014020  95.1995704
  38.7460373  36.4760076 103.7088748  39.3919237  35.9659030 104.1975973
  38.5377525  37.2128757 104.2832173  51.2713766  43.5440923 109.2080888
  52.1404925  43.7181575 108.8467523  50.7920517  44.3635340 109.0856618
  47.2663984  30.7400120  89.4612644  47.2542654  31.6841960  89.6180915
  48.1587406  30.5570266  89.1672105  51.0816103  27.3342897  93.7158581
  50.3148499  26.7801384  93.8615263  51.4926808  27.4064766  94.5772732
  43.0857864  33.6227693 107.8063762  43.9489326  33.2664498 108.0167087
  42.5123275  33.2841587 108.4939166  62.9306241  55.2529549  98.6126163
  63.5684651  55.1336296  97.9089503  62.8127084  56.2010393  98.6714115
  59.7395948  55.2056977  98.5487688  59.4014459  55.0898042  97.6608223
  60.6085716  54.8048142  98.5288694  60.2215731  56.3591829 104.5073893
  60.2104371  55.9644627 103.6354397  60.3836370  55.6257901 105.1007665
  57.8679199  56.5205789 100.0454437  58.4642771  56.2961812  99.3311400
  57.9254170  55.7790535 100.6479885  62.4847510  52.9781003  95.6879371
  63.2710599  52.5600426  95.3369788  62.7486214  53.8827095  95.8561019
  59.5032057  55.3383478  93.7875692  59.1390264  54.8114099  94.4988613
  60.3599173  54.9481947  93.6142177  65.4081357  46.6277810 101.0506958
  65.0764682  47.4973221 100.8268173  64.8126971  46.3114094 101.7300989
  61.9012877  58.8290356 100.4502871  61.6013600  59.7315395 100.3418678
  61.5563936  58.5622539 101.3024024  59.1226765  52.8231035  89.7683707
  59.0026390  53.2688086  90.6069188  58.4279353  53.1716352  89.2097245
  59.3750886  52.7662542 106.0735205  58.5984220  53.3256462 106.0638070
  60.0141449  53.2519325 106.5950076  67.1671667  49.5489335  99.9078182
  66.5246047  49.8421868  99.2617977  66.6626596  49.4342255 100.7131379
  64.8211831  53.2952508  90.5964041  65.7329687  53.5279895  90.4211739
  64.3121478  53.8789552  90.0339120  57.6297259  55.5747995 105.6353172
  58.3711943  56.1133039 105.3587996  56.9234244  56.2014284 105.7924724
  63.1052598  57.7177136 104.2325334  63.5135954  57.2759546 103.4879966
  62.3829860  57.1429763 104.4859527  62.6083114  50.3154111 103.2640065
  62.3644046  51.0696171 102.7274340  62.8843044  50.6939458 104.0987312
  64.5621577  56.8592723 101.9417330  64.7738472  57.5024483 101.2651711
  64.5151325  56.0255040 101.4739260  58.9809375  58.0152734  95.2527708
  59.4447720  58.2940437  94.4632330  58.7166173  57.1136179  95.0700799
  57.9178261  54.1375887  92.0617273  58.6202304  54.5896931  92.5291199
  57.5858889  53.4959706  92.6897166  56.3658622  52.7287643 106.4368482
  55.7357283  53.4103924 106.6703879  56.2594710  52.6170725 105.4921621
  59.4424008  59.2848722 102.2700398  59.5068440  59.7469129 103.1058570
  58.7334932  58.6546087 102.3982708  73.7673398  56.0803427  96.4624659
  73.0137106  55.5110825  96.3068663  73.9020939  56.0466092  97.4095294
  55.6439365  47.0308409 108.7993734  55.2506311  46.4774608 109.4741378
  56.4605506  47.3418988 109.1900251  58.5607326  48.4466288 106.3913990
  59.3017040  49.0473442 106.3118453  58.7925249  47.7043926 105.8332033
  60.7840502  61.5740396 106.2679720  60.3404356  60.7876775 105.9500625
  61.4457716  61.7619546 105.6023611  55.5427623  63.1036198 100.7940399
  56.0935048  62.9753261 100.0217393  54.7039099  63.4031087 100.4435292
  62.8821740  61.8543196 104.2961122  62.8640215  62.6752077 103.8041391
  63.8041660  61.7297271 104.5211263  59.3394794  59.3687325 105.1384630
  59.8723131  58.6075614 104.9083938  58.8108875  59.0760977 105.8808785
  62.5064489  44.4747391 100.6678272  62.1628759  45.3649033 100.5917382
  62.8743452  44.2849049  99.8047857  62.2601075  52.3383095  91.0010488
  61.9551211  52.6529244  91.8520631  63.2131517  52.4164514  91.0437821
  60.7047507  58.4973318  92.6503442  60.1768868  57.7626077  92.3376680
  60.2035010  59.2747994  92.4043410  64.4945812  55.0466711  95.8174430
  65.0077693  55.6796703  96.3196140  65.1447036  54.4467907  95.4517790
  60.9726643  52.5216167  98.0632771  60.0549204  52.7431114  97.9054459
  61.3886786  52.5962477  97.2044478  61.7561690  53.9207582  93.1935451
  62.5033509  54.4328979  92.8842573  62.0253280  53.5991635  94.0539844
  60.0288340  56.4166123  90.1762405  59.1199560  56.1325156  90.2734875
  60.0583424  56.8365202  89.3165712  58.5773235  54.0294744  96.2772201
  58.6321844  53.0768580  96.2014677  57.7664437  54.1854183  96.7613499
  62.1139806  53.1113628 102.8677473  62.4689194  53.3385101 103.7271939
  62.7611937  53.4432005 102.2454729  56.7839973  59.5192589  95.7658807
  57.5780572  59.0242909  95.5641382  56.0731665  58.9910452  95.4026512
  60.3858783  48.2290182 103.6161287  59.7386698  48.9280132 103.5225763
  61.1559798  48.6626326 103.9837535  63.7937581  58.4939034 106.6911840
  63.6423087  58.2649586 105.7741924  63.7842260  59.4509636 106.7043185
  60.5622917  56.0670947 101.6758106  61.4914977  56.2182106 101.5027074
  60.1413947  56.1554968 100.8206753  59.3611249  60.0921611  99.4456644
  59.2222335  59.7240396 100.3182582  58.5725845  60.6069251  99.2740602
  60.9116464  59.4703214  96.8345482  60.5766297  59.4303984  97.7303132
  60.4120410  58.8047930  96.3615892  65.5029788  61.5258157 104.7688322
  65.4442334  60.8417377 104.1018905  65.9049306  62.2677147 104.3168948
  54.5220486  68.3420071  97.5622041  54.7617085  68.9738595  98.2401059
  53.6789683  67.9908111  97.8487400  65.5047195  59.4897741 103.0002301
  64.6173974  59.1523662 103.1228700  66.0745746  58.7580772 103.2371067
  61.4947032  64.0486027 102.1221703  62.2075004  64.6833492 102.0497605
  61.0037060  64.1449893 101.3061705  63.2164559  57.9537280  93.6938995
  62.2820837  58.0738742  93.5243699  63.3941227  57.0509746  93.4299005
  56.5458945  61.7980470 102.9427274  57.2468405  62.4316953 103.0956668
  56.0754060  62.1395202 102.1822913  64.5753773  46.1635186  98.2679930
  63.6616853  46.3939413  98.4362137  65.0046874  46.2473630  99.1193963
  64.3460231  54.3525078 100.7679824  63.6931681  54.6000985 100.1132277
  64.7240611  53.5389216 100.4342302  60.3947804  55.0944889 107.2545862
  59.7188441  54.9939018 107.9248237  61.2175438  54.9384103 107.7181859
  59.1370587  66.4011816 101.4903478  59.6888895  66.5643438 102.2552563
  59.4776781  66.9916254 100.8183502  53.5887353  50.8210099 105.7398396
  54.2159392  50.4387176 106.3535921  52.7315272  50.6024301 106.1054089
  63.9881461  61.2273074 107.3452132  64.5321365  61.8403032 106.8507087
  63.4068306  61.7852652 107.8619145  56.6973456  48.0396951 103.9284952
  57.2207858  48.2859247 104.6911261  56.4785789  48.8716986 103.5088089
  59.2836398  63.9670298 103.5052132  59.5923525  63.7219445 104.3774831
  60.0811880  64.1716936 103.0171002  56.8255410  50.1428005 107.4012316
  56.8743566  51.0190128 107.0190086  57.3677924  49.6005398 106.8283959
  67.3110256  60.6869128 106.6813453  66.5205800  60.6693267 106.1417953
  67.0743610  61.2257422 107.4362490  67.4308131  57.5361594 103.9946182
  67.4806136  57.3711602 104.9361705  67.3222054  56.6688853 103.6044062
  64.7211893  53.5192522 105.3105488  65.6221756  53.3798987 105.0189486
  64.7959868  53.6846977 106.2503666  59.0554699  50.8959377 104.1558675
  58.1858008  51.1892943 103.8841263  59.2914179  51.4799822 104.8765938
  68.9326328  59.9558536 104.2388203  68.6411136  60.3188516 105.0751664
  68.3198459  59.2425544 104.0601535  67.1813516  55.0791150 102.7068261
  67.6567638  55.2718797 101.8987113  66.2579081  55.1350336 102.4611645
  61.7593732  47.1138994 101.6724095  62.2775676  47.8500021 101.3470584
  61.4048865  47.4202987 102.5070854  65.8815185  51.9556911 100.9396567
  66.8332608  52.0555008 100.9608791  65.7118635  51.1635179 101.4494651
  63.9029564  49.0412494 101.1255968  63.3079497  49.3217507 100.4302456
  63.6179261  49.5306395 101.8972709  68.5097751  51.9674074 100.0997150
  67.9936800  51.1832530  99.9127079  69.3937700  51.6392790 100.2643669
  74.1779813  56.2379037  99.1944903  74.9083201  55.9764325  99.7552607
  73.5686758  55.5007759  99.2346971  72.2595110  54.3786900  99.7919354
  71.5328273  54.2442865  99.1835846  71.8442397  54.6863728 100.5976073
  60.0825286  58.0976829 107.5566728  61.0028296  58.2755428 107.7506774
  60.0474869  57.1532875 107.4046427  57.9515224  51.5811070 109.5892258
  57.8511951  52.5305427 109.5204349  57.7336766  51.2529309 108.7168328
  57.8146494  55.0108209 108.4057319  57.3313576  55.8108569 108.6121208
  57.9007433  55.0216154 107.4524763  52.0970060  64.4432363  97.4595951
  51.9624528  63.6832764  96.8933949  51.6802123  65.1673263  96.9924740
  64.0626834  55.3779148  92.5874796  64.0062035  55.8347699  91.7482429
  64.6155176  54.6169832  92.4097639  55.2539186  65.3401680  97.6714394
  55.1371570  66.2847112  97.5693084  54.4331632  65.0375241  98.0600193
  65.1415721  60.0651816  88.5170986  65.9761325  59.6333014  88.3348461
  64.9800064  59.8933829  89.4447881  64.7961613  56.5683929  89.8827326
  64.7410417  56.4028200  88.9415770  64.1707668  57.2759962  90.0389515
  62.1107520  58.8732841 109.2080888  62.9798680  59.0473493 108.8467523
  61.6314272  59.6927258 109.0856618  56.2793700  65.9929942 100.8870322
  57.1820947  66.0253552 101.2036817  56.0531070  65.0630393 100.9016658
  53.9251619  48.9519610 107.8063762  54.7883080  48.5956415 108.0167087
  53.3517030  48.6133505 108.4939166  73.7699996  70.5821467  98.6126163
  74.4078406  70.4628214  97.9089503  73.6520839  71.5302311  98.6714115
  70.5789702  70.5348895  98.5487688  70.2408214  70.4189959  97.6608223
  71.4479470  70.1340060  98.5288694  71.0609485  71.6883747 104.5073893
  71.0498126  71.2936545 103.6354397  71.2230125  70.9549819 105.1007665
  63.9840950  73.8835563  97.3768799  64.7762242  73.5426387  96.9615098
  64.2237600  73.9930538  98.2970952  67.7816746  74.4720858 103.4553077
  67.4906612  75.3766489 103.3399744  68.4173731  74.5137386 104.1697147
  68.7072953  71.8497707 100.0454437  69.3036525  71.6253729  99.3311400
  68.7647925  71.1082452 100.6479885  73.3241264  68.3072921  95.6879371
  74.1104354  67.8892344  95.3369788  73.5879969  69.2119013  95.8561019
  73.4951342  73.7445771  90.3868028  72.8597175  73.8180397  91.0988933
  73.1648748  74.3339370  89.7087107  78.7249691  68.2448154  96.5912350
  79.4574863  67.6747371  96.8250179  77.9689047  67.8569754  97.0318855
  76.2475112  61.9569728 101.0506958  75.9158437  62.8265139 100.8268173
  75.6520725  61.6406012 101.7300989  72.7406631  74.1582274 100.4502871
  72.4407354  75.0607313 100.3418678  72.3957691  73.8914457 101.3024024
  66.1919113  70.6096071  96.4839575  65.2669609  70.4772285  96.6917267
  66.4403526  71.3890290  96.9809518  76.1403775  66.6764814  98.1300308
  75.2320652  66.6080222  97.8359069  76.0891371  67.1536759  98.9582134
  63.5527924  70.2529344  97.3183364  63.6820305  70.5063823  98.2322776
  62.8725375  70.8457052  96.9988019  67.7227411  80.9226594  93.4173839
  67.6451441  81.8734419  93.4962319  67.1189055  80.5772467  94.0748765
  70.2144641  68.0954460 106.0735205  69.4377975  68.6548380 106.0638070
  70.8535204  68.5811243 106.5950076  78.0065422  64.8781252  99.9078182
  77.3639802  65.1713786  99.2617977  77.5020350  64.7634173 100.7131379
  68.4691013  70.9039913 105.6353172  69.2105698  71.4424957 105.3587996
  67.7627999  71.5306202 105.7924724  73.9446353  73.0469053 104.2325334
  74.3529709  72.6051464 103.4879966  73.2223614  72.4721681 104.4859527
  70.2977423  67.9841660 101.6058891  71.1438618  68.4081074 101.7493540
  70.2376061  67.3275285 102.2997454  74.2675167  73.6070244  97.9877623
  73.6384030  73.7715958  97.2853691  73.8800830  74.0211854  98.7588587
  78.1464399  74.5424682  95.3421987  77.4615438  74.9223583  94.7919020
  78.2308249  75.1520009  96.0753934  73.4476868  65.6446029 103.2640065
  73.2037800  66.3988089 102.7274340  73.7236799  66.0231376 104.0987312
  75.4015331  72.1884641 101.9417330  75.6132226  72.8316401 101.2651711
  75.3545079  71.3546957 101.4739260  73.0041560  64.8002462  98.8453902
  72.1426039  65.0983715  99.1370640  73.0303995  65.0172860  97.9134935
  69.8203129  73.3444652  95.2527708  70.2841475  73.6232355  94.4632330
  69.5559927  72.4428097  95.0700799  66.7127210  72.8916134  98.1907471
  67.2828567  73.3203402  97.5524956  67.3035322  72.6098718  98.8891657
  67.2052377  68.0579561 106.4368482  66.5751038  68.7395842 106.6703879
  67.0988465  67.9462643 105.4921621  62.4997349  67.7251357  97.3634407
  61.7096403  67.9808886  96.8874517  62.9908597  68.5399695  97.4686447
  76.5161159  75.0656596 100.1139687  77.3378603  74.6636784  99.8322369
  76.5123562  74.9624831 101.0655803  70.2817762  74.6140640 102.2700398
  70.3462195  75.0761047 103.1058570  69.5728686  73.9838005 102.3982708
  60.7835052  67.9781848  99.7949397  61.0343091  68.8628858 100.0606973
  61.3194601  67.7986449  99.0224489  84.6067152  71.4095345  96.4624659
  83.8530860  70.8402743  96.3068663  84.7414693  71.3758009  97.4095294
  66.4833120  62.3600327 108.7993734  66.0900065  61.8066526 109.4741378
  67.2999260  62.6710905 109.1900251  69.4001081  63.7758206 106.3913990
  70.1410794  64.3765359 106.3118453  69.6319003  63.0335844 105.8332033
  64.5442419  68.9614573 104.6692220  64.4295934  68.0599831 104.9699319
  63.6886936  69.2078270 104.3177036  71.6234256  76.9032314 106.2679720
  71.1798111  76.1168692 105.9500625  72.2851470  77.0911464 105.6023611
  66.3821378  78.4328115 100.7940399  66.9328803  78.3045179 100.0217393
  65.5432854  78.7323004 100.4435292  73.7215494  77.1835114 104.2961122
  73.7033970  78.0043995 103.8041391  74.6435415  77.0589189 104.5211263
  70.1788549  74.6979243 105.1384630  70.7116885  73.9367531 104.9083938
  69.6502630  74.4052895 105.8808785  73.3458244  59.8039309 100.6678272
  73.0022513  60.6940951 100.5917382  73.7137206  59.6140967  99.8047857
  71.5441261  73.8265236  92.6503442  71.0162623  73.0917995  92.3376680
  71.0428764  74.6039912  92.4043410  76.5234107  72.0214256  97.7670488
  75.8657782  72.7113517  97.8550617  77.3274507  72.4110688  98.1104475
  75.3339566  70.3758629  95.8174430  75.8471448  71.0088621  96.3196140
  75.9840790  69.7759824  95.4517790  71.8120397  67.8508084  98.0632771
  70.8942958  68.0723031  97.9054459  72.2280541  67.9254395  97.2044478
  76.1001362  75.3564630  93.9453573  75.6463689  74.5155540  94.0018763
  75.4695329  75.9926029  94.2828353  75.0434282  66.2856616  95.1754240
  74.3057039  65.7734002  95.5064483  75.2961055  65.8456998  94.3637517
  74.5434302  77.1941127  94.8803391  74.8357276  77.7546184  94.1615757
  75.0532922  77.4869688  95.6356550  75.1445909  59.0632868  95.7696009
  75.4504786  58.2030232  95.4821925  75.8698514  59.6550488  95.5695003
  69.5067927  77.9721478  95.9696844  69.4644106  78.1982324  95.0405376
  70.4230626  77.7384853  96.1182645  72.9533561  68.4405545 102.8677473
  73.3082948  68.6677019 103.7271939  73.6005692  68.7723922 102.2454729
  78.6831298  71.5623981  93.5726802  78.5449196  71.7525577  92.6447992
  78.3267516  72.3243364  94.0294853  78.7100677  73.6300508  98.5838074
  79.1437184  73.5375797  99.4321128  79.4232258  73.6058009  97.9458090
  67.6233728  74.8484507  95.7658807  68.4174326  74.3534827  95.5641382
  66.9125420  74.3202370  95.4026512  72.4428572  77.2302602 100.1171174
  72.4965594  77.7993539 100.8848890  71.5743353  77.4004488  99.7525212
  65.3226965  66.9320159 101.5995626  65.9950019  66.7237521 100.9508275
  64.4956752  66.7342245 101.1600858  79.5716227  73.6724209 101.1170959
  79.7652117  74.5770020 101.3630234  79.4716845  73.2131628 101.9509544
  71.2252537  63.5582100 103.6161287  70.5780452  64.2572049 103.5225763
  71.9953553  63.9918244 103.9837535  74.6331335  73.8230952 106.6911840
  74.4816842  73.5941503 105.7741924  74.6236015  74.7801553 106.7043185
  71.4016672  71.3962865 101.6758106  72.3308732  71.5474024 101.5027074
  70.9807702  71.4846885 100.8206753  70.2005004  75.4213529  99.4456644
  70.0616089  75.0532313 100.3182582  69.4119600  75.9361168  99.2740602
  71.7510219  74.7995132  96.8345482  71.4160051  74.7595902  97.7303132
  71.2514164  74.1339848  96.3615892  65.7254463  70.2062762 102.3598063
  65.5874261  69.4743000 102.9609602  66.6359386  70.1171662 102.0782251
  68.3536763  69.9182721 101.8481743  69.0636382  69.2775913 101.8068361
  68.3106072  70.1695616 102.7707923  76.3423542  76.8550074 104.7688322
  76.2836088  76.1709294 104.1018905  76.7443060  77.5969064 104.3168948
  67.0665697  66.9047939 103.6677382  66.5303054  66.4538677 104.3198978
  66.4782406  67.0393848 102.9247846  65.3614241  83.6711988  97.5622041
  65.6010839  84.3030512  98.2401059  64.5183437  83.3200028  97.8487400
  76.3440949  74.8189658 103.0002301  75.4567728  74.4815580 103.1228700
  76.9139500  74.0872689 103.2371067  57.9970096  71.1513750  96.3245353
  58.6841136  70.8375480  95.7366368  57.8418225  72.0555115  96.0512604
  69.8742103  79.4791111  99.9663545  69.8012274  80.2846082 100.4782849
  69.4319496  79.6783076  99.1411566  72.9728532  64.5257510  96.1200572
  73.4697232  63.7727472  95.8001642  72.2015514  64.5621827  95.5543781
  80.8258290  70.2297876  97.7618863  80.8148166  71.1122591  97.3912796
  79.9575669  69.8769426  97.5673400  72.3340786  79.3777945 102.1221703
  73.0468758  80.0125409 102.0497605  71.8430815  79.4741811 101.3061705
  74.0558313  73.2829197  93.6938995  73.1214592  73.4030660  93.5243699
  74.2334982  72.3801664  93.4299005  77.4430864  69.1246517  94.2289029
  77.9091317  69.9574508  94.1549332  77.8938365  68.6591498  94.9334288
  67.3852700  77.1272388 102.9427274  68.0862159  77.7608871 103.0956668
  66.9147815  77.4687120 102.1822913  75.5107096  75.4690338  91.2275181
  75.7866939  75.3546932  92.1369055  74.6411594  75.0707823  91.1887354
  75.4147527  61.4927104  98.2679930  74.5010607  61.7231330  98.4362137
  75.8440629  61.5765548  99.1193963  75.1853986  69.6816996 100.7679824
  74.5325436  69.9292903 100.1132277  75.5634366  68.8681134 100.4342302
  72.1461160  79.7176689  94.8707995  72.3283554  78.8998345  95.3335747
  72.9694146  79.9344381  94.4332885  71.2341559  70.4236807 107.2545862
  70.5582196  70.3230936 107.9248237  72.0569193  70.2676020 107.7181859
  62.9820418  76.6608743  99.8758377  63.5673855  75.9152431 100.0086281
  62.7845256  76.9712700 100.7595041  65.8359073  79.6959991  94.8920819
  65.1669448  80.1806118  94.4084859  65.6971943  79.9429211  95.8064198
  57.5738073  69.2314343  98.5962820  57.6122172  68.6977934  99.3899938
  57.0678365  68.7049549  97.9773797  69.9764342  81.7303734 101.4903478
  70.5282650  81.8935356 102.2552563  70.3170535  82.3208172 100.8183502
  64.4281107  66.1502016 105.7398396  65.0553146  65.7679094 106.3535921
  63.5709026  65.9316218 106.1054089  74.8275216  76.5564992 107.3452132
  75.3715120  77.1694950 106.8507087  74.2462061  77.1144570 107.8619145
  73.1132729  79.6785710  98.4767160  72.9883868  78.8775449  97.9678105
  73.7711820  80.1731903  97.9881130  75.1767637  77.4794730 100.1046710
  74.2297973  77.3600081 100.0325036  75.5250410  76.5917228 100.1872971
  67.5367211  63.3688869 103.9284952  68.0601612  63.6151165 104.6911261
  67.3179544  64.2008903 103.5088089  72.1814071  77.2747446  96.3051062
  72.0339033  76.3464153  96.4858632  73.0067564  77.2967537  95.8208137
  75.7848192  78.0976005  97.3915935  76.7094740  77.8918866  97.2540386
  75.6163496  77.8492406  98.3005276  68.7419756  64.3102564 101.6134622
  68.4016576  63.5110377 102.0155302  68.0358762  64.6104275 101.0411455
  66.9174806  68.0870997  97.8753924  66.7719387  68.4011300  98.7678205
  66.4400010  68.7055897  97.3224822  70.6297320  65.5110885  99.9687941
  70.3715098  66.4327956  99.9672271  70.0982360  65.1141319 100.6588405
  75.5743509  78.6161672  92.7478026  75.7480386  78.0508095  91.9951879
  76.0672400  79.4162567  92.5657516  61.3920468  70.6276341 100.8141585
  60.8473937  71.4036149 100.9461859  62.2699818  70.9747146 100.6560706
  81.4282900  71.3798095  94.3668326  81.8714046  70.6305420  93.9687449
  80.5509410  71.3708231  93.9842058  62.1786490  69.7546237 103.7071742
  61.4368226  69.9028873 104.2936372  61.8579235  70.0154503 102.8438491
  78.4610104  75.3828142  91.3762255  78.9861428  75.7215415  90.6511575
  78.3732457  74.4475157  91.1925390  70.1230153  79.2962216 103.5052132
  70.4317279  79.0511362 104.3774831  70.9205635  79.5008854 103.0171002
  70.1450765  81.4500125  95.7357508  69.7055755  80.9576504  96.4290365
  70.8958882  80.9073093  95.4949584  62.6243104  77.6411666  95.7382136
  63.4501124  77.3415438  95.3580780  62.2737156  76.8719289  96.1871925
  67.5924637  76.9938134  97.8079810  66.9704646  76.3308839  97.5082038
  68.2629504  77.0199266  97.1253458  60.8251709  75.5597993  96.6971070
  59.9883617  75.1320167  96.5155071  60.7975354  75.7530436  97.6341861
  67.6649165  65.4719922 107.4012316  67.7137320  66.3482045 107.0190086
  68.2071679  64.9297315 106.8283959  78.1504010  76.0161046 106.6813453
  77.3599554  75.9985185 106.1417953  77.9137365  76.5549339 107.4362490
  78.2701885  72.8653512 103.9946182  78.3199890  72.7003519 104.9361705
  78.1615809  71.9980771 103.6044062  75.5605648  68.8484440 105.3105488
  76.4615511  68.7090905 105.0189486  75.6353622  69.0138895 106.2503666
  69.8948453  66.2251295 104.1558675  69.0251762  66.5184861 103.8841263
  70.1307933  66.8091740 104.8765938  79.7720082  75.2850454 104.2388203
  79.4804891  75.6480434 105.0751664  79.1592213  74.5717462 104.0601535
  80.9715765  72.8503333  96.7590773  81.8062656  73.2893137  96.9228334
  81.1074893  72.3741987  95.9399019  78.0207270  70.4083068 102.7068261
  78.4961392  70.6010714 101.8987113  77.0972836  70.4642254 102.4611645
  72.5987487  62.4430912 101.6724095  73.1169431  63.1791939 101.3470584
  72.2442620  62.7494905 102.5070854  76.7208939  67.2848828 100.9396567
  77.6726362  67.3846926 100.9608791  76.5512390  66.4927097 101.4494651
  74.7423319  64.3704411 101.1255968  74.1473251  64.6509424 100.4302456
  74.4573016  64.8598312 101.8972709  79.1997017  70.5054948 100.0538866
  79.1673337  69.5670949 100.2398550  79.8097641  70.5838985  99.3204691
  79.3491506  67.2965991 100.0997150  78.8330554  66.5124448  99.9127079
  80.2331454  66.9684708 100.2643669  77.0102233  61.0407007  96.0592962
  76.8127054  60.7322095  96.9436294  77.6201938  61.7668646  96.1890892
  85.0173567  71.5670955  99.1944903  85.7476956  71.3056243  99.7552607
  84.4080513  70.8299677  99.2346971  83.0988864  69.7078817  99.7919354
  82.3722028  69.5734782  99.1835846  82.6836151  70.0155646 100.5976073
  70.9219041  73.4268747 107.5566728  71.8422050  73.6047346 107.7506774
  70.8868624  72.4824792 107.4046427  60.1401206  68.6207341  96.4820002
  59.8203990  67.7672649  96.1894376  59.5934634  68.8355919  97.2377969
  63.9181113  71.3369782 100.1989509  64.1367123  72.2686890 100.2177542
  64.3306887  70.9777756 100.9844313  68.7908978  66.9102987 109.5892258
  68.6905705  67.8597344 109.5204349  68.5730521  66.5821226 108.7168328
  60.0089466  72.2410252  98.4513124  59.3152937  71.8264205  97.9383078
  60.7562457  72.2830789  97.8546543  76.1454686  63.0316439  93.3168158
  75.5653355  63.6901243  92.9346210  75.8790619  62.2093784  92.9055575
  74.5958253  62.4321497  95.5189478  75.0958031  62.5438031  94.7103797
  75.2393861  62.1282550  96.1590287  68.6540249  70.3400126 108.4057319
  68.1707330  71.1400486 108.6121208  68.7401188  70.3508071 107.4524763
  64.5813586  74.2304661 100.4425753  65.5356840  74.1988603 100.3755685
  64.3826110  73.7695285 101.2575979  65.1712968  72.8005777 103.0096551
  65.9905857  73.2949856 103.0331388  65.4449776  71.8837745 102.9814118
  74.9279564  65.1916529  92.3724506  74.0405419  65.4766180  92.1544701
  75.3433553  65.0310293  91.5251783  78.2794100  65.2163050  96.0878845
  79.0554491  65.7059503  96.3603462  77.5542235  65.6421105  96.5450715
  80.7166659  65.9290670  97.1452786  81.3111150  65.6886406  96.4346094
  80.7893243  65.2097800  97.7726322  62.9363815  79.7724281  97.4595951
  62.8018283  79.0124681  96.8933949  62.5195877  80.4965180  96.9924740
  74.9020588  70.7071065  92.5874796  74.8455790  71.1639617  91.7482429
  75.4548931  69.9461750  92.4097639  78.7125394  66.4960797  93.4124916
  78.4562328  66.0957433  94.2433124  78.0878262  67.2104591  93.2875055
  83.0237732  69.2356870  95.9196207  82.4637290  69.3050060  96.6927769
  82.4181235  69.0597855  95.1995704  66.0932941  80.6693598  97.6714394
  65.9765325  81.6139030  97.5693084  65.2725387  80.3667159  98.0600193
  60.4247882  67.1343911 103.7088748  61.0706746  66.6242865 104.1975973
  60.2165034  67.8712593 104.2832173  72.9501275  74.2024758 109.2080888
  73.8192434  74.3765411 108.8467523  72.4708026  75.0219175 109.0856618
  67.1187455  81.3221859 100.8870322  68.0214702  81.3545470 101.2036817
  66.8924825  80.3922310 100.9016658  68.8741057  80.0752846  97.5480401
  67.9236688  80.0754708  97.4344773  69.1773543  79.3285581  97.0316435
  64.7645373  64.2811528 107.8063762  65.6276835  63.9248333 108.0167087
  64.1910784  63.9425423 108.4939166  87.0868866  77.2861646 101.0506958
  86.7552191  78.1557056 100.8268173  86.4914480  76.9697930 101.7300989
  88.8459176  80.2073170  99.9078182  88.2033556  80.5005703  99.2617977
  88.3414105  80.0926090 100.7131379  78.0446131  83.3871479 106.4368482
  77.4144792  84.0687760 106.6703879  77.9382219  83.2754560 105.4921621
  73.3391104  83.0543275  97.3634407  72.5490158  83.3100803  96.8874517
  73.8302351  83.8691613  97.4686447  71.6228807  83.3073765  99.7949397
  71.8736845  84.1920775 100.0606973  72.1588355  83.1278367  99.0224489
  77.3226874  77.6892245 108.7993734  76.9293820  77.1358443 109.4741378
  78.1393014  78.0002823 109.1900251  80.2394835  79.1050124 106.3913990
  80.9804549  79.7057277 106.3118453  80.4712758  78.3627762 105.8332033
  75.3836173  84.2906491 104.6692220  75.2689688  83.3891748 104.9699319
  74.5280691  84.5370188 104.3177036  84.1851998  75.1331227 100.6678272
  83.8416267  76.0232868 100.5917382  84.5530961  74.9432884  99.8047857
  81.7349392  79.9689539  94.2335945  80.8790988  79.5796389  94.0541584
  82.1476344  80.0481499  93.3735731  83.2648538  77.5035882  98.6327505
  82.7613334  77.4666017  97.8195310  83.5579145  78.4128625  98.6924162
  79.5091424  77.5874612  97.6393687  80.3744421  77.3917420  97.2799576
  79.5768933  77.3584963  98.5663044  77.1153743  79.8176819  95.0110054
  77.6897495  79.5952001  94.2783247  77.7024726  79.8865514  95.7638655
  79.4176411  76.6918068  93.7385123  78.7640824  76.3767086  93.1141738
  79.3756885  76.0693809  94.4644946  85.9839664  74.3924786  95.7696009
  86.2898541  73.5322149  95.4821925  86.7092269  74.9842406  95.5695003
  78.1953103  83.3055639  94.0362579  77.3820969  83.6049809  94.4427772
  78.6912098  82.9111327  94.7537062  77.6867178  80.8773994  99.6523814
  78.3266558  80.7362753  98.9546778  76.8544709  80.5908508  99.2762416
  74.6895795  80.8474319  94.4296801  74.9502612  81.7619652  94.3205962
  75.5112967  80.3798762  94.5793414  76.1620720  82.2612076 101.5995626
  76.8343773  82.0529439 100.9508275  75.3350506  82.0634162 101.1600858
  82.0646292  78.8874017 103.6161287  81.4174207  79.5863967 103.5225763
  82.8347307  79.3210161 103.9837535  85.4725090  89.1522869 106.6911840
  85.3210596  88.9233421 105.7741924  85.4629769  90.1093471 106.7043185
  77.9059452  82.2339857 103.6677382  77.3696809  81.7830595 104.3198978
  77.3176160  82.3685765 102.9247846  68.8363851  86.4805668  96.3245353
  69.5234891  86.1667398  95.7366368  68.6811980  87.3847032  96.0512604
  73.6398573  81.3695864 100.7530376  73.5556762  80.7621534 100.0180786
  72.8181279  81.8604883 100.7539873  86.2541282  76.8219021  98.2679930
  85.3404362  77.0523248  98.4362137  86.6834383  76.9057465  99.1193963
  68.4131827  84.5606261  98.5962820  68.4515927  84.0269852  99.3899938
  67.9072120  84.0341467  97.9773797  75.7922589  79.4070802 102.0925362
  75.8563916  80.2685632 101.6802760  75.7289710  78.7944803 101.3597721
  75.2674862  81.4793934 105.7398396  75.8946901  81.0971011 106.3535921
  74.4102781  81.2608136 106.1054089  75.5734652  81.3626360  97.6544300
  74.8521237  81.9762327  97.5151773  76.3627907  81.8984125  97.5760946
  78.3760965  78.6980786 103.9284952  78.8995367  78.9443083 104.6911261
  78.1573298  79.5300821 103.5088089  80.2329982  76.7243794 100.0661945
  81.0556051  76.2504272  99.9440836  80.4768046  77.5034278 100.5660631
  83.0169339  80.4577201  91.2983179  83.2332954  81.3401839  90.9972007
  82.5363407  80.0663415  90.5688821  79.6164944  80.4065462  97.9234813
  79.6026512  79.5106556  97.5867111  80.3337372  80.4136126  98.5573099
  81.4691074  80.8402803  99.9687941  81.2108852  81.7619873  99.9672271
  80.9376115  80.4433237 100.6588405  79.0201840  79.2879843  93.1922383
  79.1417751  78.3596489  93.3913271  78.7303882  79.3018529  92.2800699
  81.8893030  76.9734753  96.3289103  81.9114727  77.0374086  95.3741083
  82.3061089  76.1339262  96.5229610  73.0180245  85.0838155 103.7071742
  72.2761981  85.2320790 104.2936372  72.6972989  85.3446421 102.8438491
  78.5042919  80.8011840 107.4012316  78.5531075  81.6773963 107.0190086
  79.0465433  80.2589233 106.8283959  83.4381241  77.7722829 101.6724095
  83.9563185  78.5083856 101.3470584  83.0836374  78.0786823 102.5070854
  83.6893836  74.1923112  97.1924992  83.9695589  73.5246301  97.8185418
  84.4744443  74.3852208  96.6799656  85.5817073  79.6996329 101.1255968
  84.9867006  79.9801342 100.4302456  85.2966770  80.1890230 101.8972709
  87.8495987  76.3698925  96.0592962  87.6520808  76.0614013  96.9436294
  88.4595693  77.0960564  96.1890892  81.6779085  77.1729785  92.1865197
  80.8679814  76.8276870  92.5620443  82.3663502  76.8637328  92.7752809
  83.6069634  76.2507832  93.8089494  84.1600672  76.6703285  94.4679517
  83.8439720  75.3243580  93.8512450  79.6302733  82.2394905 109.5892258
  79.5299460  83.1889262 109.5204349  79.4124275  81.9113144 108.7168328
  85.4352007  77.7613414  95.5189478  85.9351786  77.8729949  94.7103797
  86.0787615  77.4574467  96.1590287  72.7619963  87.5020424  96.3279139
  72.7390651  87.6008111  95.3761022  73.0720599  88.3485574  96.6496305
  85.7673319  80.5208447  92.3724506  84.8799174  80.8058098  92.1544701
  86.1827308  80.3602210  91.5251783  91.5560414  81.2582587  97.1452786
  92.1504904  81.0178323  96.4346094  91.6286997  80.5389718  97.7726322
  71.2641637  82.4635829 103.7088748  71.9100500  81.9534783 104.1975973
  71.0558788  83.2004510 104.2832173  83.7895029  89.5316676 109.2080888
  84.6586189  89.7057328 108.8467523  83.3101781  90.3511093 109.0856618
  79.7845247  76.7275873  89.4612644  79.7723917  77.6717713  89.6180915
  80.6768669  76.5446019  89.1672105  83.5997367  73.3218650  93.7158581
  82.8329763  72.7677137  93.8615263  84.0108072  73.3940519  94.5772732
  75.6039128  79.6103446 107.8063762  76.4670589  79.2540251 108.0167087
  75.0304539  79.2717341 108.4939166  93.6963586 106.7139174  89.8499044
  93.0451565 107.2993255  89.4633057  94.4907948 107.2445369  89.9094081
  93.2228770 104.4849071  92.6503442  92.6950132 103.7501830  92.3376680
  92.7216273 105.2623747  92.4043410  91.3681371 102.3029281  85.6538415
  90.4608432 102.0718535  85.8529564  91.8652402 101.5066900  85.8412397
  97.2531018 109.2745507  92.7478026  97.4267895 108.7091930  91.9951879
  97.7459909 110.0746402  92.5657516  98.2406190 108.5912272  89.8474924
  98.9357095 109.2118965  90.0662239  98.5829340 107.7407623  90.1227302
  92.3321059 108.6974024  88.7550018  91.7595026 109.3164211  88.3020490
  92.9053852 109.2473385  89.2889940  95.5518318 108.9811174  89.8858600
  96.4848992 108.9156735  90.0891476  95.4641531 109.8167441  89.4273133
 106.6961076 102.2254790  99.1944903 107.4264465 101.9640078  99.7552607
 106.0868022 101.4883512  99.2346971 106.2881259 116.5697220  98.6126163
 106.9259669 116.4503967  97.9089503 106.1702102 117.5178064  98.6714115
 103.0970966 116.5224648  98.5487688 102.7589477 116.4065713  97.6608223
 103.9660734 116.1215813  98.5288694  98.9557781 118.3760124  94.5384579
  98.3922646 118.2850061  93.7700866  98.8410176 117.5560029  95.0187071
 103.5790749 117.6759500 104.5073893 103.5679389 117.2812298 103.6354397
 103.7411388 116.9425572 105.1007665  96.5022213 119.8711316  97.3768799
  97.2943505 119.5302140  96.9615098  96.7418863 119.9806291  98.2970952
 104.5357340 122.0431092  89.8499044 103.8845320 122.6285172  89.4633057
 105.3301703 122.5737287  89.9094081 100.2998010 120.4596611 103.4553077
 100.0087876 121.3642242 103.3399744 100.9354994 120.5013139 104.1697147
 101.2254217 117.8373460 100.0454437 101.8217789 117.6129482  99.3311400
 101.2829188 117.0958205 100.6479885 105.8422528 114.2948674  95.6879371
 106.6285617 113.8768097  95.3369788 106.1061232 115.1994766  95.8561019
 106.0132605 119.7321524  90.3868028 105.3778438 119.8056150  91.0988933
 105.6830012 120.3215123  89.7087107 111.2430955 114.2323907  96.5912350
 111.9756127 113.6623124  96.8250179 110.4870311 113.8445507  97.0318855
 100.5175534 117.1941001  90.0829003 100.4011792 116.5185905  90.7510087
 100.6277794 116.7073375  89.2661156 102.8607075 116.6551148  93.7875692
 102.4965282 116.1281769  94.4988613 103.7174191 116.2649617  93.6142177
 105.2587895 120.1458027 100.4502871 104.9588618 121.0483066 100.3418678
 104.9138954 119.8790210 101.3024024  98.7100376 116.5971824  96.4839575
  97.7850873 116.4648038  96.6917267  98.9584789 117.3766043  96.9809518
 108.6585039 112.6640567  98.1300308 107.7501916 112.5955975  97.8359069
 108.6072634 113.1412512  98.9582134  96.0709187 116.2405097  97.3183364
  96.2001568 116.4939576  98.2322776  95.3906639 116.8332805  96.9988019
 100.2408675 126.9102347  93.4173839 100.1632704 127.8610172  93.4962319
  99.6370318 126.5648220  94.0748765 102.7325904 114.0830213 106.0735205
 101.9559238 114.6424133 106.0638070 103.3716467 114.5686996 106.5950076
 100.9872277 116.8915666 105.6353172 101.7286961 117.4300710 105.3587996
 100.2809262 117.5181955 105.7924724 106.4627616 119.0344806 104.2325334
 106.8710972 118.5927217 103.4879966 105.7404878 118.4597434 104.4859527
 102.8158686 113.9717413 101.6058891 103.6619882 114.3956827 101.7493540
 102.7557324 113.3151038 102.2997454 106.7856431 119.5945997  97.9877623
 106.1565293 119.7591711  97.2853691 106.3982093 120.0087607  98.7588587
 110.6645663 120.5300435  95.3421987 109.9796701 120.9099336  94.7919020
 110.7489512 121.1395762  96.0753934 107.9196594 118.1760394 101.9417330
 108.1313490 118.8192154 101.2651711 107.8726343 117.3422711 101.4739260
 102.3384393 119.3320405  95.2527708 102.8022738 119.6108108  94.4632330
 102.0741191 118.4303850  95.0700799  99.2308474 118.8791887  98.1907471
  99.8009831 119.3079155  97.5524956  99.8216586 118.5974471  98.8891657
 101.2753279 115.4543558  92.0617273 101.9777322 115.9064601  92.5291199
 100.9433907 114.8127376  92.6897166  99.7233640 114.0455314 106.4368482
  99.0932301 114.7271595 106.6703879  99.6169728 113.9338396 105.4921621
 109.0342422 121.0532349 100.1139687 109.8559866 120.6512537  99.8322369
 109.0304825 120.9500584 101.0655803  96.9693358 114.0771689  94.3217883
  96.1724522 114.1890384  94.8401379  96.7418950 114.4158342  93.4558774
 102.7999026 120.6016393 102.2700398 102.8643458 121.0636800 103.1058570
 102.0909950 119.9713758 102.3982708 117.1248415 117.3971098  96.4624659
 116.3712124 116.8278496  96.3068663 117.2595957 117.3633762  97.4095294
 102.5147044 122.2684500  92.1379378 102.3792718 123.1136036  92.5664226
 103.0556856 122.4703778  91.3745312  97.7771326 122.9025694  94.7930057
  97.9537954 123.8243659  94.6051040  98.5728159 122.5884114  95.2224436
 101.9182344 109.7633959 106.3913990 102.6592058 110.3641112 106.3118453
 102.1500267 109.0211597 105.8332033  97.0623682 114.9490326 104.6692220
  96.9477197 114.0475584 104.9699319  96.2068200 115.1954023 104.3177036
 104.1415520 122.8908067 106.2679720 103.6979374 122.1044445 105.9500625
 104.8032733 123.0787217 105.6023611  98.9002641 124.4203868 100.7940399
  99.4510066 124.2920932 100.0217393  98.0614117 124.7198757 100.4435292
 106.2396758 123.1710867 104.2961122 106.2215233 123.9919748 103.8041391
 107.1616678 123.0464942 104.5211263 102.6969812 120.6854996 105.1384630
 103.2298149 119.9243284 104.9083938 102.1683893 120.3928648 105.8808785
 110.8024064 118.5356028  91.1103880 110.0253507 118.1967187  90.6659042
 111.4815545 118.5408651  90.4358845 104.0622525 119.8140989  92.6503442
 103.5343886 119.0793748  92.3376680 103.5610028 120.5915665  92.4043410
 109.0415371 118.0090009  97.7670488 108.3839045 118.6989270  97.8550617
 109.8455770 118.3986441  98.1104475  98.7941252 110.4760655  95.0110054
  99.3685004 110.2535836  94.2783247  99.3812235 110.5449349  95.7638655
 107.8520830 116.3634382  95.8174430 108.3652711 116.9964374  96.3196140
 108.5022054 115.7635577  95.4517790  99.1210840 112.5065116  89.0305939
  98.2848152 112.8439802  89.3515214  98.9815609 112.3714096  88.0933076
 105.1143204 126.3418706  88.5735101 104.4404903 126.6450403  89.1820059
 105.5009026 127.1447786  88.2240558 104.3301660 113.8383837  98.0632771
 103.4124222 114.0598784  97.9054459 104.7461804 113.9130148  97.2044478
 105.1136708 115.2375253  93.1935451 105.8608527 115.7496650  92.8842573
 105.3828298 114.9159306  94.0539844 103.3863358 117.7333794  90.1762405
 102.4774578 117.4492827  90.2734875 103.4158442 118.1532872  89.3165712
 108.6182626 121.3440383  93.9453573 108.1644953 120.5031293  94.0018763
 107.9876593 121.9801782  94.2828353 107.0615565 123.1816880  94.8803391
 107.3538539 123.7421937  94.1615757 107.5714186 123.4745441  95.6356550
 101.9348252 115.3462414  96.2772201 101.9896862 114.3936251  96.2014677
 101.1239455 115.5021853  96.7613499  99.8740612 113.9639474  94.0362579
  99.0608478 114.2633645  94.4427772 100.3699607 113.5695163  94.7537062
 102.0249190 123.9597231  95.9696844 101.9825369 124.1858077  95.0405376
 102.9411889 123.7260606  96.1182645 105.4714824 114.4281299 102.8677473
 105.8264212 114.6552772 103.7271939 106.1186955 114.7599675 102.2454729
 111.2012561 117.5499734  93.5726802 111.0630460 117.7401330  92.6447992
 110.8448780 118.3119117  94.0294853 111.2281941 119.6176261  98.5838074
 111.6618447 119.5251551  99.4321128 111.9413521 119.5933762  97.9458090
 100.1414991 120.8360260  95.7658807 100.9355590 120.3410580  95.5641382
  99.4306683 120.3078123  95.4026512 104.9609836 123.2178356 100.1171174
 105.0146858 123.7869292 100.8848890 104.0924617 123.3880241  99.7525212
  97.8408229 112.9195912 101.5995626  98.5131282 112.7113274 100.9508275
  97.0138015 112.7217998 101.1600858 112.0897490 119.6599962 101.1170959
 112.2833380 120.5645773 101.3630234 111.9898108 119.2007381 101.9509544
 107.1512599 119.8106705 106.6911840 106.9998105 119.5817257 105.7741924
 107.1417278 120.7677306 106.7043185 103.9197935 117.3838618 101.6758106
 104.8489995 117.5349777 101.5027074 103.4988965 117.4722638 100.8206753
 102.7186267 121.4089282  99.4456644 102.5797353 121.0408066 100.3182582
 101.9300863 121.9236921  99.2740602 103.3134419 126.5098378  90.7882180
 103.4886175 126.0386422  91.6027803 102.6267207 127.1364145  91.0163441
 104.2691482 120.7870885  96.8345482 103.9341315 120.7471655  97.7303132
 103.7695428 120.1215601  96.3615892  98.2435726 116.1938515 102.3598063
  98.1055524 115.4618754 102.9609602  99.1540650 116.1047415 102.0782251
 100.8718027 115.9058474 101.8481743 101.5817645 115.2651666 101.8068361
 100.8287335 116.1571369 102.7707923 108.8604806 122.8425827 104.7688322
 108.8017352 122.1585047 104.1018905 109.2624324 123.5844817 104.3168948
  99.5846961 112.8923692 103.6677382  99.0484318 112.4414430 104.3198978
  98.9963669 113.0269601 102.9247846  97.8795504 129.6587741  97.5622041
  98.1192103 130.2906265  98.2401059  97.0364701 129.3075781  97.8487400
 108.8622213 120.8065411 103.0002301 107.9748992 120.4691333 103.1228700
 109.4320764 120.0748443 103.2371067 102.3923366 125.4666864  99.9663545
 102.3193538 126.2721835 100.4782849 101.9500759 125.6658829  99.1411566
 102.1813146 124.7038634  93.4766366 101.3980668 125.2460314  93.5704591
 102.8805891 125.2212613  93.8760607 113.3439553 116.2173629  97.7618863
 113.3329430 117.0998344  97.3912796 112.4756933 115.8645179  97.5673400
 104.8522050 125.3653698 102.1221703 105.5650022 126.0001163 102.0497605
 104.3612078 125.4617564 101.3061705 106.5739577 119.2704950  93.6938995
 105.6395855 119.3906413  93.5243699 106.7516245 118.3677417  93.4299005
 102.0744765 112.6550646  95.8472256 101.7042552 112.1021687  96.5353162
 102.5703857 112.0508780  95.2947256 109.9612128 115.1122270  94.2289029
 110.4272580 115.9450261  94.1549332 110.4119628 114.6467251  94.9334288
  99.9033963 123.1148141 102.9427274 100.6043423 123.7484624 103.0956668
  99.4329078 123.4562873 102.1822913 108.0288359 121.4566091  91.2275181
 108.3048203 121.3422686  92.1369055 107.1592858 121.0583576  91.1887354
 107.7035249 115.6692749 100.7679824 107.0506699 115.9168656 100.1132277
 108.0815629 114.8556887 100.4342302 104.6642423 125.7052442  94.8707995
 104.8464818 124.8874098  95.3335747 105.4875409 125.9220134  94.4332885
 104.9984589 124.6320627  92.1323043 105.5272355 124.1213081  91.5193205
 105.2612808 124.3163157  92.9968576 103.7522822 116.4112560 107.2545862
 103.0763459 116.3106689 107.9248237 104.5750456 116.2551773 107.7181859
  95.5001681 122.6484496  99.8758377  96.0855118 121.9028184 100.0086281
  95.3026520 122.9588453 100.7595041  98.3540337 125.6835744  94.8920819
  97.6850712 126.1681871  94.4084859  98.2153206 125.9304964  95.8064198
 102.4945605 127.7179487 101.4903478 103.0463913 127.8811109 102.2552563
 102.8351799 128.3083925 100.8183502  96.9462371 112.1377769 105.7398396
  97.5734410 111.7554847 106.3535921  96.0890290 111.9191971 106.1054089
 107.3456479 122.5440745 107.3452132 107.8896383 123.1570703 106.8507087
 106.7643324 123.1020323 107.8619145 105.6313992 125.6661463  98.4767160
 105.5065132 124.8651202  97.9678105 106.2893083 126.1607656  97.9881130
 107.6948901 123.4670483 100.1046710 106.7479236 123.3475834 100.0325036
 108.0431674 122.5792981 100.1872971 104.6995334 123.2623199  96.3051062
 104.5520296 122.3339906  96.4858632 105.5248828 123.2843290  95.8208137
  98.5657578 111.9141266  92.1631554  98.9053651 112.4427187  91.4410162
  99.0129699 112.2521672  92.9390121 108.3029456 124.0851758  97.3915935
 109.2276003 123.8794619  97.2540386 108.1344759 123.8368159  98.3005276
 100.5525725 110.4115888  90.3624847 101.2734088 110.7897140  89.8588564
  99.9291030 111.1304764  90.4659825  99.4356070 114.0746750  97.8753924
  99.2900650 114.3887053  98.7678205  98.9581273 114.6931650  97.3224822
 101.2952453 111.0649298  97.9234813 101.2814021 110.1690391  97.5867111
 102.0124881 111.0719962  98.5573099 108.0924772 124.6037425  92.7478026
 108.2661650 124.0383848  91.9951879 108.5853663 125.4038320  92.5657516
 113.9464163 117.3673848  94.3668326 114.3895309 116.6181173  93.9687449
 113.0690674 117.3583984  93.9842058 109.0799945 123.9204190  89.8474924
 109.7750849 124.5410882  90.0662239 109.4223095 123.0699541  90.1227302
  94.6967754 115.7421990 103.7071742  93.9549490 115.8904626 104.2936372
  94.3760498 116.0030256 102.8438491 110.9791368 121.3703895  91.3762255
 111.5042692 121.7091168  90.6511575 110.8913720 120.4350910  91.1925390
 102.6411416 125.2837969 103.5052132 102.9498543 125.0387115 104.3774831
 103.4386898 125.4884607 103.0171002 102.6632028 127.4375878  95.7357508
 102.2237019 126.9452257  96.4290365 103.4140145 126.8948846  95.4949584
  95.1424367 123.6287419  95.7382136  95.9682387 123.3291191  95.3580780
  94.7918419 122.8595042  96.1871925 100.1105901 122.9813887  97.8079810
  99.4885910 122.3184592  97.5082038 100.7810768 123.0075019  97.1253458
  93.3432973 121.5473746  96.6971070  92.5064881 121.1195920  96.5155071
  93.3156618 121.7406189  97.6341861 100.1830428 111.4595675 107.4012316
 100.2318584 112.3357798 107.0190086 100.7252942 110.9173068 106.8283959
 110.6685274 122.0036799 106.6813453 109.8780817 121.9860938 106.1417953
 110.4318628 122.5425092 107.4362490 110.7883149 118.8529265 103.9946182
 110.8381154 118.6879273 104.9361705 110.6797072 117.9856524 103.6044062
  99.6719408 121.5317811  91.2838271  99.8207528 122.2153275  90.6304943
 100.4785851 121.5122901  91.7987726 108.0786911 114.8360193 105.3105488
 108.9796774 114.6966658 105.0189486 108.1534886 115.0014648 106.2503666
 102.4129717 112.2127048 104.1558675 101.5433026 112.5060614 103.8841263
 102.6489197 112.7967493 104.8765938 112.2901346 121.2726207 104.2388203
 111.9986154 121.6356187 105.0751664 111.6773477 120.5593215 104.0601535
 113.4897028 118.8379086  96.7590773 114.3243919 119.2768890  96.9228334
 113.6256157 118.3617740  95.9399019 110.5388534 116.3958821 102.7068261
 111.0142656 116.5886468 101.8987113 109.6154099 116.4518007 102.4611645
 103.1714813 124.0265941  88.7550018 102.5988780 124.6456128  88.3020490
 103.7447607 124.5765303  89.2889940 109.2390203 113.2724581 100.9396567
 110.1907626 113.3722679 100.9608791 109.0693653 112.4802850 101.4494651
 106.3912073 124.3103091  89.8858600 107.3242746 124.2448653  90.0891476
 106.3035286 125.1459358  89.4273133 109.0200090 123.6268962  86.8462548
 108.9413721 123.2928825  87.7398306 109.8409756 124.1190730  86.8454020
 111.7178281 116.4930701 100.0538866 111.6854601 115.5546702 100.2398550
 112.3278904 116.5714738  99.3204691 111.8672769 113.2841744 100.0997150
 111.3511818 112.5000201  99.9127079 112.7512718 112.9560461 100.2643669
 117.5354831 117.5546708  99.1944903 118.2658219 117.2931996  99.7552607
 116.9261776 116.8175430  99.2346971 115.6170128 115.6954570  99.7919354
 114.8903291 115.5610535  99.1835846 115.2017415 116.0031399 100.5976073
 103.4400304 119.4144500 107.5566728 104.3603314 119.5923099 107.7506774
 103.4049887 118.4700545 107.4046427  96.4362377 117.3245535 100.1989509
  96.6548386 118.2562643 100.2177542  96.8488150 116.9653509 100.9844313
 101.3090242 112.8978741 109.5892258 101.2086969 113.8473097 109.5204349
 101.0911784 112.5696979 108.7168328 101.1721512 116.3275879 108.4057319
 100.6888594 117.1276239 108.6121208 101.2582451 116.3383824 107.4524763
  94.4407472 118.1604259  96.3279139  94.4178160 118.2591946  95.3761022
  94.7508108 119.0069410  96.6496305  97.0994849 120.2180414 100.4425753
  98.0538103 120.1864356 100.3755685  96.9007373 119.7571038 101.2575979
  97.6894232 118.7881530 103.0096551  98.5087121 119.2825609 103.0331388
  97.9631039 117.8713498 102.9814118  95.4545078 125.7600034  97.4595951
  95.3199546 125.0000434  96.8933949  95.0377141 126.4840933  96.9924740
 106.5904041 120.9436957  86.4672526 107.2939891 121.1486960  87.0830182
 105.8666690 121.5113719  86.7321610 107.4201852 116.6946818  92.5874796
 107.3637053 117.1515370  91.7482429 107.9730194 115.9337503  92.4097639
 115.5418995 115.2232623  95.9196207 114.9818553 115.2925813  96.6927769
 114.9362499 115.0473608  95.1995704  98.6114204 126.6569351  97.6714394
  98.4946588 127.6014783  97.5693084  97.7906650 126.3542912  98.0600193
 108.4990739 121.3819486  88.5170986 109.3336343 120.9500685  88.3348461
 108.3375082 121.2101500  89.4447881 108.1536631 117.8851600  89.8827326
 108.0985435 117.7195871  88.9415770 107.5282686 118.5927632  90.0389515
 105.4682538 120.1900511 109.2080888 106.3373698 120.3641164 108.8467523
 104.9889290 121.0094928 109.0856618  99.6368718 127.3097612 100.8870322
 100.5395965 127.3421223 101.2036817  99.4106088 126.3798063 100.9016658
 101.3922320 126.0628599  97.5480401 100.4417951 126.0630461  97.4344773
 101.6954806 125.3161334  97.0316435  97.2826637 110.2687281 107.8063762
  98.1458098 109.9124086 108.0167087  96.7092048 109.9301176 108.4939166
 117.1275014 131.8989137  98.6126163 117.7653424 131.7795885  97.9089503
 117.0095857 132.8469981  98.6714115 113.9364720 131.8516565  98.5487688
 113.5983232 131.7357630  97.6608223 114.8054488 131.4507731  98.5288694
 109.7951536 133.7052042  94.5384579 109.2316401 133.6141979  93.7700866
 109.6803931 132.8851946  95.0187071 107.3415968 135.2003234  97.3768799
 108.1337260 134.8594058  96.9615098 107.5812618 135.3098209  98.2970952
 115.3751094 137.3723010  89.8499044 114.7239074 137.9577090  89.4633057
 116.1695457 137.9029205  89.9094081 109.3006722 134.4612147  90.2486178
 110.0737598 133.9141134  90.1099054 109.6532121 135.3256396  90.4600639
 112.0647971 133.1665378 100.0454437 112.6611543 132.9421400  99.3311400
 112.1222943 132.4250123 100.6479885 111.6372999 130.6204813  87.8804628
 111.8898520 130.0986334  87.1188091 110.6997559 130.4570958  87.9831311
 116.6816282 129.6240591  95.6879371 117.4679372 129.2060014  95.3369788
 116.9454987 130.5286683  95.8561019 116.8526360 135.0613442  90.3868028
 116.2172193 135.1348068  91.0988933 116.5223766 135.6507040  89.7087107
 122.0824709 129.5615824  96.5912350 122.8149881 128.9915041  96.8250179
 121.3264065 129.1737425  97.0318855 111.3569288 132.5232919  90.0829003
 111.2405546 131.8477822  90.7510087 111.4671548 132.0365293  89.2661156
 113.7000829 131.9843066  93.7875692 113.3359036 131.4573687  94.4988613
 114.5567945 131.5941535  93.6142177 119.6050130 123.2737399 101.0506958
 119.2733455 124.1432810 100.8268173 119.0095743 122.9573683 101.7300989
 113.3406316 127.0132966  88.7837041 113.5080718 127.8813202  89.1507512
 113.1503485 127.1760247  87.8598330 116.0981649 135.4749945 100.4502871
 115.7982372 136.3774983 100.3418678 115.7532709 135.2082128 101.3024024
 109.5494131 131.9263741  96.4839575 108.6244627 131.7939955  96.6917267
 109.7978544 132.7057961  96.9809518 119.4978793 127.9932485  98.1300308
 118.5895670 127.9247893  97.8359069 119.4466389 128.4704430  98.9582134
 113.3195537 129.4690623  89.7683707 113.1995162 129.9147674  90.6069188
 112.6248125 129.8175941  89.2097245 106.9102942 131.5697015  97.3183364
 107.0395323 131.8231494  98.2322776 106.2300393 132.1624723  96.9988019
 121.3640439 126.1948923  99.9078182 120.7214820 126.4881456  99.2617977
 120.8595368 126.0801843 100.7131379 119.0180603 129.9412096  90.5964041
 119.9298459 130.1739483  90.4211739 118.5090250 130.5249141  90.0339120
 113.6552441 129.3009331 101.6058891 114.5013636 129.7248744 101.7493540
 113.5951079 128.6442955 102.2997454 117.6250185 134.9237915  97.9877623
 116.9959048 135.0883629  97.2853691 117.2375848 135.3379524  98.7588587
 116.8051886 126.9613699 103.2640065 116.5612818 127.7155760 102.7274340
 117.0811817 127.3399047 104.0987312 116.3616578 126.1170132  98.8453902
 115.5001057 126.4151386  99.1370640 116.3879013 126.3340531  97.9134935
 113.1778147 134.6612323  95.2527708 113.6416493 134.9400026  94.4632330
 112.9134945 133.7595767  95.0700799 110.0702228 134.2083804  98.1907471
 110.6403585 134.6371073  97.5524956 110.6610340 133.9266389  98.8891657
 112.1147033 130.7835475  92.0617273 112.8171077 131.2356519  92.5291199
 111.7827662 130.1419294  92.6897166 110.5627395 129.3747232 106.4368482
 109.9326055 130.0563513 106.6703879 110.4563483 129.2630313 105.4921621
 105.8572367 129.0419028  97.3634407 105.0671421 129.2976556  96.8874517
 106.3483615 129.8567366  97.4686447 107.8087113 129.4063607  94.3217883
 107.0118276 129.5182301  94.8401379 107.5812705 129.7450259  93.4558774
 104.1410070 129.2949518  99.7949397 104.3918109 130.1796528 100.0606973
 104.6769619 129.1154120  99.0224489 113.3540798 137.5976418  92.1379378
 113.2186473 138.4427954  92.5664226 113.8950611 137.7995695  91.3745312
 109.8408138 123.6767998 108.7993734 109.4475083 123.1234196 109.4741378
 110.6574278 123.9878576 109.1900251 106.8070195 135.1151856  92.7107303
 107.3194716 135.9095106  92.8612868 107.4592908 134.4178146  92.6440905
 108.6165080 138.2317612  94.7930057 108.7931708 139.1535577  94.6051040
 109.4121914 137.9176031  95.2224436 112.7576099 125.0925877 106.3913990
 113.4985812 125.6933030 106.3118453 112.9894021 124.3503515 105.8332033
 107.9017437 130.2782244 104.6692220 107.7870952 129.3767501 104.9699319
 107.0461954 130.5245941 104.3177036 109.7396396 139.7495786 100.7940399
 110.2903821 139.6212849 100.0217393 108.9007871 140.0490675 100.4435292
 116.7033262 121.1206980 100.6678272 116.3597531 122.0108621 100.5917382
 117.0712224 120.9308637  99.8047857 104.7719112 133.4440510  93.4866874
 105.6094334 133.8537519  93.2700582 104.9497380 132.5039952  93.4567068
 116.6683544 131.1115591  89.1750707 116.1530168 131.8820195  89.4139094
 116.3960853 130.4380727  89.7983768 114.2530655 125.9565292  94.2335945
 113.3972252 125.5672142  94.0541584 114.6657607 126.0357252  93.3735731
 115.7829802 123.4911635  98.6327505 115.2794598 123.4541770  97.8195310
 116.0760409 124.4004378  98.6924162 112.0272688 123.5750365  97.6393687
 112.8925685 123.3793173  97.2799576 112.0950197 123.3460716  98.5663044
 116.4569847 128.9842683  91.0010488 116.1519983 129.2988832  91.8520631
 117.4100290 129.0624103  91.0437821 114.9016279 135.1432906  92.6503442
 114.3737641 134.4085666  92.3376680 114.4003782 135.9207583  92.4043410
 119.8809125 133.3381927  97.7670488 119.2232800 134.0281188  97.8550617
 120.6849525 133.7278359  98.1104475 109.6335007 125.8052573  95.0110054
 110.2078759 125.5827754  94.2783247 110.2205989 125.8741267  95.7638655
 118.6914584 131.6926299  95.8174430 119.2046466 132.3256291  96.3196140
 119.3415808 131.0927495  95.4517790 109.9604594 127.8357034  89.0305939
 109.1241906 128.1731720  89.3515214 109.8209364 127.7006013  88.0933076
 111.9357675 122.6793821  93.7385123 111.2822087 122.3642839  93.1141738
 111.8938149 122.0569562  94.4644946 113.0468879 132.9613117  85.6538415
 112.1395941 132.7302370  85.8529564 113.5439911 132.1650736  85.8412397
 115.1695415 129.1675755  98.0632771 114.2517976 129.3890702  97.9054459
 115.5855559 129.2422065  97.2044478 115.9530463 130.5667171  93.1935451
 116.7002282 131.0788568  92.8842573 116.2222052 130.2451223  94.0539844
 114.2257113 133.0625711  90.1762405 113.3168332 132.7784744  90.2734875
 114.2552197 133.4824790  89.3165712 118.4009300 127.6024287  95.1754240
 117.6632057 127.0901673  95.5064483 118.6536073 127.1624669  94.3637517
 118.5020927 120.3800539  95.7696009 118.8079804 119.5197902  95.4821925
 119.2273532 120.9718159  95.5695003 104.7945283 130.7831225  94.1577607
 104.5969683 130.1900586  93.4328674 104.2391947 130.4783436  94.8753546
 112.7742007 130.6754332  96.2772201 112.8290617 129.7228168  96.2014677
 111.9633209 130.8313771  96.7613499 113.9233201 134.6034455  87.5150484
 113.4852631 133.8870314  87.0556121 114.6643642 134.8310570  86.9535575
 110.7134367 129.2931392  94.0362579 109.9002232 129.5925562  94.4427772
 111.2093361 128.8987080  94.7537062 112.8642945 139.2889149  95.9696844
 112.8219124 139.5149995  95.0405376 113.7805644 139.0552523  96.1182645
 116.3108579 129.7573216 102.8677473 116.6657966 129.9844689 103.7271939
 116.9580710 130.0891593 102.2454729 122.0406316 132.8791652  93.5726802
 121.9024214 133.0693248  92.6447992 121.6842534 133.6411035  94.0294853
 110.2048442 126.8649747  99.6523814 110.8447821 126.7238506  98.9546778
 109.3725972 126.5784261  99.2762416 110.9808746 136.1652178  95.7658807
 111.7749344 135.6702498  95.5641382 110.2700438 135.6370041  95.4026512
 107.2891509 130.3095259  91.8418559 106.3589097 130.2479715  92.0588522
 107.3848981 129.7871212  91.0455201 107.2077058 126.8350072  94.4296801
 107.4683875 127.7495405  94.3205962 108.0294230 126.3674515  94.5793414
 108.6801983 128.2487829 101.5995626 109.3525037 128.0405192 100.9508275
 107.8531770 128.0509915 101.1600858 114.5827555 124.8749770 103.6161287
 113.9355470 125.5739720 103.5225763 115.3528571 125.3085914 103.9837535
 114.7591690 132.7130535 101.6758106 115.6883750 132.8641695 101.5027074
 114.3382720 132.8014556 100.8206753 113.5580022 136.7381200  99.4456644
 113.4191107 136.3699984 100.3182582 112.7694618 137.2528839  99.2740602
 115.1085237 136.1162802  96.8345482 114.7735069 136.0763572  97.7303132
 114.6089182 135.4507518  96.3615892 109.0829481 131.5230432 102.3598063
 108.9449279 130.7910671 102.9609602 109.9934404 131.4339332 102.0782251
 118.0444428 133.4618837  87.1082541 117.4273599 132.7365665  87.0115594
 117.5760917 134.2228197  86.7649616 111.7111781 131.2350392 101.8481743
 112.4211400 130.5943584 101.8068361 111.6681089 131.4863287 102.7707923
 110.4240715 128.2215610 103.6677382 109.8878072 127.7706348 104.3198978
 109.8357424 128.3561518 102.9247846 109.8342974 127.6804261  86.2303846
 108.9572441 127.5593062  85.8666092 110.3100727 126.8890339  85.9782734
 101.3545114 132.4681421  96.3245353 102.0416154 132.1543151  95.7366368
 101.1993243 133.3722785  96.0512604 106.1579837 127.3571617 100.7530376
 106.0738025 126.7497287 100.0180786 105.3362543 127.8480636 100.7539873
 116.3303550 125.8425181  96.1200572 116.8272250 125.0895143  95.8001642
 115.5590532 125.8789497  95.5543781 124.1833308 131.5465546  97.7618863
 124.1723184 132.4290262  97.3912796 123.3150687 131.1937097  97.5673400
 117.4133331 134.5996868  93.6938995 116.4789610 134.7198330  93.5243699
 117.5910000 133.6969335  93.4299005 112.9138519 127.9842564  95.8472256
 112.5436307 127.4313604  96.5353162 113.4097612 127.3800697  95.2947256
 120.8005882 130.4414187  94.2289029 121.2666335 131.2742179  94.1549332
 121.2513383 129.9759169  94.9334288 118.7722545 122.8094774  98.2679930
 117.8585625 123.0399001  98.4362137 119.2015647 122.8933218  99.1193963
 118.5429004 130.9984666 100.7679824 117.8900454 131.2460574 100.1132277
 118.9209384 130.1848804 100.4342302 106.3395436 137.9776414  99.8758377
 106.9248873 137.2320102 100.0086281 106.1420274 138.2880371 100.7595041
 109.1934091 141.0127661  94.8920819 108.5244466 141.4973789  94.4084859
 109.0546961 141.2596882  95.8064198 100.9313091 130.5482014  98.5962820
 100.9697190 130.0145605  99.3899938 100.4253383 130.0217220  97.9773797
 108.3103853 125.3946555 102.0925362 108.3745179 126.2561385 101.6802760
 108.2470973 124.7820556 101.3597721 107.7856125 127.4669687 105.7398396
 108.4128164 127.0846764 106.3535921 106.9284044 127.2483889 106.1054089
 104.5621668 129.2746116  91.6716751 104.8575109 128.3656795  91.6183805
 103.6609704 129.2533856  91.3497754 108.0915915 127.3502113  97.6544300
 107.3702501 127.9638081  97.5151773 108.8809171 127.8859878  97.5760946
 110.8942229 124.6856539 103.9284952 111.4176630 124.9318836 104.6911261
 110.6754562 125.5176574 103.5088089 106.2909510 126.9560214  91.7956076
 105.9622216 126.0757593  91.6131182 106.6448880 126.9007883  92.6832466
 109.4051333 127.2433184  92.1631554 109.7447405 127.7719105  91.4410162
 109.8523453 127.5813590  92.9390121 112.0994774 125.6270234 101.6134622
 111.7591594 124.8278047 102.0155302 111.3933780 125.9271945 101.0411455
 112.7511245 122.7119547 100.0661945 113.5737315 122.2380025  99.9440836
 112.9949309 123.4910031 100.5660631 111.3919480 125.7407805  90.3624847
 112.1127842 126.1189058  89.8588564 110.7684784 126.4596682  90.4659825
 115.5350603 126.4452954  91.2983179 115.7514217 127.3277592  90.9972007
 115.0544670 126.0539168  90.5688821 110.2749824 129.4038667  97.8753924
 110.1294405 129.7178971  98.7678205 109.7975028 130.0223568  97.3224822
 112.1346207 126.3941215  97.9234813 112.1207776 125.4982309  97.5867111
 112.8518635 126.4011879  98.5573099 113.9872338 126.8278556  99.9687941
 113.7290116 127.7495626  99.9672271 113.4557378 126.4308990 100.6588405
 104.7495486 131.9444012 100.8141585 104.2048954 132.7203820 100.9461859
 105.6274836 132.2914816 100.6560706 111.5383103 125.2755596  93.1922383
 111.6599014 124.3472242  93.3913271 111.2485145 125.2894282  92.2800699
 114.4074293 122.9610506  96.3289103 114.4295990 123.0249839  95.3741083
 114.8242352 122.1215015  96.5229610 105.5361508 131.0713908 103.7071742
 104.7943244 131.2196543 104.2936372 105.2154253 131.3322174 102.8438491
 105.9818122 138.9579337  95.7382136 106.8076142 138.6583109  95.3580780
 105.6312174 138.1886959  96.1871925 110.9499655 138.3105805  97.8079810
 110.3279664 137.6476510  97.5082038 111.6204522 138.3366937  97.1253458
 104.1826727 136.8765663  96.6971070 103.3458635 136.4487838  96.5155071
 104.1550372 137.0698107  97.6341861 111.0224183 126.7887593 107.4012316
 111.0712338 127.6649716 107.0190086 111.5646697 126.2464986 106.8283959
 110.5113162 136.8609728  91.2838271 110.6601282 137.5445193  90.6304943
 111.3179605 136.8414818  91.7987726 113.2523471 127.5418966 104.1558675
 112.3826780 127.8352532 103.8841263 113.4882951 128.1259411 104.8765938
 108.2665795 132.8874906  92.2899340 108.0211837 131.9837236  92.4879550
 108.4361710 132.8892057  91.3478818 115.9562505 123.7598582 101.6724095
 116.4744449 124.4959609 101.3470584 115.6017638 124.0662576 102.5070854
 107.5361443 128.6203264  89.7885501 106.8430687 128.6947619  89.1325537
 107.2913194 127.8563607  90.3107018 116.2075099 120.1798865  97.1924992
 116.4876853 119.5122054  97.8185418 116.9925706 120.3727961  96.6799656
 120.0783957 128.6016499 100.9396567 121.0301380 128.7014597 100.9608791
 119.9087408 127.8094768 101.4494651 118.0998337 125.6872082 101.1255968
 117.5048269 125.9677095 100.4302456 117.8148034 126.1765983 101.8972709
 122.5572035 131.8222619 100.0538866 122.5248355 130.8838619 100.2398550
 123.1672659 131.9006655  99.3204691 114.3955366 130.6918672  86.0966071
 115.3414471 130.5624880  86.1654489 114.0169611 129.9533334  86.5735499
 122.7066524 128.6133662 100.0997150 122.1905572 127.8292119  99.9127079
 123.5906472 128.2852379 100.2643669 120.3677251 122.3574678  96.0592962
 120.1702072 122.0489766  96.9436294 120.9776956 123.0836317  96.1890892
 112.5798283 128.6168648  86.0320956 111.6729739 128.3201761  86.1083669
 112.8574264 128.3198466  85.1655242 103.4976224 129.9375011  96.4820002
 103.1779008 129.0840320  96.1894376 102.9509652 130.1523590  97.2377969
 107.2756131 132.6537452 100.1989509 107.4942141 133.5854560 100.2177542
 107.6881905 132.2945427 100.9844313 114.1960349 123.1605538  92.1865197
 113.3861077 122.8152623  92.5620443 114.8844766 122.8513081  92.7752809
 116.1250897 122.2383585  93.8089494 116.6781936 122.6579038  94.4679517
 116.3620984 121.3119333  93.8512450 111.3497068 125.4755583  86.1732935
 112.2116232 125.8010482  86.4328752 111.5347412 124.6887079  85.6606001
 103.3664484 133.5577923  98.4513124 102.6727955 133.1431876  97.9383078
 104.1137475 133.5998459  97.8546543 119.5029704 124.3484110  93.3168158
 118.9228373 125.0068914  92.9346210 119.2365637 123.5261454  92.9055575
 117.9533271 123.7489167  95.5189478 118.4533049 123.8605702  94.7103797
 118.5968879 123.4450220  96.1590287 105.2801226 133.4896177  96.3279139
 105.2571914 133.5883864  95.3761022 105.5901863 134.3361327  96.6496305
 107.9388604 135.5472332 100.4425753 108.8931858 135.5156274 100.3755685
 107.7401128 135.0862955 101.2575979 108.5287986 134.1173448 103.0096551
 109.3480875 134.6117526 103.0331388 108.8024794 133.2005416 102.9814118
 118.2854582 126.5084200  92.3724506 117.3980437 126.7933851  92.1544701
 118.7008571 126.3477963  91.5251783 121.6369118 126.5330721  96.0878845
 122.4129509 127.0227174  96.3603462 120.9117253 126.9588775  96.5450715
 124.0741677 127.2458340  97.1452786 124.6686168 127.0054076  96.4346094
 124.1468261 126.5265471  97.7726322 106.2938833 141.0891951  97.4595951
 106.1593301 140.3292352  96.8933949 105.8770895 141.8132851  96.9924740
 117.4297796 136.2728875  86.4672526 118.1333646 136.4778877  87.0830182
 116.7060445 136.8405637  86.7321610 118.2595606 132.0238736  92.5874796
 118.2030807 132.4807287  91.7482429 118.8123949 131.2629421  92.4097639
 122.0700412 127.8128468  93.4124916 121.8137346 127.4125104  94.2433124
 121.4453280 128.5272262  93.2875055 126.3812750 130.5524541  95.9196207
 125.8212308 130.6217730  96.6927769 125.7756253 130.3765526  95.1995704
 109.4507959 141.9861268  97.6714394 109.3340343 142.9306701  97.5693084
 108.6300405 141.6834830  98.0600193 118.9930385 133.2143517  89.8827326
 118.9379189 133.0487789  88.9415770 118.3676441 133.9219550  90.0389515
 103.7822900 128.4511582 103.7088748 104.4281764 127.9410536 104.1975973
 103.5740051 129.1880263 104.2832173 112.3026511 122.7151626  89.4612644
 112.2905181 123.6593466  89.6180915 113.1949933 122.5321772  89.1672105
 116.1178630 119.3094403  93.7158581 115.3511026 118.7552890  93.8615263
 116.5289335 119.3816272  94.5772732 108.1220391 125.5979199 107.8063762
 108.9851853 125.2416004 108.0167087 107.5485802 125.2593094 108.4939166
  41.2518734   1.6007836  85.3371470  41.8897144   1.4814584  84.6334810
  41.1339577   2.5488680  85.3959422  38.0608440   1.5535264  85.2732994
  37.7226951   1.4376329  84.3853529  38.9298208   1.1526429  85.2534000
  33.9195256   3.4070741  81.2629885  33.3560121   3.3160678  80.4946173
  33.8047651   2.5870645  81.7432378  38.5428223   2.7070116  91.2319200
  38.5316864   2.3122914  90.3599704  38.7048862   1.9736189  91.8252971
  31.4659688   4.9021932  84.1014106  32.2580979   4.5612757  83.6860405
  31.7056338   5.0116907  85.0216259  39.4994814   7.0741708  76.5744350
  38.8482794   7.6595789  76.1878364  40.2939177   7.6047903  76.6339388
  33.4250441   4.1630846  76.9731485  34.1981317   3.6159833  76.8344360
  33.7775840   5.0275095  77.1845946  35.2635484   5.4907228  90.1798384
  34.9725350   6.3952859  90.0645050  35.8992468   5.5323755  90.8942453
  36.1891691   2.8684076  86.7699743  36.7855263   2.6440099  86.0556706
  36.2466662   2.1268822  87.3725191  35.7616719   0.3223512  74.6049934
  36.0142240  -0.1994967  73.8433397  34.8241278   0.1589657  74.7076618
  40.8060002  -0.6740710  82.4124678  41.5923091  -1.0921287  82.0615095
  41.0698706   0.2305382  82.5806326  40.9770079   4.7632140  77.1113335
  40.3415912   4.8366767  77.8234239  40.6467486   5.3525739  76.4332414
  46.2068429  -0.7365477  83.3157656  46.9393601  -1.3066260  83.5495486
  45.4507785  -1.1243876  83.7564162  35.4813008   2.2251618  76.8074309
  35.3649266   1.5496521  77.4755394  35.5915268   1.7383992  75.9906462
  37.8244549   1.6861765  80.5120999  37.4602756   1.1592386  81.2233920
  38.6811665   1.2960234  80.3387484  43.7293850  -7.0243903  87.7752265
  43.3977174  -6.1548492  87.5513480  43.1339463  -7.3407619  88.4546295
  37.4650036  -3.2848336  75.5082347  37.6324438  -2.4168099  75.8752818
  37.2747205  -3.1221054  74.5843636  40.2225369   5.1768643  87.1748178
  39.9226092   6.0793682  87.0663985  39.8776429   4.9100827  88.0269330
  33.6737851   1.6282440  83.2084882  32.7488347   1.4958654  83.4162574
  33.9222264   2.4076659  83.7054824  43.6222513  -2.3048816  84.8545615
  42.7139390  -2.3733408  84.5604376  43.5710109  -1.8276871  85.6827440
  37.4439257  -0.8290678  76.4929014  37.3238882  -0.3833627  77.3314494
  36.7491845  -0.4805360  75.9342552  31.0346662   1.2715714  84.0428671
  31.1639043   1.5250193  84.9568083  30.3544113   1.8643422  83.7233326
  35.2046149  11.9412964  80.1419145  35.1270179  12.8920789  80.2207626
  34.6007793  11.5958836  80.7994072  37.6963379  -0.8859171  92.7980512
  36.9196713  -0.3265251  92.7883377  38.3353942  -0.4002388  93.3195382
  45.4884159  -4.1032378  86.6323489  44.8458540  -3.8099845  85.9863283
  44.9839088  -4.2179458  87.4376685  43.1424323  -0.3569205  77.3209348
  44.0542179  -0.1241818  77.1457046  42.6333970   0.2267839  76.7584427
  35.9509751   1.9226283  92.3598479  36.6924435   2.4611326  92.0833303
  35.2446736   2.5492571  92.5170031  41.4265091   4.0655423  90.9570641
  41.8348447   3.6237834  90.2125273  40.7042352   3.4908051  91.2104834
  37.7796161  -0.9971970  88.3304198  38.6257356  -0.5732557  88.4738847
  37.7194798  -1.6538346  89.0242761  41.7493905   4.6256614  84.7122930
  41.1202768   4.7902328  84.0098997  41.3619567   5.0398223  85.4833894
  45.6283137   5.5611051  82.0667293  44.9434175   5.9409953  81.5164327
  45.7126986   6.1706378  82.7999241  40.9295606  -3.3367602  89.9885371
  40.6856538  -2.5825541  89.4519647  41.2055537  -2.9582254  90.8232618
  42.8834069   3.2071010  88.6662637  43.0950964   3.8502770  87.9897018
  42.8363817   2.3733327  88.1984567  40.4860298  -4.1811169  85.5699209
  39.6244777  -3.8829915  85.8615947  40.5122732  -3.9640770  84.6380242
  37.3021867   4.3631022  81.9773015  37.7660213   4.6418725  81.1877637
  37.0378665   3.4614466  81.7946105  34.1945948   3.9102503  84.9152778
  34.7647305   4.3389772  84.2770262  34.7854060   3.6285088  85.6136964
  36.2390753   0.4854174  78.7862580  36.9414797   0.9375218  79.2536506
  35.9071382  -0.1562007  79.4142473  34.6871115  -0.9234069  93.1613789
  34.0569775  -0.2417788  93.3949186  34.5807203  -1.0350988  92.2166927
  43.9979897   6.0842966  86.8384994  44.8197340   5.6823153  86.5567676
  43.9942300   5.9811200  87.7901110  31.9330833  -0.8917694  81.0463190
  31.1361996  -0.7799000  81.5646686  31.7056425  -0.5531042  80.1804081
  37.7636500   5.6327009  88.9945705  37.8280933   6.0947416  89.8303876
  37.0547424   5.0024374  89.1228014  52.0885890   2.4281714  83.1869966
  51.3349598   1.8589112  83.0313970  52.2233431   2.3944379  84.1340600
  37.4784518   7.2995117  78.8624685  37.3430193   8.1446652  79.2909533
  38.0194330   7.5014394  78.0990619  30.9313915   4.8170555  79.4352610
  31.4438436   5.6113805  79.5858175  31.5836628   4.1196845  79.3686212
  32.7408800   7.9336311  81.5175363  32.9175428   8.8554276  81.3296347
  33.5365633   7.6194730  81.9469743  32.0261156  -0.0199057  91.3937526
  31.9114672  -0.9213800  91.6944625  31.1705674   0.2264640  91.0422343
  39.1052994   7.9218683  92.9925027  38.6616848   7.1355062  92.6745932
  39.7670208   8.1097834  92.3268918  33.8640115   9.4514485  87.5185706
  34.4147541   9.3231548  86.7462699  33.0251591   9.7509374  87.1680598
  41.2034232   8.2021483  91.0206428  41.1852708   9.0230364  90.5286697
  42.1254152   8.0775558  91.2456569  37.6607286   5.7165613  91.8629937
  38.1935623   4.9553901  91.6329245  37.1321368   5.4239264  92.6054091
  28.8962832   3.1459209  80.2112181  29.7338054   3.5556217  79.9945888
  29.0741100   2.2058651  80.1812374  40.7927264   0.8134290  75.8996014
  40.2773888   1.5838894  76.1384401  40.5204573   0.1399426  76.5229075
  38.3774375  -4.3416010  80.9581252  37.5215971  -4.7309159  80.7786891
  38.7901327  -4.2624049  80.0981037  45.7661538   3.5666644  77.8349187
  44.9890981   3.2277804  77.3904349  46.4453019   3.5719267  77.1604152
  40.5813567  -1.3138618  77.7255795  40.2763703  -0.9992469  78.5765938
  41.5344009  -1.2357198  77.7683128  39.0259999   4.8451605  79.3748749
  38.4981361   4.1104365  79.0621986  38.5247502   5.6226281  79.1288717
  44.0052845   3.0400626  84.4915795  43.3476520   3.7299887  84.5795924
  44.8093244   3.4297058  84.8349781  42.8158304   1.3944998  82.5419737
  43.3290186   2.0274990  83.0441446  43.4659528   0.7946194  82.1763097
  34.0848314  -2.4624268  75.7551245  33.2485626  -2.1249581  76.0760520
  33.9453084  -2.5975288  74.8178382  37.1712599   2.6631815  72.3783722
  36.2639661   2.4321069  72.5774871  37.6683631   1.8669435  72.5657703
  39.2939135  -1.1305546  84.7878077  38.3761696  -0.9090599  84.6299765
  39.7099278  -1.0559236  83.9289785  40.0774183   0.2685870  79.9180758
  40.8246002   0.7807267  79.6087880  40.3465772  -0.0530078  80.7785151
  38.3500833   2.7644410  76.9007712  37.4412052   2.4803443  76.9980182
  38.3795917   3.1843489  76.0411019  43.5820100   6.3751000  80.6698879
  43.1282427   5.5341910  80.7264070  42.9514067   7.0112398  81.0073660
  42.5253020  -2.6957014  81.8999547  41.7875777  -3.2079628  82.2309789
  42.7779793  -3.1356633  81.0882824  42.0253039   8.2127496  81.6048698
  42.3176014   8.7732554  80.8861063  42.5351660   8.5056057  82.3601857
  36.8985727   0.3773031  83.0017507  36.9534337  -0.5753133  82.9259984
  36.0876929   0.5332470  83.4858806  38.0476921   4.3053154  74.2395790
  37.6096350   3.5889013  73.7801428  38.7887361   4.5329269  73.6780882
  34.8378087  -1.0049909  80.7607886  34.0245952  -0.7055739  81.1673078
  35.3337081  -1.3994221  81.4782368  36.9886665   8.9907848  82.6942151
  36.9462843   9.2168694  81.7650683  37.9049363   8.7571222  82.8427952
  40.4352298  -0.5408085  89.5922780  40.7901686  -0.3136612  90.4517246
  41.0824430  -0.2089708  88.9700035  46.1650035   2.5810351  80.2972109
  46.0267934   2.7711947  79.3693298  45.8086254   3.3429734  80.7540160
  46.1919415   4.6486878  85.3083380  46.6255922   4.5562167  86.1566435
  46.9050996   4.6244378  84.6703396  35.1052465   5.8670877  82.4904113
  35.8993064   5.3721197  82.2886688  34.3944158   5.3388740  82.1271819
  39.9247310   8.2488972  86.8416481  39.9784332   8.8179908  87.6094197
  39.0562091   8.4190857  86.4770518  31.4135229   0.0113958  78.5663866
  30.4832817  -0.0501586  78.7833828  31.5092701  -0.5110089  77.7700507
  47.0534965   4.6910579  87.8416266  47.2470855   5.5956389  88.0875541
  46.9535583   4.2317998  88.6754851  38.7071275  -5.4231531  90.3406593
  38.0599190  -4.7241581  90.2471070  39.4772291  -4.9895387  90.7082841
  42.1150073   4.8417321  93.4157146  41.9635580   4.6127873  92.4987230
  42.1054753   5.7987923  93.4288491  38.8835410   2.4149234  88.4003413
  39.8127470   2.5660394  88.2272380  38.4626440   2.5033255  87.5452059
  37.6823741   6.4399899  86.1701951  37.5434827   6.0718683  87.0427889
  36.8938338   6.9547538  85.9985908  38.2771893  11.5408995  77.5127487
  38.4523649  11.0697038  78.3273110  37.5904681  12.1674761  77.7408748
  39.2328957   5.8181501  83.5590788  38.8978789   5.7782271  84.4548438
  38.7332902   5.1526217  83.0861199  33.2073200   1.2249131  89.0843369
  33.0692998   0.4929370  89.6854909  34.1178124   1.1358031  88.8027557
  42.1688148   3.1637536  73.8327848  41.5517319   2.4384364  73.7360901
  41.7004637   3.9246896  73.4894922  35.8355501   0.9369091  88.5727049
  36.5455120   0.2962283  88.5313668  35.7924809   1.1881985  89.4953230
  43.8242280   7.8736444  91.4933628  43.7654826   7.1895664  90.8264211
  44.2261798   8.6155434  91.0414254  34.5484435  -2.0765692  90.3922689
  34.0121792  -2.5274953  91.0444285  33.9601144  -1.9419783  89.6493153
  32.8432979  14.6898358  84.2867347  33.0829577  15.3216882  84.9646366
  32.0002175  14.3386398  84.5732707  43.8259687   5.8376028  89.7247608
  42.9386466   5.5001950  89.8474007  44.3958238   5.1059059  89.9616373
  37.3560841  10.4977480  86.6908851  37.2831012  11.3032452  87.2028156
  36.9138234  10.6969446  85.8656873  37.1450620   9.7349250  80.2011673
  36.3618142  10.2770930  80.2949897  37.8443365  10.2523230  80.6005914
  40.4547270  -4.4556120  82.8445878  40.9515970  -5.2086158  82.5246948
  39.6834252  -4.4191804  82.2789087  48.3077028   1.2484245  84.4864170
  48.2966904   2.1308961  84.1158103  47.4394407   0.8955796  84.2918707
  39.8159524  10.3964314  88.8467010  40.5287496  11.0311779  88.7742911
  39.3249553  10.4928180  88.0307012  41.5377051   4.3015567  80.4184302
  40.6033330   4.4217029  80.2489006  41.7153719   3.3988034  80.1544311
  37.0382239  -2.3138737  82.5717563  36.6680027  -2.8667697  83.2598468
  37.5341331  -2.9180604  82.0192563  44.9249602   0.1432886  80.9534336
  45.3910054   0.9760878  80.8794638  45.3757103  -0.3222132  81.6579594
  34.8671438   8.1458758  89.6672581  35.5680897   8.7795241  89.8201975
  34.3966553   8.4873489  88.9068220  42.9925833   6.4876707  77.9520488
  43.2685677   6.3733302  78.8614362  42.1230332   6.0894192  77.9132661
  42.8966265  -7.4886527  84.9925237  41.9829345  -7.2582300  85.1607444
  43.3259366  -7.4048083  85.8439269  42.6672724   0.7003365  87.4925131
  42.0144174   0.9479273  86.8377584  43.0453103  -0.1132497  87.1587608
  39.6279897  10.7363058  81.5953301  39.8102292   9.9184714  82.0581054
  40.4512883  10.9530751  81.1578191  39.9622063   9.6631243  78.8568350
  40.4909829   9.1523698  78.2438512  40.2250282   9.3473774  79.7213883
  38.7160297   1.4423176  93.9791168  38.0400934   1.3417306  94.6493543
  39.5387930   1.2862390  94.4427165  30.4639156   7.6795113  86.6003683
  31.0492592   6.9338801  86.7331588  30.2663994   7.9899069  87.4840347
  33.3177811  10.7146360  81.6166126  32.6488186  11.1992488  81.1330166
  33.1790681  10.9615581  82.5309504  37.4583079  12.7490104  88.2148784
  38.0101387  12.9121725  88.9797869  37.7989273  13.3394541  87.5428809
  42.3093954   7.5751361  94.0697439  42.8533858   8.1881319  93.5752393
  41.7280799   8.1330940  94.5864452  40.5951467  10.6972079  85.2012466
  40.4702606   9.8961819  84.6923412  41.2530558  11.1918273  84.7126436
  42.6586375   8.4981099  86.8292016  41.7116711   8.3786450  86.7570343
  43.0069148   7.6103597  86.9118278  39.6632808   8.2933815  83.0296369
  39.5157771   7.3650523  83.2103939  40.4886302   8.3153906  82.5453444
  43.2666930   9.1162374  84.1161241  44.1913478   8.9105236  83.9785693
  43.0982234   8.8678775  85.0250583  39.6594323  -3.8528347  78.0228486
  39.8757937  -2.9703709  77.7217314  39.1788390  -4.2442133  77.2934128
  34.3993544  -0.8942634  84.5999230  34.2538125  -0.5802331  85.4923512
  33.9218748  -0.2757733  84.0470129  38.1116058  -3.4702745  86.6933247
  37.8533836  -2.5485675  86.6917578  37.5801098  -3.8672311  87.3833712
  43.0562246   9.6348042  79.4723333  43.2299124   9.0694464  78.7197185
  43.5491138  10.4348937  79.2902823  28.8739206   1.6462711  87.5386892
  28.3292674   2.4222519  87.6707166  29.7518556   1.9933515  87.3806013
  48.9101638   2.3984465  81.0913633  49.3532784   1.6491790  80.6932756
  48.0328148   2.3894601  80.7087365  44.0437419   8.9514806  76.5720231
  44.7388324   9.5721499  76.7907546  44.3860569   8.1010157  76.8472609
  29.6605228   0.7732607  90.4317048  28.9186964   0.9215242  91.0181679
  29.3397972   1.0340873  89.5683798  45.9428842   6.4014512  78.1007562
  46.4680166   6.7401784  77.3756882  45.8551195   5.4661527  77.9170696
  37.6048891  10.3148585  90.2297438  37.9136017  10.0697732  91.1020138
  38.4024373  10.5195224  89.7416309  37.6269503  12.4686495  82.4602815
  37.1874493  11.9762874  83.1535672  38.3777620  11.9259463  82.2194890
  30.1061842   8.6598036  82.4627443  30.9319862   8.3601808  82.0826087
  29.7555894   7.8905658  82.9117232  35.0743375   8.0124504  84.5325117
  34.4523384   7.3495209  84.2327345  35.7448242   8.0385636  83.8498764
  28.3070447   6.5784362  83.4216377  27.4702355   6.1506537  83.2400378
  28.2794092   6.7716806  84.3587168  45.6322748   7.0347415  93.4058760
  44.8418292   7.0171554  92.8663259  45.3956103   7.5735709  94.1607796
  45.7520623   3.8839882  90.7191488  45.8018628   3.7189889  91.6607011
  45.6434547   3.0167141  90.3289369  34.6356882   6.5628427  78.0083577
  34.7845002   7.2463892  77.3550250  35.4423325   6.5433517  78.5233033
  43.0424386  -0.1329190  92.0350795  43.9434248  -0.2722726  91.7434793
  43.1172360   0.0325264  92.9748973  37.3767191  -2.7562336  90.8803981
  36.5070500  -2.4628770  90.6086570  37.6126671  -2.1721891  91.6011245
  47.2538820   6.3036823  90.9633510  46.9623628   6.6666804  91.7996971
  46.6410951   5.5903831  90.7846842  48.4534502   3.8689703  83.4836080
  49.2881394   4.3079507  83.6473640  48.5893631   3.3928356  82.6644326
  45.5026008   1.4269438  89.4313568  45.9780130   1.6197084  88.6232419
  44.5791574   1.4828624  89.1856952  32.3909515   2.5893605  79.0144646
  32.1455557   1.6855935  79.2124856  32.5605429   2.5910755  78.0724124
  40.0806225  -6.5382719  88.3969402  40.5988169  -5.8021692  88.0715890
  39.7261357  -6.2318725  89.2316161  38.1352287   9.0576558  75.4795325
  37.5626254   9.6766745  75.0265797  38.7085081   9.6075919  76.0135247
  44.2027677  -1.6964802  87.6641873  45.1545100  -1.5966705  87.6854098
  44.0331128  -2.4886534  88.1739958  42.2242057  -4.6109219  87.8501274
  41.6291989  -4.3304206  87.1547763  41.9391753  -4.1215318  88.6218016
  41.3549547   9.3413708  76.6103907  42.2880220   9.2759270  76.8136782
  41.2672760  10.1769975  76.1518440  43.9837564   8.6579578  73.5707855
  43.9051195   8.3239442  74.4643612  44.8047231   9.1501346  73.5699327
  46.6815755   1.5241318  86.7784173  46.6492075   0.5857318  86.9643857
  47.2916379   1.6025354  86.0449998  38.5199086   0.3937370  72.8211377
  39.4658191   0.2643579  72.8899795  38.1413331  -0.3447968  73.2980805
  46.8310244  -1.6847639  86.8242456  46.3149292  -2.4689182  86.6372385
  47.7150192  -2.0128922  86.9888976  44.4920970  -7.9406623  82.7838269
  44.2945792  -8.2491535  83.6681601  45.1020676  -7.2144985  82.9136199
  52.4992305   2.5857324  85.9190210  53.2295693   2.3242612  86.4797913
  51.8899250   1.8486046  85.9592278  50.5807602   0.7265187  86.5164661
  49.8540766   0.5921152  85.9081153  50.1654889   1.0342016  87.3221379
  38.4037778   4.4455117  94.2812034  39.3240788   4.6233716  94.4752081
  38.3687361   3.5011162  94.1291733  36.7042003  -1.6812653  72.7566262
  35.7973458  -1.9779540  72.8328976  36.9817984  -1.9782835  71.8900549
  31.3999851   2.3556151  86.9234815  31.6185861   3.2873259  86.9422849
  31.8125625   1.9964126  87.7089619  36.2727716  -2.0710643  96.3137564
  36.1724443  -1.1216286  96.2449655  36.0549258  -2.3992404  95.4413634
  27.4908203   3.2596622  85.1758430  26.7971675   2.8450575  84.6628385
  28.2381194   3.3017158  84.5791849  43.6273424  -5.9497191  80.0413465
  43.0472093  -5.2912387  79.6591517  43.3609357  -6.7719847  79.6300882
  42.0776991  -6.5492134  82.2434785  42.5776769  -6.4375599  81.4349104
  42.7212598  -6.8531081  82.8835593  36.1358986   1.3586496  95.1302626
  35.6526068   2.1586856  95.3366515  36.2219925   1.3694441  94.1770070
  29.4044946   3.1914876  83.0524445  29.3815634   3.2902563  82.1006328
  29.7145582   4.0380026  83.3741611  32.0632324   5.2491031  87.1671060
  33.0175577   5.2174973  87.1000991  31.8644847   4.7881654  87.9821286
  32.6531706   3.8192147  89.7341857  33.4724595   4.3136225  89.7576695
  32.9268514   2.9024115  89.7059425  42.4098302  -3.7897101  79.0969813
  41.5224157  -3.5047450  78.8790008  42.8252291  -3.9503338  78.2497090
  45.7612838  -3.7650580  82.8124152  46.5373228  -3.2754128  83.0848769
  45.0360972  -3.3392526  83.2696022  48.1985397  -3.0522961  83.8698093
  48.7929888  -3.2927225  83.1591401  48.2711981  -3.7715830  84.4971629
  30.4182553  10.7910650  84.1841258  30.2837021  10.0311051  83.6179256
  30.0014615  11.5151550  83.7170046  41.5541516   5.9747574  73.1917833
  42.2577366   6.1797576  73.8075488  40.8304164   6.5424336  73.4566916
  42.3839326   1.7257435  79.3120103  42.3274527   2.1825986  78.4727735
  42.9367668   0.9648119  79.1342946  46.1944132  -2.4852833  80.1370223
  45.9381066  -2.8856198  80.9678430  45.5697000  -1.7709039  80.0120362
  50.5056470   0.2543240  82.6441514  49.9456028   0.3236429  83.4173076
  49.8999973   0.0784225  81.9241010  33.5751678  11.6879967  84.3959700
  33.4584063  12.6325400  84.2938390  32.7544125  11.3853529  84.7845499
  43.4628213   6.4130103  75.2416293  44.2973817   5.9811301  75.0593768
  43.3012556   6.2412117  76.1693187  43.1174105   2.9162216  76.6072632
  43.0622909   2.7506488  75.6661076  42.4920160   3.6238249  76.7634822
  40.4320012   5.2211128  95.9326195  41.3011172   5.3951780  95.5712830
  39.9526764   6.0405545  95.8101924  34.6006193  12.3408229  87.6115629
  35.5033439  12.3731839  87.9282124  34.3743563  11.4108680  87.6261964
  36.3559795  11.0939216  84.2725707  35.4055426  11.0941077  84.1590080
  36.6592281  10.3471950  83.7561742  49.3821977  18.0362034  91.2319200
  49.3710618  17.6414832  90.3599704  49.5442617  17.3028106  91.8252971
  42.3053442  20.2313850  84.1014106  43.0974734  19.8904675  83.6860405
  42.5450092  20.3408825  85.0216259  46.1029239  20.8199146  90.1798384
  45.8119105  21.7244776  90.0645050  46.7386223  20.8615673  90.8942453
  47.0285445  18.1975994  86.7699743  47.6249018  17.9732016  86.0556706
  47.0860417  17.4560740  87.3725191  51.6453757  14.6551208  82.4124678
  52.4316846  14.2370631  82.0615095  51.9092461  15.5597300  82.5806326
  57.0462184  14.5926441  83.3157656  57.7787356  14.0225658  83.5495486
  56.2901539  14.2048041  83.7564162  54.5687604   8.3048015  87.7752265
  54.2370929   9.1743426  87.5513480  53.9733217   7.9884299  88.4546295
  54.4616267  13.0243101  84.8545615  53.5533145  12.9558510  84.5604376
  54.4103863  13.5015046  85.6827440  48.5357133  14.4432747  92.7980512
  47.7590467  15.0026667  92.7883377  49.1747696  14.9289530  93.3195382
  56.3277914  11.2259540  86.6323489  55.6852294  11.5192073  85.9863283
  55.8232842  11.1112460  87.4376685  46.7903505  17.2518200  92.3598479
  47.5318190  17.7903244  92.0833303  46.0840491  17.8784489  92.5170031
  52.2658845  19.3947341  90.9570641  52.6742201  18.9529751  90.2125273
  51.5436107  18.8199968  91.2104834  48.6189915  14.3319947  88.3304198
  49.4651110  14.7559361  88.4738847  48.5588553  13.6753572  89.0242761
  51.7689361  11.9924316  89.9885371  51.5250292  12.7466376  89.4519647
  52.0449291  12.3709663  90.8232618  53.7227823  18.5362928  88.6662637
  53.9344719  19.1794688  87.9897018  53.6757572  17.7025245  88.1984567
  51.3254052  11.1480749  85.5699209  50.4638531  11.4462002  85.8615947
  51.3516487  11.3651148  84.6380242  45.0339703  19.2394421  84.9152778
  45.6041060  19.6681689  84.2770262  45.6247815  18.9577006  85.6136964
  45.5264869  14.4057848  93.1613789  44.8963530  15.0874129  93.3949186
  45.4200957  14.2940930  92.2166927  40.8209842  14.0729644  84.0879713
  40.0308896  14.3287173  83.6119824  41.3121089  14.8877982  84.1931754
  48.6030255  20.9618927  88.9945705  48.6674687  21.4239334  89.8303876
  47.8941179  20.3316292  89.1228014  39.1047545  14.3260135  86.5194704
  39.3555583  15.2107145  86.7852280  39.6407093  14.1464736  85.7469796
  62.9279644  17.7573632  83.1869966  62.1743353  17.1881030  83.0313970
  63.0627185  17.7236297  84.1340600  44.8045612   8.7078614  95.5239040
  44.4112558   8.1544813  96.1986684  45.6211752   9.0189193  95.9145558
  47.7213573  10.1236493  93.1159297  48.4623286  10.7243646  93.0363759
  47.9531496   9.3814131  92.5577339  42.8654911  15.3092861  91.3937526
  42.7508426  14.4078118  91.6944625  42.0099429  15.5556557  91.0422343
  49.9446749  23.2510601  92.9925027  49.5010603  22.4646979  92.6745932
  50.6063962  23.4389751  92.3268918  44.7033870  24.7806402  87.5185706
  45.2541295  24.6523466  86.7462699  43.8645346  25.0801291  87.1680598
  52.0427987  23.5313401  91.0206428  52.0246462  24.3522282  90.5286697
  52.9647907  23.4067476  91.2456569  48.5001041  21.0457530  91.8629937
  49.0329378  20.2845818  91.6329245  47.9715122  20.7531182  92.6054091
  51.6670736   6.1517596  87.3923578  51.3235005   7.0419238  87.3162689
  52.0349698   5.9619254  86.5293163  49.2168130  10.9875908  80.9581252
  48.3609726  10.5982759  80.7786891  49.6295081  11.0667869  80.0981037
  50.7467276   8.5222251  85.3572812  50.2432072   8.4852387  84.5440617
  51.0397883   9.4314994  85.4169468  46.9910162   8.6060981  84.3638993
  47.8563159   8.4103790  84.0044883  47.0587671   8.3771333  85.2908350
  44.5972481  10.8363189  81.7355360  45.1716233  10.6138371  81.0028553
  45.1843464  10.9051884  82.4883962  46.8995149   7.7104438  80.4630430
  46.2459561   7.3953455  79.8387044  46.8575623   7.0880178  81.1890253
  50.1332889  14.1986372  84.7878077  49.2155451  14.4201319  84.6299765
  50.5493033  14.2732682  83.9289785  53.3646774  12.6334903  81.8999547
  52.6269531  12.1212290  82.2309789  53.6173548  12.1935285  81.0882824
  53.4658402   5.4111155  82.4941316  53.7717278   4.5508519  82.2067231
  54.1911006   6.0028776  82.2940310  47.7379481  15.7064949  83.0017507
  47.7928091  14.7538785  82.9259984  46.9270683  15.8624388  83.4858806
  51.2746053  14.7883833  89.5922780  51.6295441  15.0155306  90.4517246
  51.9218184  15.1202210  88.9700035  45.1685916  11.8960364  86.3769121
  45.8085295  11.7549123  85.6792084  44.3363447  11.6094877  86.0007723
  42.1714532  11.8660689  81.1542108  42.4321350  12.7806022  81.0451268
  42.9931705  11.3985131  81.3038721  43.6439458  13.2798446  88.3240932
  44.3162511  13.0715808  87.6753581  42.8169244  13.0820532  87.8846165
  57.8928719  20.0202496  87.8416266  58.0864609  20.9248307  88.0875541
  57.7929337  19.5609915  88.6754851  49.5465030   9.9060387  90.3406593
  48.8992945  10.6050337  90.2471070  50.3166045  10.3396531  90.7082841
  52.9543828  20.1709239  93.4157146  52.8029334  19.9419791  92.4987230
  52.9448507  21.1279840  93.4288491  49.7229164  17.7441152  88.4003413
  50.6521224  17.8952311  88.2272380  49.3020194  17.8325173  87.5452059
  48.5217496  21.7691816  86.1701951  48.3828582  21.4010601  87.0427889
  47.7332092  22.2839456  85.9985908  44.0466955  16.5541049  89.0843369
  43.9086753  15.8221288  89.6854909  44.9571878  16.4649949  88.8027557
  46.6749256  16.2661008  88.5727049  47.3848874  15.6254200  88.5313668
  46.6318564  16.5173903  89.4953230  54.6636034  23.2028362  91.4933628
  54.6048580  22.5187582  90.8264211  55.0655553  23.9447352  91.0414254
  45.3878190  13.2526226  90.3922689  44.8515547  12.8016965  91.0444285
  44.7994898  13.3872135  89.6493153  54.6653442  21.1667946  89.7247608
  53.7780220  20.8293867  89.8474007  55.2351993  20.4350977  89.9616373
  36.3182589  17.4992037  83.0490659  37.0053629  17.1853767  82.4611675
  36.1630717  18.4033402  82.7757911  41.1217311  12.3882234  87.4775683
  41.0375500  11.7807903  86.7426093  40.3000017  12.8791252  87.4785179
  51.2941025  10.8735797  82.8445878  51.7909724  10.1205760  82.5246948
  50.5228006  10.9100114  82.2789087  59.1470782  16.5776163  84.4864170
  59.1360658  17.4600878  84.1158103  58.2788162  16.2247714  84.2918707
  47.8775993  13.0153180  82.5717563  47.5073781  12.4624221  83.2598468
  48.3735086  12.4111314  82.0192563  45.7065192  23.4750675  89.6672581
  46.4074652  24.1087158  89.8201975  45.2360307  23.8165407  88.9068220
  53.7360020   7.8405391  84.9925237  52.8223099   8.0709618  85.1607444
  54.1653121   7.9243835  85.8439269  53.5066478  16.0295283  87.4925131
  52.8537928  16.2771190  86.8377584  53.8846858  15.2159421  87.1587608
  49.5554051  16.7715094  93.9791168  48.8794688  16.6709223  94.6493543
  50.3781685  16.6154308  94.4427165  41.3032910  23.0087030  86.6003683
  41.8886347  22.2630718  86.7331588  41.1057749  23.3190987  87.4840347
  35.8950565  15.5792631  85.3208127  35.9334664  15.0456221  86.1145245
  35.3890858  15.0527836  84.7019104  48.2976834  28.0782021  88.2148784
  48.8495142  28.2413643  88.9797869  48.6383027  28.6686459  87.5428809
  43.2741327  10.4257171  88.8170669  43.3382654  11.2872002  88.4048067
  43.2108447   9.8131173  88.0843027  42.7493600  12.4980304  92.4643703
  43.3765638  12.1157381  93.0781227  41.8921519  12.2794506  92.8299396
  53.1487708  22.9043279  94.0697439  53.6927612  23.5173237  93.5752393
  52.5674553  23.4622857  94.5864452  43.0553389  12.3812729  84.3789607
  42.3339975  12.9948697  84.2397080  43.8446645  12.9170494  84.3006252
  45.8579703   9.7167156  90.6530258  46.3814105   9.9629452  91.4156568
  45.6392036  10.5487191  90.2333396  41.2546984  11.9870830  78.5201383
  40.9259690  11.1068209  78.3376489  41.6086355  11.9318499  79.4077772
  44.3688807  12.2743800  78.8876861  44.7084880  12.8029721  78.1655469
  44.8160928  12.6124206  79.6635427  47.0632248  10.6580851  88.3379929
  46.7229068   9.8588664  88.7400609  46.3571254  10.9582562  87.7656762
  47.7148720   7.7430163  86.7907252  48.5374789   7.2690642  86.6686142
  47.9586783   8.5220647  87.2905938  46.3556954  10.7718422  77.0870154
  47.0765317  11.1499675  76.5833870  45.7322258  11.4907299  77.1905131
  50.4988077  11.4763571  78.0228486  50.7151692  12.3588209  77.7217314
  50.0182144  11.0849784  77.2934128  45.2387299  14.4349284  84.5999230
  45.0931879  14.7489587  85.4923512  44.7612502  15.0534184  84.0470129
  47.0983681  11.4251832  84.6480120  47.0845250  10.5292925  84.3112418
  47.8156110  11.4322496  85.2818406  48.9509812  11.8589172  86.6933247
  48.6927590  12.7806243  86.6917578  48.4194853  11.4619607  87.3833712
  39.7132961  16.9754628  87.5386892  39.1686429  17.7514436  87.6707166
  40.5912311  17.3225433  87.3806013  46.5020577  10.3066212  79.9167690
  46.6236489   9.3782858  80.1158578  46.2122620  10.3204898  79.0046006
  49.3711768   7.9921123  83.0534410  49.3933465   8.0560456  82.0986390
  49.7879827   7.1525631  83.2474916  40.4998983  16.1024525  90.4317048
  39.7580719  16.2507160  91.0181679  40.1791727  16.3632790  89.5683798
  48.4442645  25.6440503  90.2297438  48.7529772  25.3989650  91.1020138
  49.2418127  25.8487141  89.7416309  45.9137129  23.3416422  84.5325117
  45.2917139  22.6787127  84.2327345  46.5841996  23.3677554  83.8498764
  39.1464201  21.9076280  83.4216377  38.3096110  21.4798454  83.2400378
  39.1187847  22.1008723  84.3587168  45.9861657  11.8198210  94.1257623
  46.0349812  12.6960332  93.7435392  46.5284171  11.2775603  93.5529266
  56.4716503  22.3639333  93.4058760  55.6812046  22.3463472  92.8663259
  56.2349857  22.9027627  94.1607796  56.5914378  19.2131799  90.7191488
  56.6412383  19.0481807  91.6607011  56.4828301  18.3459058  90.3289369
  53.8818140  15.1962727  92.0350795  54.7828003  15.0569192  91.7434793
  53.9566115  15.3617182  92.9748973  48.2160945  12.5729582  90.8803981
  47.3464255  12.8663148  90.6086570  48.4520426  13.1570027  91.6011245
  58.0932574  21.6328741  90.9633510  57.8017383  21.9958721  91.7996971
  57.4804706  20.9195749  90.7846842  59.2928257  19.1981621  83.4836080
  60.1275148  19.6371425  83.6473640  59.4287386  18.7220274  82.6644326
  56.3419763  16.7561355  89.4313568  56.8173884  16.9489002  88.6232419
  55.4185328  16.8120541  89.1856952  50.9199979   8.7909199  88.3969402
  51.4381923   9.5270226  88.0715890  50.5655112   9.0973192  89.2316161
  51.1712573   5.2109482  83.9170298  51.4514327   4.5432671  84.5430725
  51.9563180   5.4038577  83.4044962  55.0421432  13.6327116  87.6641873
  55.9938855  13.7325213  87.6854098  54.8724882  12.8405384  88.1739958
  53.0635811  10.7182699  87.8501274  52.4685743  10.9987711  87.1547763
  52.7785508  11.2076600  88.6218016  57.5209510  16.8533235  86.7784173
  57.4885830  15.9149236  86.9643857  58.1310133  16.9317272  86.0449998
  57.6703998  13.6444279  86.8242456  57.1543047  12.8602735  86.6372385
  58.5543947  13.3162995  86.9888976  55.3314725   7.3885294  82.7838269
  55.1339546   7.0800382  83.6681601  55.9414430   8.1146933  82.9136199
  63.3386059  17.9149242  85.9190210  64.0689448  17.6534530  86.4797913
  62.7293005  17.1777964  85.9592278  61.4201356  16.0557105  86.5164661
  60.6934520  15.9213070  85.9081153  61.0048643  16.3633933  87.3221379
  49.2431533  19.7747034  94.2812034  50.1634542  19.9525633  94.4752081
  49.2081116  18.8303080  94.1291733  38.4613698  14.9685628  83.2065309
  38.1416482  14.1150936  82.9139683  37.9147126  15.1834206  83.9623276
  42.2393605  17.6848069  86.9234815  42.4579615  18.6165177  86.9422849
  42.6519379  17.3256043  87.7089619  49.1597823   8.1916154  78.9110504
  48.3498552   7.8463239  79.2865750  49.8482240   7.8823698  79.4998115
  51.0888372   7.2694201  80.5334800  51.6419410   7.6889654  81.1924823
  51.3258458   6.3429949  80.5757756  47.1121471  13.2581275  96.3137564
  47.0118198  14.2075632  96.2449655  46.8943013  12.9299514  95.4413634
  38.3301958  18.5888539  85.1758430  37.6365429  18.1742492  84.6628385
  39.0774949  18.6309076  84.5791849  54.4667179   9.3794726  80.0413465
  53.8865848  10.0379530  79.6591517  54.2003111   8.5572071  79.6300882
  52.9170745   8.7799784  82.2434785  53.4170523   8.8916318  81.4349104
  53.5606353   8.4760837  82.8835593  46.9752741  16.6878414  95.1302626
  46.4919823  17.4878774  95.3366515  47.0613680  16.6986358  94.1770070
  40.2438700  18.5206793  83.0524445  40.2209389  18.6194481  82.1006328
  40.5539337  19.3671944  83.3741611  42.9026078  20.5782948  87.1671060
  43.8569332  20.5466891  87.1000991  42.7038602  20.1173572  87.9821286
  43.4925460  19.1484064  89.7341857  44.3118349  19.6428143  89.7576695
  43.7662268  18.2316032  89.7059425  53.2492057  11.5394817  79.0969813
  52.3617912  11.8244467  78.8790008  53.6646046  11.3788580  78.2497090
  56.6006593  11.5641338  82.8124152  57.3766983  12.0537790  83.0848769
  55.8754727  11.9899392  83.2696022  59.0379151  12.2768957  83.8698093
  59.6323642  12.0364693  83.1591401  59.1105735  11.5576087  84.4971629
  61.3450224  15.5835158  82.6441514  60.7849782  15.6528347  83.4173076
  60.7393728  15.4076142  81.9241010  38.7460375  13.4822198  90.4334054
  39.3919238  12.9721152  90.9221280  38.5377526  14.2190880  91.0077480
  51.2713767  20.5503046  95.9326195  52.1404927  20.7243698  95.5712830
  50.7920518  21.3697462  95.8101924  47.2663985   7.7462243  76.1857951
  47.2542655   8.6904083  76.3426221  48.1587407   7.5632388  75.8917412
  45.4399947  27.6700147  87.6115629  46.3427194  27.7023757  87.9282124
  45.2137317  26.7400598  87.6261964  47.1953549  26.4231133  84.2725707
  46.2449180  26.4232995  84.1590080  47.4986035  25.6763868  83.7561742
  51.0816105   4.3405019  80.4403887  50.3148500   3.7863506  80.5860570
  51.4926810   4.4126888  81.3018039  43.0857866  10.6289815  94.5309069
  43.9489327  10.2726620  94.7412393  42.5123276  10.2903710  95.2184473
  65.4081359  23.6339933  87.7752265  65.0764683  24.5035344  87.5513480
  64.8126972  23.3176217  88.4546295  59.3750888  29.7724665  92.7980512
  58.5984222  30.3318585  92.7883377  60.0141451  30.2581448  93.3195382
  57.6297260  32.5810118  92.3598479  58.3711944  33.1195162  92.0833303
  56.9234245  33.2076407  92.5170031  62.6083115  27.3216233  89.9885371
  62.3644047  28.0758294  89.4519647  62.8843046  27.7001581  90.8232618
  56.3658624  29.7349766  93.1613789  55.7357284  30.4166047  93.3949186
  56.2594712  29.6232848  92.2166927  55.6439366  24.0370532  95.5239040
  55.2506312  23.4836730  96.1986684  56.4605507  24.3481110  95.9145558
  58.5607327  25.4528411  93.1159297  59.3017041  26.0535564  93.0363759
  58.7925250  24.7106049  92.5577339  53.7048665  30.6384778  91.3937526
  53.5902181  29.7370035  91.6944625  52.8493183  30.8848475  91.0422343
  62.5064490  21.4809514  87.3923578  62.1628760  22.3711156  87.3162689
  62.8743453  21.2911172  86.5293163  64.3052156  20.7403073  82.4941316
  64.6111033  19.8800437  82.2067231  65.0304761  21.3320693  82.2940310
  60.3858784  25.2352305  90.3406593  59.7386699  25.9342254  90.2471070
  61.1559800  25.6688448  90.7082841  56.2271944  28.5818144  90.3922689
  55.6909301  28.1308882  91.0444285  55.6388653  28.7164053  89.6493153
  60.3947806  32.1007012  93.9791168  59.7188443  32.0001141  94.6493543
  61.2175439  31.9446225  94.4427165  53.5887354  27.8272221  92.4643703
  54.2159393  27.4449299  93.0781227  52.7315273  27.6086423  92.8299396
  56.6973457  25.0459074  90.6530258  57.2207859  25.2921370  91.4156568
  56.4785791  25.8779108  90.2333396  57.9026002  25.9872769  88.3379929
  57.5622823  25.1880582  88.7400609  57.1965009  26.2874479  87.7656762
  51.3392737  31.4316442  90.4317048  50.5974473  31.5799078  91.0181679
  51.0185481  31.6924708  89.5683798  56.8255411  27.1490127  94.1257623
  56.8743567  28.0252250  93.7435392  57.3677926  26.6067520  93.5529266
  59.0554700  27.9021500  90.8803981  58.1858009  28.1955066  90.6086570
  59.2914180  28.4861945  91.6011245  61.7593734  24.1201117  88.3969402
  62.2775678  24.8562144  88.0715890  61.4048866  24.4265110  89.2316161
  62.0106328  20.5401399  83.9170298  62.2908082  19.8724588  84.5430725
  62.7956935  20.7330495  83.4044962  60.0825287  35.1038952  94.2812034
  61.0028297  35.2817551  94.4752081  60.0474870  34.1594997  94.1291733
  57.9515225  28.5873192  96.3137564  57.8511952  29.5367549  96.2449655
  57.7336767  28.2591431  95.4413634  57.8146495  32.0170331  95.1302626
  57.3313577  32.8170691  95.3366515  57.9007434  32.0278276  94.1770070
  49.5854129  28.8114116  90.4334054  50.2312993  28.3013070  90.9221280
  49.3771280  29.5482797  91.0077480  62.1107521  35.8794963  95.9326195
  62.9798681  36.0535616  95.5712830  61.6314273  36.6989380  95.8101924
  53.9251620  25.9581733  94.5309069  54.7883082  25.6018538  94.7412393
  53.3517031  25.6195628  95.2184473  66.4833121  39.3662450  95.5239040
  66.0900067  38.8128648  96.1986684  67.2999261  39.6773028  95.9145558
  65.3614242  60.6774111  84.2867347  65.6010840  61.3092635  84.9646366
  64.5183439  60.3262151  84.5732707  67.3852701  54.1334511  89.6672581
  68.0862161  54.7670994  89.8201975  66.9147816  54.4749242  88.9068220
  69.9764343  58.7365857  88.2148784  70.5282651  58.8997478  88.9797869
  70.3170536  59.3270294  87.5428809  78.1504012  53.0223168  93.4058760
  77.3599555  53.0047307  92.8663259  77.9137366  53.5611462  94.1607796
  79.7720083  52.2912576  90.9633510  79.4804892  52.6542557  91.7996971
  79.1592215  51.5779584  90.7846842  83.0988865  46.7140940  86.5164661
  82.3722029  46.5796905  85.9081153  82.6836152  47.0217769  87.3221379
  81.4183458  62.8702935  85.2732994  81.0801969  62.7544000  84.3853529
  82.2873226  62.4694100  85.2534000  81.9003241  64.0237787  91.2319200
  81.8891882  63.6290585  90.3599704  82.0623880  63.2903859  91.8252971
  78.6210502  66.8074899  90.1798384  78.3300368  67.7120529  90.0645050
  79.2567486  66.8491426  90.8942453  79.5466709  64.1851747  86.7699743
  80.1430281  63.9607770  86.0556706  79.6041680  63.4436493  87.3725191
  87.0868868  54.2923768  87.7752265  86.7552192  55.1619179  87.5513480
  86.4914481  53.9760052  88.4546295  81.0538397  60.4308500  92.7980512
  80.2771731  60.9902420  92.7883377  81.6928960  60.9165283  93.3195382
  79.3084769  63.2393953  92.3598479  80.0499453  63.7778997  92.0833303
  78.6021754  63.8660242  92.5170031  84.7840109  65.3823094  90.9570641
  85.1923465  64.9405504  90.2125273  84.0617370  64.8075721  91.2104834
  84.2870624  57.9800069  89.9885371  84.0431556  58.7342129  89.4519647
  84.5630554  58.3585416  90.8232618  86.2409087  64.5238681  88.6662637
  86.4525982  65.1670441  87.9897018  86.1938835  63.6900998  88.1984567
  78.0446133  60.3933601  93.1613789  77.4144793  61.0749882  93.3949186
  77.9382221  60.2816683  92.2166927  87.3554915  67.4010637  86.8384994
  88.1772358  66.9990824  86.5567676  87.3517318  67.2978871  87.7901110
  81.1211518  66.9494680  88.9945705  81.1855951  67.4115087  89.8303876
  80.4122442  66.3192045  89.1228014  95.4460908  63.7449385  83.1869966
  94.6924616  63.1756783  83.0313970  95.5808449  63.7112050  84.1340600
  77.3226875  54.6954367  95.5239040  76.9293821  54.1420566  96.1986684
  78.1393016  55.0064946  95.9145558  80.2394836  56.1112246  93.1159297
  80.9804550  56.7119399  93.0363759  80.4712759  55.3689884  92.5577339
  75.3836174  61.2968614  91.3937526  75.2689690  60.3953871  91.6944625
  74.5280692  61.5432310  91.0422343  82.4628012  69.2386354  92.9925027
  82.0191866  68.4522732  92.6745932  83.1245226  69.4265504  92.3268918
  84.5609250  69.5189154  91.0206428  84.5427726  70.3398035  90.5286697
  85.4829170  69.3943229  91.2456569  81.0182304  67.0333283  91.8629937
  81.5510641  66.2721572  91.6329245  80.4896385  66.7406935  92.6054091
  84.1851999  52.1393349  87.3923578  83.8416269  53.0294991  87.3162689
  84.5530962  51.9495007  86.5293163  83.7927316  60.7759586  89.5922780
  84.1476704  61.0031059  90.4517246  84.4399448  61.1077963  88.9700035
  89.5494433  65.9654549  85.3083380  89.9830940  65.8729838  86.1566435
  90.2626014  65.9412049  84.6703396  90.4109982  66.0078249  87.8416266
  90.6045873  66.9124060  88.0875541  90.3110601  65.5485668  88.6754851
  82.0646293  55.8936140  90.3406593  81.4174208  56.5926090  90.2471070
  82.8347309  56.3272284  90.7082841  85.4725091  66.1584992  93.4157146
  85.3210598  65.9295544  92.4987230  85.4629771  67.1155593  93.4288491
  82.2410428  63.7316905  88.4003413  83.1702488  63.8828064  88.2272380
  81.8201458  63.8200926  87.5452059  76.5648218  62.5416802  89.0843369
  76.4268016  61.8097041  89.6854909  77.4753142  62.4525702  88.8027557
  87.1817298  69.1904115  91.4933628  87.1229844  68.5063335  90.8264211
  87.5836816  69.9323105  91.0414254  77.9059453  59.2401979  90.3922689
  77.3696810  58.7892718  91.0444285  77.3176162  59.3747888  89.6493153
  87.1834705  67.1543699  89.7247608  86.2961484  66.8169620  89.8474007
  87.7533256  66.4226730  89.9616373  83.1734542  71.7131985  88.8467010
  83.8862514  72.3479450  88.7742911  82.6824571  71.8095851  88.0307012
  86.0247741  62.0171036  87.4925131  85.3719192  62.2646943  86.8377584
  86.4028121  61.2035174  87.1587608  82.0735314  62.7590847  93.9791168
  81.3975952  62.6584976  94.6493543  82.8962948  62.6030061  94.4427165
  68.4131828  61.5668384  85.3208127  68.4515928  61.0331974  86.1145245
  67.9072121  61.0403589  84.7019104  85.6668972  68.8919032  94.0697439
  86.2108876  69.5048990  93.5752393  85.0855817  69.4498610  94.5864452
  78.3760966  55.7042909  90.6530258  78.8995368  55.9505205  91.4156568
  78.1573300  56.5362944  90.2333396  78.5042920  57.8073963  94.1257623
  78.5531076  58.6836085  93.7435392  79.0465435  57.2651356  93.5529266
  88.9897766  68.3515086  93.4058760  88.1993310  68.3339225  92.8663259
  88.7531121  68.8903380  94.1607796  89.1095641  65.2007552  90.7191488
  89.1593646  65.0357560  91.6607011  89.0009564  64.3334811  90.3289369
  86.3999404  61.1838480  92.0350795  87.3009266  61.0444945  91.7434793
  86.4747378  61.3492935  92.9748973  90.6113838  67.6204494  90.9633510
  90.3198646  67.9834474  91.7996971  89.9985969  66.9071502  90.7846842
  91.8109520  65.1857374  83.4836080  92.6456412  65.6247178  83.6473640
  91.9468649  64.7096027  82.6644326  88.8601026  62.7437108  89.4313568
  89.3355148  62.9364755  88.6232419  87.9366592  62.7996294  89.1856952
  83.4381243  54.7784952  88.3969402  83.9563187  55.5145979  88.0715890
  83.0836375  55.0848945  89.2316161  85.5817075  56.7058452  87.8501274
  84.9867007  56.9863464  87.1547763  85.2966771  57.1952353  88.6218016
  95.8567323  63.9024995  85.9190210  96.5870711  63.6410283  86.4797913
  95.2474268  63.1653717  85.9592278  93.9382620  62.0432858  86.5164661
  93.2115784  61.9088823  85.9081153  93.5229907  62.3509686  87.3221379
  81.7612796  65.7622787  94.2812034  82.6815806  65.9401386  94.4752081
  81.7262379  64.8178833  94.1291733  79.6302734  59.2457028  96.3137564
  79.5299461  60.1951385  96.2449655  79.4124276  58.9175267  95.4413634
  79.4934004  62.6754167  95.1302626  79.0101086  63.4754527  95.3366515
  79.5794943  62.6862111  94.1770070  76.0106724  65.1359817  89.7341857
  76.8299613  65.6303896  89.7576695  76.2843532  64.2191785  89.7059425
  83.7895030  66.5378799  95.9326195  84.6586190  66.7119451  95.5712830
  83.3101782  67.3573216  95.8101924  75.6039129  56.6165568  94.5309069
  76.4670591  56.2602373  94.7412393  75.0304540  56.2779463  95.2184473
  95.4487506  78.2467425  85.3371470  96.0865916  78.1274172  84.6334810
  95.3308349  79.1948269  85.3959422  92.2577212  78.1994853  85.2732994
  91.9195724  78.0835917  84.3853529  93.1266981  77.7986018  85.2534000
 100.4037202  75.9094112  83.3157656 101.1362374  75.3393328  83.5495486
  99.6476557  75.5215712  83.7564162  97.9262622  69.6215686  87.7752265
  97.5945947  70.4911097  87.5513480  97.3308235  69.3051970  88.4546295
  87.8706623  78.2742029  83.2084882  86.9457120  78.1418243  83.4162574
  88.1191036  79.0536248  83.7054824  97.8191285  74.3410772  84.8545615
  96.9108163  74.2726180  84.5604376  97.7678881  74.8182717  85.6827440
  85.2315434  77.9175302  84.0428671  85.3607815  78.1709781  84.9568083
  84.5512885  78.5103010  83.7233326  89.4014921  88.5872552  80.1419145
  89.3238951  89.5380377  80.2207626  88.7976565  88.2418425  80.7994072
  99.6852932  72.5427210  86.6323489  99.0427312  72.8359744  85.9863283
  99.1807860  72.4280131  87.4376685  94.6829070  72.4648420  85.5699209
  93.8213549  72.7629673  85.8615947  94.7091505  72.6818818  84.6380242
  82.4622563  75.6427806  86.5194704  82.7130601  76.5274815  86.7852280
  82.9982111  75.4632407  85.7469796 106.2854662  79.0741303  83.1869966
 105.5318371  78.5048701  83.0313970 106.4202203  79.0403967  84.1340600
  88.1620630  70.0246285  95.5239040  87.7687575  69.4712483  96.1986684
  88.9786770  70.3356863  95.9145558  91.0788591  71.4404164  93.1159297
  91.8198304  72.0411317  93.0363759  91.3106514  70.6981802  92.5577339
  95.0245754  67.4685267  87.3923578  94.6810023  68.3586909  87.3162689
  95.3924716  67.2786925  86.5293163  94.1042294  69.8389922  85.3572812
  93.6007090  69.8020057  84.5440617  94.3972901  70.7482665  85.4169468
  90.3485180  69.9228652  84.3638993  91.2138177  69.7271461  84.0044883
  90.4162689  69.6939004  85.2908350  93.4907907  75.5154042  84.7878077
  92.5730469  75.7368989  84.6299765  93.9068051  75.5900353  83.9289785
  96.8233420  66.7278826  82.4941316  97.1292296  65.8676190  82.2067231
  97.5486024  67.3196446  82.2940310  89.3021238  82.5130465  82.4904113
  90.0961836  82.0180785  82.2886688  88.5912930  81.9848328  82.1271819
  92.9040048  71.2228058  90.3406593  92.2567963  71.9218007  90.2471070
  93.6741063  71.6564201  90.7082841  84.4792329  73.7049905  87.4775683
  84.3950518  73.0975574  86.7426093  83.6575035  74.1958923  87.4785179
  91.2351011  74.3320851  82.5717563  90.8648799  73.7791891  83.2598468
  91.7310104  73.7278985  82.0192563  97.0935037  69.1573062  84.9925237
  96.1798117  69.3877288  85.1607444  97.5228139  69.2411506  85.8439269
  86.6316345  71.7424842  88.8170669  86.6957672  72.6039673  88.4048067
  86.5683465  71.1298843  88.0843027  86.1068618  73.8147974  92.4643703
  86.7340656  73.4325052  93.0781227  85.2496536  73.5962176  92.8299396
  89.2154721  71.0334827  90.6530258  89.7389123  71.2797123  91.4156568
  88.9967054  71.8654861  90.2333396  91.0723738  69.0597834  86.7907252
  91.8949807  68.5858312  86.6686142  91.3161801  69.8388318  87.2905938
  90.4558699  72.7419503  84.6480120  90.4420268  71.8460596  84.3112418
  91.1731128  72.7490166  85.2818406  92.7286786  69.3088793  83.0534410
  92.7508483  69.3728127  82.0986390  93.1454845  68.4693302  83.2474916
  83.8574001  77.4192195  90.4317048  83.1155737  77.5674831  91.0181679
  83.5366745  77.6800461  89.5683798  89.3436675  73.1365880  94.1257623
  89.3924830  74.0128003  93.7435392  89.8859189  72.5943273  93.5529266
  94.2774997  70.1076870  88.3969402  94.7956941  70.8437897  88.0715890
  93.9230130  70.4140863  89.2316161  94.5287591  66.5277152  83.9170298
  94.8089345  65.8600341  84.5430725  95.3138198  66.7206248  83.4044962
  96.4210829  72.0350369  87.8501274  95.8260761  72.3155382  87.1547763
  96.1360526  72.5244270  88.6218016 101.0279016  74.9611949  86.8242456
 100.5118065  74.1770406  86.6372385 101.9118964  74.6330666  86.9888976
  98.6889743  68.7052965  82.7838269  98.4914564  68.3968053  83.6681601
  99.2989448  69.4314604  82.9136199 106.6961077  79.2316913  85.9190210
 107.4264466  78.9702201  86.4797913 106.0868023  78.4945635  85.9592278
 104.7776374  77.3724775  86.5164661 104.0509538  77.2380740  85.9081153
 104.3623661  77.6801604  87.3221379  94.4463389  68.5861872  80.5334800
  94.9994428  69.0057325  81.1924823  94.6833476  67.6597620  80.5757756
  90.4696489  74.5748945  96.3137564  90.3693216  75.5243302  96.2449655
  90.2518031  74.2467184  95.4413634 102.3954169  73.5936628  83.8698093
 102.9898660  73.3532363  83.1591401 102.4680753  72.8743758  84.4971629
 104.7025242  76.9002828  82.6441514 104.1424800  76.9696018  83.4173076
 104.0968745  76.7243813  81.9241010  82.1035393  74.7989869  90.4334054
  82.7494256  74.2888823  90.9221280  81.8952544  75.5358551  91.0077480
  94.4391123  65.6572690  80.4403887  93.6723518  65.1031177  80.5860570
  94.8501828  65.7294559  81.3018039  86.4432884  71.9457486  94.5309069
  87.3064345  71.5894291  94.7412393  85.8698294  71.6071381  95.2184473
 108.7656377  84.9507603  87.7752265 108.4339701  85.8203014  87.5513480
 108.1701990  84.6343887  88.4546295 107.9328792  84.4864979  84.9925237
 107.0191872  84.7169206  85.1607444 108.3621893  84.5703423  85.8439269
 105.3681346  81.8569070  83.9170298 105.6483100  81.1892259  84.5430725
 106.1531953  82.0498166  83.4044962 117.5354832  94.5608830  85.9190210
 118.2658220  94.2994119  86.4797913 116.9261777  93.8237552  85.9592278
 117.1275015 108.9051260  85.3371470 117.7653425 108.7858007  84.6334810
 117.0095858 109.8532104  85.3959422 114.4184504 110.0113540  91.2319200
 114.4073145 109.6166338  90.3599704 114.5805144 109.2779612  91.8252971
 122.0824711 106.5677947  83.3157656 122.8149883 105.9977164  83.5495486
 121.3264066 106.1799547  83.7564162 119.6050131 100.2799521  87.7752265
 119.2733456 101.1494932  87.5513480 119.0095744  99.9635805  88.4546295
 116.0981651 112.4812067  87.1748178 115.7982374 113.3837106  87.0663985
 115.7532710 112.2144250  88.0269330 119.4978794 104.9994607  84.8545615
 118.5895672 104.9310016  84.5604376 119.4466390 105.4766552  85.6827440
 121.3640441 103.2011046  86.6323489 120.7214821 103.4943579  85.9863283
 120.8595369 103.0863966  87.4376685 117.3021372 111.3698847  90.9570641
 117.7104728 110.9281257  90.2125273 116.5798634 110.7951474  91.2104834
 117.6250187 111.9300037  84.7122930 116.9959049 112.0945751  84.0098997
 117.2375849 112.3441647  85.4833894 121.5039419 112.8654475  82.0667293
 120.8190457 113.2453377  81.5164327 121.5883268 113.4749802  82.7999241
 116.8051887 103.9675822  89.9885371 116.5612819 104.7217882  89.4519647
 117.0811818 104.3461169  90.8232618 118.7590350 110.5114434  88.6662637
 118.9707245 111.1546194  87.9897018 118.7120098 109.6776751  88.1984567
 119.8736178 113.3886390  86.8384994 120.6953622 112.9866577  86.5567676
 119.8698581 113.2854624  87.7901110 127.9642171 109.7325138  83.1869966
 127.2105880 109.1632536  83.0313970 128.0989712 109.6987803  84.1340600
 114.9809276 115.2262107  92.9925027 114.5373130 114.4398486  92.6745932
 115.6426489 115.4141257  92.3268918 117.0790514 115.5064907  91.0206428
 117.0608989 116.3273788  90.5286697 118.0010434 115.3818982  91.2456569
 116.7033263  98.1269102  87.3923578 116.3597532  99.0170744  87.3162689
 117.0712225  97.9370760  86.5293163 119.8809127 110.3444049  84.4915795
 119.2232801 111.0343311  84.5795924 120.6849526 110.7340481  84.8349781
 115.9536960 118.6772746  75.2980408 115.2798658 118.9804443  75.9065366
 116.3402782 119.4801827  74.9485865 119.4576382 113.6794423  80.6698879
 119.0038709 112.8385333  80.7264070 118.8270348 114.3155822  81.0073660
 117.9009321 115.5170920  81.6048698 118.1932295 116.0775977  80.8861063
 118.4107941 115.8099481  82.3601857 116.3108580 106.7635339  89.5922780
 116.6657968 106.9906812  90.4517246 116.9580711 107.0953716  88.9700035
 122.0406317 109.8853775  80.2972109 121.9024215 110.0755371  79.3693298
 121.6842536 110.6473157  80.7540160 122.0675696 111.9530302  85.3083380
 122.5012203 111.8605591  86.1566435 122.7807277 111.9287802  84.6703396
 115.8003591 115.5532396  86.8416481 115.8540614 116.1223332  87.6094197
 114.9318373 115.7234281  86.4770518 122.9291246 111.9954002  87.8416266
 123.1227136 112.8999813  88.0875541 122.8291864 111.5361421  88.6754851
 117.9906355 112.1460745  93.4157146 117.8391861 111.9171297  92.4987230
 117.9811034 113.1031347  93.4288491 114.7591691 109.7192658  88.4003413
 115.6883751 109.8703817  88.2272380 114.3382721 109.8076679  87.5452059
 114.1528175 118.8452419  77.5127487 114.3279930 118.3740462  78.3273110
 113.4660963 119.4718185  77.7408748 115.1085238 113.1224925  83.5590788
 114.7735071 113.0825695  84.4548438 114.6089184 112.4569641  83.0861199
 119.6998561 115.1779868  91.4933628 119.6411107 114.4939088  90.8264211
 120.1018080 115.9198858  91.0414254 108.7189260 121.9941781  84.2867347
 108.9585858 122.6260306  84.9646366 107.8758457 121.6429821  84.5732707
 119.7015969 113.1419452  89.7247608 118.8142747 112.8045373  89.8474007
 120.2714520 112.4102483  89.9616373 113.2317122 117.8020904  86.6908851
 113.1587293 118.6075875  87.2028156 112.7894515 118.0012870  85.8656873
 124.1833309 108.5527669  84.4864170 124.1723185 109.4352384  84.1158103
 123.3150688 108.1999220  84.2918707 115.6915805 117.7007738  88.8467010
 116.4043778 118.3355203  88.7742911 115.2005834 117.7971604  88.0307012
 118.7722546  99.8156897  84.9925237 117.8585626 100.0461124  85.1607444
 119.2015648  99.8995341  85.8439269 118.5429005 108.0046789  87.4925131
 117.8900455 108.2522696  86.8377584 118.9209385 107.1910927  87.1587608
 115.8378344 116.9674667  78.8568350 116.3666111 116.4567122  78.2438512
 116.1006564 116.6517197  79.7213883 113.3339361 120.0533527  88.2148784
 113.8857669 120.2165149  88.9797869 113.6745554 120.6437965  87.5428809
 118.1850235 114.8794785  94.0697439 118.7290139 115.4924743  93.5752393
 117.6037080 115.4374363  94.5864452 116.4707748 118.0015503  85.2012466
 116.3458888 117.2005243  84.6923412 117.1286839 118.4961696  84.7126436
 118.5342657 115.8024523  86.8292016 117.5872992 115.6829874  86.7570343
 118.8825430 114.9147021  86.9118278 115.5389090 115.5977239  83.0296369
 115.3914052 114.6693947  83.2103939 116.3642583 115.6197330  82.5453444
 119.1423212 116.4205798  84.1161241 120.0669759 116.2148659  83.9785693
 118.9738515 116.1722199  85.0250583 118.9318528 116.9391465  79.4723333
 119.1055405 116.3737888  78.7197185 119.4247419 117.7392360  79.2902823
 124.7857919 109.7027888  81.0913633 125.2289065 108.9535214  80.6932756
 123.9084429 109.6938025  80.7087365 119.9193700 116.2558230  76.5720231
 120.6144605 116.8764922  76.7907546 120.2616850 115.4053581  76.8472609
 121.8185123 113.7057935  78.1007562 122.3436448 114.0445208  77.3756882
 121.7307476 112.7704951  77.9170696 113.4805172 117.6192009  90.2297438
 113.7892299 117.3741156  91.1020138 114.2780654 117.8238647  89.7416309
 121.5079030 114.3390839  93.4058760 120.7174573 114.3214978  92.8663259
 121.2712384 114.8779133  94.1607796 121.6276905 111.1883305  90.7191488
 121.6774910 111.0233313  91.6607011 121.5190828 110.3210564  90.3289369
 118.9180667 107.1714233  92.0350795 119.8190530 107.0320698  91.7434793
 118.9928641 107.3368688  92.9748973 123.1295101 113.6080247  90.9633510
 122.8379910 113.9710227  91.7996971 122.5167233 112.8947255  90.7846842
 124.3290784 111.1733127  83.4836080 125.1637675 111.6122931  83.6473640
 124.4649913 110.6971780  82.6644326 121.3782290 108.7312861  89.4313568
 121.8536411 108.9240508  88.6232419 120.4547855 108.7872047  89.1856952
 115.9562506 100.7660705  88.3969402 116.4744450 101.5021732  88.0715890
 115.6017639 101.0724698  89.2316161 114.0108569 116.3619981  75.4795325
 113.4382536 116.9810169  75.0265797 114.5841362 116.9119343  76.0135247
 120.0783959 105.6078622  87.6641873 121.0301382 105.7076719  87.6854098
 119.9087409 104.8156890  88.1739958 118.0998338 102.6934205  87.8501274
 117.5048270 102.9739217  87.1547763 117.8148035 103.1828106  88.6218016
 117.2305829 116.6457132  76.6103907 118.1636502 116.5802693  76.8136782
 117.1429041 117.4813398  76.1518440 119.8593845 115.9623002  73.5707855
 119.7807477 115.6282866  74.4643612 120.6803512 116.4544770  73.5699327
 122.5572036 108.8284741  86.7784173 122.5248357 107.8900742  86.9643857
 123.1672660 108.9068778  86.0449998 122.7066525 105.6195785  86.8242456
 122.1905574 104.8354241  86.6372385 123.5906473 105.2914501  86.9888976
 120.3677252  99.3636800  82.7838269 120.1702073  99.0551888  83.6681601
 120.9776957 100.0898439  82.9136199 128.3748586 109.8900748  85.9190210
 129.1051975 109.6286036  86.4797913 127.7655532 109.1529470  85.9592278
 126.4563883 108.0308611  86.5164661 125.7297047 107.8964576  85.9081153
 126.0411170 108.3385439  87.3221379 124.0741678 104.2520463  83.8698093
 124.6686169 104.0116199  83.1591401 124.1468262 103.5327593  84.4971629
 117.4297797 113.2790997  73.1917833 118.1333647 113.4841000  73.8075488
 116.7060446 113.8467759  73.4566916 126.3812751 107.5586664  82.6441514
 125.8212309 107.6279853  83.4173076 125.7756254 107.3827648  81.9241010
 119.3384494 113.7173527  75.2416293 120.1730098 113.2854725  75.0593768
 119.1768837 113.5455540  76.1693187 116.3076294 112.5254552  95.9326195
 117.1767453 112.6995204  95.5712830 115.8283045 113.3448969  95.8101924
 110.4762474 119.6451653  87.6115629 111.3789721 119.6775263  87.9282124
 110.2499844 118.7152104  87.6261964 127.9668770 124.2343178  85.3371470
 128.6047179 124.1149925  84.6334810 127.8489612 125.1824022  85.3959422
 124.7758476 124.1870606  85.2732994 124.4376987 124.0711670  84.3853529
 125.6448244 123.7861771  85.2534000 120.6345292 126.0406082  81.2629885
 120.0710157 125.9496019  80.4946173 120.5197687 125.2205987  81.7432378
 125.2578259 125.3405457  91.2319200 125.2466900 124.9458256  90.3599704
 125.4198898 124.6071530  91.8252971 118.1809723 127.5357274  84.1014106
 118.9731015 127.1948098  83.6860405 118.4206374 127.6452249  85.0216259
 126.2144850 129.7077050  76.5744350 125.5632830 130.2931130  76.1878364
 127.0089213 130.2383245  76.6339388 120.1400477 126.7966187  76.9731485
 120.9131353 126.2495174  76.8344360 120.4925876 127.6610436  77.1845946
 121.9785520 128.1242569  90.1798384 121.6875386 129.0288200  90.0645050
 122.6142504 128.1659097  90.8942453 122.9041727 125.5019418  86.7699743
 123.5005299 125.2775440  86.0556706 122.9616698 124.7604163  87.3725191
 122.4766755 122.9558853  74.6049934 122.7292276 122.4340374  73.8433397
 121.5391314 122.7924999  74.7076618 127.5210038 121.9594632  82.4124678
 128.3073127 121.5414055  82.0615095 127.7848742 122.8640724  82.5806326
 127.6920115 127.3967482  77.1113335 127.0565948 127.4702108  77.8234239
 127.3617522 127.9861081  76.4332414 132.9218465 121.8969865  83.3157656
 133.6543637 121.3269082  83.5495486 132.1657821 121.5091465  83.7564162
 122.1963044 124.8586959  76.8074309 122.0799302 124.1831862  77.4755394
 122.3065304 124.3719333  75.9906462 124.5394585 124.3197106  80.5120999
 124.1752792 123.7927727  81.2233920 125.3961701 123.9295575  80.3387484
 130.4443885 115.6091439  87.7752265 130.1127210 116.4786850  87.5513480
 129.8489499 115.2927723  88.4546295 124.1800072 119.3487006  75.5082347
 124.3474474 120.2167242  75.8752818 123.9897241 119.5114288  74.5843636
 126.9375405 127.8103985  87.1748178 126.6376128 128.7129024  87.0663985
 126.5926465 127.5436168  88.0269330 120.3887887 124.2617782  83.2084882
 119.4638383 124.1293996  83.4162574 120.6372300 125.0412001  83.7054824
 130.3372549 120.3286525  84.8545615 129.4289426 120.2601933  84.5604376
 130.2860145 120.8058470  85.6827440 124.1589293 121.8044663  76.4929014
 124.0388918 122.2501714  77.3314494 123.4641881 122.1529981  75.9342552
 117.7496698 123.9051055  84.0428671 117.8789079 124.1585534  84.9568083
 117.0694149 124.4978763  83.7233326 124.4113415 121.7476171  92.7980512
 123.6346749 122.3070091  92.7883377 125.0503978 122.2332954  93.3195382
 132.2034195 118.5302963  86.6323489 131.5608575 118.8235497  85.9863283
 131.6989124 118.4155884  87.4376685 129.8574359 122.2766137  77.3209348
 130.7692215 122.5093523  77.1457046 129.3484006 122.8603181  76.7584427
 122.6659787 124.5561624  92.3598479 123.4074471 125.0946668  92.0833303
 121.9596772 125.1827913  92.5170031 128.1415127 126.6990764  90.9570641
 128.5498483 126.2573175  90.2125273 127.4192388 126.1243392  91.2104834
 124.4946197 121.6363371  88.3304198 125.3407392 122.0602785  88.4738847
 124.4344834 120.9796995  89.0242761 128.4643941 127.2591955  84.7122930
 127.8352804 127.4237669  84.0098997 128.0769603 127.6733565  85.4833894
 127.6445642 119.2967740  89.9885371 127.4006574 120.0509800  89.4519647
 127.9205572 119.6753087  90.8232618 129.5984105 125.8406352  88.6662637
 129.8101000 126.4838112  87.9897018 129.5513853 125.0068668  88.1984567
 127.2010334 118.4524173  85.5699209 126.3394813 118.7505426  85.8615947
 127.2272768 118.6694571  84.6380242 124.0171903 126.9966363  81.9773015
 124.4810249 127.2754066  81.1877637 123.7528701 126.0949808  81.7946105
 120.9095984 126.5437845  84.9152778 121.4797341 126.9725113  84.2770262
 121.5004096 126.2620429  85.6136964 122.9540789 123.1189515  78.7862580
 123.6564832 123.5710559  79.2536506 122.6221418 122.4773334  79.4142473
 121.4021151 121.7101272  93.1613789 120.7719811 122.3917553  93.3949186
 121.2957239 121.5984354  92.2166927 116.6966123 121.3773068  84.0879713
 115.9065177 121.6330597  83.6119824 117.1877370 122.1921406  84.1931754
 118.6480868 121.7417647  81.0463190 117.8512032 121.8536342  81.5646686
 118.4206461 122.0804300  80.1804081 124.4786536 128.2662351  88.9945705
 124.5430969 128.7282758  89.8303876 123.7697460 127.6359716  89.1228014
 114.9803826 121.6303559  86.5194704 115.2311864 122.5150569  86.7852280
 115.5163374 121.4508160  85.7469796 124.1934554 129.9330458  78.8624685
 124.0580229 130.7781994  79.2909533 124.7344366 130.1349736  78.0990619
 120.6801893 116.0122038  95.5239040 120.2868839 115.4588237  96.1986684
 121.4968034 116.3232616  95.9145558 117.6463951 127.4505896  79.4352610
 118.1588472 128.2449146  79.5858175 118.2986664 126.7532187  79.3686212
 119.4558836 130.5671652  81.5175363 119.6325464 131.4889617  81.3296347
 120.2515669 130.2530072  81.9469743 123.5969854 117.4279917  93.1159297
 124.3379568 118.0287070  93.0363759 123.8287777 116.6857555  92.5577339
 118.7411192 122.6136284  91.3937526 118.6264708 121.7121542  91.6944625
 117.8855710 122.8599981  91.0422343 125.8203030 130.5554025  92.9925027
 125.3766884 129.7690403  92.6745932 126.4820244 130.7433175  92.3268918
 120.5790151 132.0849826  87.5185706 121.1297576 131.9566890  86.7462699
 119.7401627 132.3844715  87.1680598 124.3757322 128.3500954  91.8629937
 124.9085659 127.5889242  91.6329245 123.8471403 128.0574606  92.6054091
 127.5427017 113.4561020  87.3923578 127.1991287 114.3462662  87.3162689
 127.9105980 113.2662678  86.5293163 115.6112868 125.7794550  80.2112181
 116.4488090 126.1891559  79.9945888 115.7891136 124.8393993  80.1812374
 127.5077300 123.4469631  75.8996014 126.9923923 124.2174236  76.1384401
 127.2354608 122.7734767  76.5229075 125.0924411 118.2919332  80.9581252
 124.2366007 117.9026182  80.7786891 125.5051363 118.3711293  80.0981037
 126.6223558 115.8265675  85.3572812 126.1188353 115.7895810  84.5440617
 126.9154165 116.7358418  85.4169468 122.8666444 115.9104405  84.3638993
 123.7319440 115.7147214  84.0044883 122.9343952 115.6814757  85.2908350
 127.2963603 121.3196723  77.7255795 126.9913739 121.6342872  78.5765938
 128.2494045 121.3978143  77.7683128 125.7410035 127.4786947  79.3748749
 125.2131397 126.7439706  79.0621986 125.2397538 128.2561623  79.1288717
 130.7202881 125.6735967  84.4915795 130.0626556 126.3635228  84.5795924
 131.5243280 126.0632399  84.8349781 120.4728763 118.1406613  81.7355360
 121.0472515 117.9181794  81.0028553 121.0599745 118.2095307  82.4883962
 129.5308340 124.0280340  82.5419737 130.0440222 124.6610332  83.0441446
 130.1809564 123.4281535  82.1763097 120.7998350 120.1711074  75.7551245
 119.9635662 120.5085760  76.0760520 120.6603119 120.0360054  74.8178382
 122.7751430 115.0147862  80.4630430 122.1215843 114.6996879  79.8387044
 122.7331905 114.3923602  81.1890253 123.8862635 125.2967157  72.3783722
 122.9789697 125.0656410  72.5774871 124.3833667 124.5004776  72.5657703
 126.0089171 121.5029795  84.7878077 125.0911732 121.7244742  84.6299765
 126.4249314 121.5776106  83.9289785 126.7924218 122.9021211  79.9180758
 127.5396037 123.4142608  79.6087880 127.0615808 122.5805264  80.7785151
 125.0650869 125.3979752  76.9007712 124.1562088 125.1138784  76.9980182
 125.0945952 125.8178830  76.0411019 129.2403056 119.9378327  81.8999547
 128.5025812 119.4255713  82.2309789 129.4929829 119.4978709  81.0882824
 129.3414683 112.7154579  82.4941316 129.6473560 111.8551943  82.2067231
 130.0667288 113.3072199  82.2940310 115.6339039 123.1185266  80.8822914
 115.4363439 122.5254626  80.1573981 115.0785703 122.8137476  81.5998853
 123.6135763 123.0108372  83.0017507 123.6684372 122.0582209  82.9259984
 122.8026965 123.1667811  83.4858806 124.7626956 126.9388495  74.2395790
 124.3246386 126.2224354  73.7801428 125.5037397 127.1664610  73.6780882
 121.5528123 121.6285432  80.7607886 120.7395988 121.9279603  81.1673078
 122.0487117 121.2341121  81.4782368 123.7036701 131.6243189  82.6942151
 123.6612879 131.8504035  81.7650683 124.6199399 131.3906564  82.8427952
 127.1502334 122.0927256  89.5922780 127.5051722 122.3198730  90.4517246
 127.7974466 122.4245633  88.9700035 132.8800071 125.2145692  80.2972109
 132.7417970 125.4047288  79.3693298 132.5236290 125.9765075  80.7540160
 121.0442197 119.2003788  86.3769121 121.6841577 119.0592547  85.6792084
 120.2119728 118.9138301  86.0007723 121.8202501 128.5006218  82.4904113
 122.6143100 128.0056538  82.2886688 121.1094194 127.9724081  82.1271819
 118.1285265 122.6449300  78.5663866 117.1982853 122.5833755  78.7833828
 118.2242737 122.1225252  77.7700507 118.0470814 119.1704113  81.1542108
 118.3077631 120.0849446  81.0451268 118.8687986 118.7028555  81.3038721
 119.5195739 120.5841870  88.3240932 120.1918793 120.3759232  87.6753581
 118.6925526 120.3863956  87.8846165 125.4221311 117.2103811  90.3406593
 124.7749226 117.9093760  90.2471070 126.1922327 117.6439955  90.7082841
 128.8300109 127.4752663  93.4157146 128.6785616 127.2463214  92.4987230
 128.8204789 128.4323264  93.4288491 125.5985446 125.0484576  88.4003413
 126.5277506 125.1995735  88.2272380 125.1776476 125.1368596  87.5452059
 124.3973777 129.0735240  86.1701951 124.2584863 128.7054024  87.0427889
 123.6088374 129.5882879  85.9985908 125.9478992 128.4516843  83.5590788
 125.6128825 128.4117613  84.4548438 125.4482938 127.7861559  83.0861199
 119.9223236 123.8584473  89.0843369 119.7843034 123.1264711  89.6854909
 120.8328160 123.7693373  88.8027557 128.8838184 125.7972877  73.8327848
 128.2667355 125.0719705  73.7360901 128.4154673 126.5582237  73.4894922
 122.5505537 123.5704432  88.5727049 123.2605156 122.9297624  88.5313668
 122.5074845 123.8217327  89.4953230 121.2634471 120.5569650  90.3922689
 120.7271828 120.1060388  91.0444285 120.6751179 120.6915559  89.6493153
 120.6736730 120.0158301  72.9549152 119.7966196 119.8947102  72.5911399
 121.1494483 119.2244380  72.7028041 112.1938870 124.8035461  83.0490659
 112.8809910 124.4897191  82.4611675 112.0386999 125.7076826  82.7757911
 116.9973592 119.6925658  87.4775683 116.9131781 119.0851327  86.7426093
 116.1756299 120.1834676  87.4785179 127.1697306 118.1779221  82.8445878
 127.6666006 117.4249183  82.5246948 126.3984288 118.2143538  82.2789087
 135.0227064 123.8819587  84.4864170 135.0116940 124.7644302  84.1158103
 134.1544443 123.5291137  84.2918707 128.2527087 126.9350908  80.4184302
 127.3183366 127.0552371  80.2489006 128.4303755 126.0323375  80.1544311
 123.7532275 120.3196604  82.5717563 123.3830062 119.7667644  83.2598468
 124.2491367 119.7154738  82.0192563 131.6399638 122.7768228  80.9534336
 132.1060090 123.6096219  80.8794638 132.0907139 122.3113209  81.6579594
 121.5821473 130.7794099  89.6672581 122.2830933 131.4130582  89.8201975
 121.1116588 131.1208831  88.9068220 129.6116301 115.1448815  84.9925237
 128.6979381 115.3753041  85.1607444 130.0409402 115.2287259  85.8439269
 129.3822759 123.3338707  87.4925131 128.7294210 123.5814614  86.8377584
 129.7603139 122.5202845  87.1587608 125.4310332 124.0758518  93.9791168
 124.7550969 123.9752647  94.6493543 126.2537966 123.9197731  94.4427165
 117.1789192 130.3130454  86.6003683 117.7642628 129.5674142  86.7331588
 116.9814030 130.6234411  87.4840347 120.0327847 133.3481702  81.6166126
 119.3638222 133.8327829  81.1330166 119.8940716 133.5950922  82.5309504
 111.7706846 122.8836054  85.3208127 111.8090946 122.3499645  86.1145245
 111.2647139 122.3571260  84.7019104 119.1497609 117.7300595  88.8170669
 119.2138935 118.5915426  88.4048067 119.0864729 117.1174597  88.0843027
 118.6249881 119.8023727  92.4643703 119.2521920 119.4200805  93.0781227
 117.7677800 119.5837929  92.8299396 115.4015424 121.6100157  78.3962058
 115.6968865 120.7010835  78.3429112 114.5003460 121.5887896  78.0743060
 118.9309671 119.6856153  84.3789607 118.2096257 120.2992121  84.2397080
 119.7202927 120.2213918  84.3006252 121.7335984 117.0210580  90.6530258
 122.2570386 117.2672876  91.4156568 121.5148318 117.8530614  90.2333396
 117.1303265 119.2914254  78.5201383 116.8015972 118.4111633  78.3376489
 117.4842636 119.2361923  79.4077772 120.2445089 119.5787224  78.8876861
 120.5841161 120.1073145  78.1655469 120.6917209 119.9167630  79.6635427
 122.9388529 117.9624275  88.3379929 122.5985350 117.1632088  88.7400609
 122.2327536 118.2625986  87.7656762 123.5905001 115.0473587  86.7907252
 124.4131071 114.5734065  86.6686142 123.8343065 115.8264071  87.2905938
 122.2313236 118.0761846  77.0870154 122.9521598 118.4543098  76.5833870
 121.6078540 118.7950722  77.1905131 126.3744359 118.7806995  78.0228486
 126.5907973 119.6631632  77.7217314 125.8938426 118.3893208  77.2934128
 121.1143580 121.7392708  84.5999230 120.9688161 122.0533011  85.4923512
 120.6368784 122.3577608  84.0470129 122.9739963 118.7295256  84.6480120
 122.9601532 117.8336349  84.3112418 123.6912391 118.7365919  85.2818406
 124.8266094 119.1632596  86.6933247 124.5683871 120.0849667  86.6917578
 124.2951134 118.7663030  87.3833712 115.5889242 124.2798052  87.5386892
 115.0442710 125.0557860  87.6707166 116.4668592 124.6268857  87.3806013
 122.3776859 117.6109636  79.9167690 122.4992770 116.6826282  80.1158578
 122.0878901 117.6248322  79.0046006 125.2468049 115.2964546  83.0534410
 125.2689746 115.3603880  82.0986390 125.6636108 114.4569055  83.2474916
 116.3755264 123.4067948  90.4317048 115.6337000 123.5550584  91.0181679
 116.0548008 123.6676214  89.5683798 116.8211878 131.2933377  82.4627443
 117.6469898 130.9937149  82.0826087 116.4705930 130.5241000  82.9117232
 121.7893411 130.6459845  84.5325117 121.1673420 129.9830550  84.2327345
 122.4598278 130.6720977  83.8498764 115.0220483 129.2119704  83.4216377
 114.1852391 128.7841878  83.2400378 114.9944128 129.4052147  84.3587168
 121.8617938 119.1241633  94.1257623 121.9106094 120.0003756  93.7435392
 122.4040453 118.5819026  93.5529266 132.4670659 126.5175223  90.7191488
 132.5168664 126.3525230  91.6607011 132.3584582 125.6502482  90.3289369
 121.3506918 129.1963769  78.0083577 121.4995038 129.8799233  77.3550250
 122.1573361 129.1768859  78.5233033 129.7574421 122.5006151  92.0350795
 130.6584284 122.3612616  91.7434793 129.8322396 122.6660606  92.9748973
 124.0917227 119.8773006  90.8803981 123.2220536 120.1706572  90.6086570
 124.3276707 120.4613451  91.6011245 132.2176044 124.0604779  89.4313568
 132.6930166 124.2532425  88.6232419 131.2941610 124.1163965  89.1856952
 119.1059551 125.2228946  79.0144646 118.8605593 124.3191276  79.2124856
 119.2755465 125.2246097  78.0724124 126.7956261 116.0952623  88.3969402
 127.3138204 116.8313650  88.0715890 126.4411393 116.4016616  89.2316161
 118.3755198 120.9557304  76.5130808 117.6824443 121.0301659  75.8570844
 118.1306950 120.1917648  77.0352325 127.0468855 112.5152905  83.9170298
 127.3270609 111.8476094  84.5430725 127.8319462 112.7082001  83.4044962
 130.9177713 120.9370539  87.6641873 131.8695136 121.0368637  87.6854098
 130.7481164 120.1448808  88.1739958 128.9392093 118.0226122  87.8501274
 128.3442025 118.3031135  87.1547763 128.6541789 118.5120023  88.6218016
 133.3965791 124.1576659  86.7784173 133.3642111 123.2192660  86.9643857
 134.0066415 124.2360696  86.0449998 125.2349122 123.0272712  72.8211377
 126.1808227 122.8978920  72.8899795 124.8563367 122.2887374  73.2980805
 133.5460279 120.9487702  86.8242456 133.0299328 120.1646159  86.6372385
 134.4300228 120.6206419  86.9888976 131.2071006 114.6928718  82.7838269
 131.0095827 114.3843806  83.6681601 131.8170712 115.4190357  82.9136199
 125.1187814 127.0790458  94.2812034 126.0390824 127.2569057  94.4752081
 125.0837397 126.1346503  94.1291733 123.4192039 120.9522688  72.7566262
 122.5123494 120.6555801  72.8328976 123.6968020 120.6552506  71.8900549
 114.3369979 122.2729052  83.2065309 114.0172764 121.4194360  82.9139683
 113.7903408 122.4877630  83.9623276 118.1149887 124.9891493  86.9234815
 118.3335897 125.9208601  86.9422849 118.5275661 124.6299467  87.7089619
 125.0354105 115.4959578  78.9110504 124.2254833 115.1506663  79.2865750
 125.7238522 115.1867122  79.4998115 126.9644653 114.5737625  80.5334800
 127.5175692 114.9933078  81.1924823 127.2014739 113.6473373  80.5757756
 122.9877752 120.5624698  96.3137564 122.8874479 121.5119055  96.2449655
 122.7699294 120.2342937  95.4413634 122.1890824 117.8109624  72.8978242
 123.0509988 118.1364522  73.1574059 122.3741168 117.0241119  72.3851307
 114.2058239 125.8931963  85.1758430 113.5121711 125.4785916  84.6628385
 114.9531230 125.9352500  84.5791849 130.3423460 116.6838150  80.0413465
 129.7622129 117.3422954  79.6591517 130.0759393 115.8615495  79.6300882
 128.7927026 116.0843208  82.2434785 129.2926805 116.1959742  81.4349104
 129.4362634 115.7804261  82.8835593 122.8509022 123.9921837  95.1302626
 122.3676104 124.7922197  95.3366515 122.9369961 124.0029782  94.1770070
 116.1194982 125.8250217  83.0524445 116.0965670 125.9237904  82.1006328
 116.4295618 126.6715368  83.3741611 118.7782360 127.8826372  87.1671060
 119.7325613 127.8510314  87.1000991 118.5794883 127.4216996  87.9821286
 119.3681742 126.4527488  89.7341857 120.1874631 126.9471567  89.7576695
 119.6418550 125.5359456  89.7059425 129.1248338 118.8438240  79.0969813
 128.2374193 119.1287891  78.8790008 129.5402327 118.6832004  78.2497090
 132.4762874 118.8684761  82.8124152 133.2523264 119.3581214  83.0848769
 131.7511008 119.2942816  83.2696022 134.9135433 119.5812381  83.8698093
 135.5079924 119.3408117  83.1591401 134.9862017 118.8619511  84.4971629
 117.1332589 133.4245991  84.1841258 116.9987056 132.6646392  83.6179256
 116.7164651 134.1486891  83.7170046 128.2691552 128.6082915  73.1917833
 128.9727402 128.8132918  73.8075488 127.5454200 129.1759677  73.4566916
 129.0989362 124.3592776  79.3120103 129.0424563 124.8161328  78.4727735
 129.6517704 123.5983461  79.1342946 132.9094168 120.1482508  80.1370223
 132.6531102 119.7479144  80.9678430 132.2847036 120.8626302  80.0120362
 137.2206506 122.8878581  82.6441514 136.6606064 122.9571771  83.4173076
 136.6150009 122.7119566  81.9241010 120.2901714 134.3215309  84.3959700
 120.1734099 135.2660741  84.2938390 119.4694161 134.0188870  84.7845499
 129.8324141 125.5497558  76.6072632 129.7772945 125.3841829  75.6661076
 129.2070196 126.2573590  76.7634822 114.6216656 120.7865622  90.4334054
 115.2675520 120.2764576  90.9221280 114.4133807 121.5234304  91.0077480
 127.1470048 127.8546469  95.9326195 128.0161208 128.0287122  95.5712830
 126.6676800 128.6740886  95.8101924 123.1420267 115.0505667  76.1857951
 123.1298936 115.9947506  76.3426221 124.0343688 114.8675812  75.8917412
 126.9572386 111.6448443  80.4403887 126.1904782 111.0906930  80.5860570
 127.3683091 111.7170312  81.3018039 118.9614147 117.9333239  94.5309069
 119.8245609 117.5770044  94.7412393 118.3879558 117.5947134  95.2184473
  52.0912489  -6.0638123  72.0616776  52.7290899  -6.1831376  71.3580116
  51.9733332  -5.1157280  72.1204728  48.9002196  -6.1110695  71.9978301
  48.5620707  -6.2269631  71.1098836  49.7691964  -6.5119530  71.9779307
  44.7589011  -4.2575219  67.9875192  44.1953876  -4.3485282  67.2191480
  44.6441406  -5.0775315  68.4677684  49.3821979  -4.9575844  77.9564506
  49.3710619  -5.3523045  77.0845010  49.5442618  -5.6909771  78.5498278
  42.3053443  -2.7624027  70.8259412  43.0974735  -3.1033203  70.4105712
  42.5450093  -2.6529052  71.7461566  50.3388570  -0.5904251  63.2989657
  49.6876550  -0.0050171  62.9123671  51.1332933  -0.0598056  63.3584694
  44.2644197  -3.5015114  63.6976791  45.0375073  -4.0486127  63.5589667
  44.6169596  -2.6370865  63.9091253  46.1029240  -2.1738732  76.9043690
  45.8119106  -1.2693101  76.7890357  46.7386224  -2.1322204  77.6187760
  47.0285447  -4.7961883  73.4945050  47.6249019  -5.0205861  72.7802013
  47.0860418  -5.5377138  74.0970498  46.6010475  -7.3422448  61.3295241
  46.8535996  -7.8640927  60.5678704  45.6635034  -7.5056303  61.4321925
  51.6453758  -8.3386670  69.1369984  52.4316847  -8.7567246  68.7860401
  51.9092462  -7.4340577  69.3051633  51.8163835  -2.9013819  63.8358641
  51.1809668  -2.8279193  64.5479546  51.4861242  -2.3120220  63.1577720
  46.3206764  -5.4394342  63.5319616  46.2043022  -6.1149439  64.2000700
  46.4309024  -5.9261968  62.7151769  48.6638305  -5.9784195  67.2366305
  48.2996512  -6.5053574  67.9479227  49.5205421  -6.3685726  67.0632791
  48.3043792 -10.9494295  62.2327654  48.4718194 -10.0814059  62.5998125
  48.1140961 -10.7867014  61.3088943  51.0619125  -2.4877316  73.8993484
  50.7619848  -1.5852278  73.7909291  50.7170184  -2.7545133  74.7514637
  44.5131606  -6.0363519  69.9330189  43.5882103  -6.1687305  70.1407880
  44.7616020  -5.2569300  70.4300131  48.2833013  -8.4936638  63.2174321
  48.1632638  -8.0479587  64.0559801  47.5885601  -8.1451320  62.6587859
  41.8740417  -6.3930246  70.7673978  42.0032799  -6.1395767  71.6813389
  41.1937869  -5.8002538  70.4478633  46.0439905   4.2767004  66.8664452
  45.9663934   5.2274829  66.9452932  45.4401548   3.9312877  67.5239378
  48.5357134  -8.5505131  79.5225819  47.7590468  -7.9911210  79.5128683
  49.1747697  -8.0648348  80.0440689  53.9818079  -8.0215165  64.0454655
  54.8935935  -7.7887778  63.8702352  53.4727726  -7.4378120  63.4829733
  46.7903507  -5.7419677  79.0843786  47.5318191  -5.2034633  78.8078609
  46.0840492  -5.1153388  79.2415338  52.2658846  -3.5990537  77.6815947
  52.6742202  -4.0408126  76.9370580  51.5436108  -4.1737909  77.9350140
  48.6189916  -8.6617930  75.0549504  49.4651112  -8.2378516  75.1984153
  48.5588554  -9.3184306  75.7488067  52.5887661  -3.0389346  71.4368236
  51.9596523  -2.8743632  70.7344304  52.2013323  -2.6247737  72.2079200
  56.4676893  -2.1034908  68.7912600  55.7827931  -1.7236007  68.2409633
  56.5520742  -1.4939582  69.5244548  53.7227825  -4.4574949  75.3907943
  53.9344720  -3.8143189  74.7142325  53.6757573  -5.2912633  74.9229874
  48.1415623  -3.3014938  68.7018321  48.6053968  -3.0227235  67.9122944
  47.8772421  -4.2031493  68.5191412  45.0339704  -3.7543456  71.6398084
  45.6041061  -3.3256188  71.0015569  45.6247816  -4.0360872  72.3382270
  47.0784509  -7.1791786  65.5107886  47.7808552  -6.7270742  65.9781813
  46.7465137  -7.8207967  66.1387779  45.5264870  -8.5880029  79.8859096
  44.8963531  -7.9063748  80.1194493  45.4200958  -8.6996947  78.9412234
  54.8373652  -1.5802994  73.5630301  55.6591096  -1.9822807  73.2812982
  54.8336055  -1.6834760  74.5146417  42.7724588  -8.5563654  67.7708497
  41.9755752  -8.4444959  68.2891992  42.5450181  -8.2177002  66.9049387
  48.6030256  -2.0318951  75.7191011  48.6674688  -1.5698543  76.5549183
  47.8941180  -2.6621586  75.8473321  62.9279646  -5.2364245  69.9115272
  62.1743354  -5.8056847  69.7559277  63.0627187  -5.2701581  70.8585907
  48.3178274  -0.3650843  65.5869992  48.1823948   0.4800693  66.0154839
  48.8588086  -0.1631565  64.8235925  41.7707671  -2.8475405  66.1597917
  42.2832192  -2.0532155  66.3103481  42.4230384  -3.5449115  66.0931518
  43.5802556   0.2690351  68.2420670  43.7569184   1.1908316  68.0541654
  44.3759389  -0.0451230  68.6715050  42.8654912  -7.6845017  78.1182833
  42.7508427  -8.5859760  78.4189932  42.0099430  -7.4381320  77.7667650
  49.9446750   0.2572723  79.7170334  49.5010604  -0.5290898  79.3991238
  50.6063964   0.4451874  79.0514224  44.7033871   1.7868525  74.2431012
  45.2541296   1.6585588  73.4708006  43.8645347   2.0863414  73.8925905
  52.0427988   0.5375523  77.7451735  52.0246463   1.3584404  77.2532004
  52.9647908   0.4129599  77.9701876  48.5001042  -1.9480347  78.5875243
  49.0329379  -2.7092059  78.3574551  47.9715123  -2.2406695  79.3299398
  39.7356588  -4.5186751  66.9357487  40.5731810  -4.1089742  66.7191195
  39.9134855  -5.4587309  66.9057681  51.6321020  -6.8511670  62.6241320
  51.1167643  -6.0807065  62.8629708  51.3598328  -7.5246534  63.2474382
  56.6055294  -4.0979315  64.5594494  55.8284737  -4.4368156  64.1149656
  57.2846775  -4.0926692  63.8849459  51.4207323  -8.9784578  64.4501101
  51.1157459  -8.6638429  65.3011245  52.3737765  -8.9003158  64.4928434
  49.8653755  -2.8194355  66.0994055  49.3375116  -3.5541595  65.7867293
  49.3641258  -2.0419678  65.8534024  54.8446601  -4.6245334  71.2161102
  54.1870275  -3.9346073  71.3041230  55.6487000  -4.2348902  71.5595088
  53.6552060  -6.2700961  69.2665043  54.1683941  -5.6370970  69.7686753
  54.3053284  -6.8699766  68.9008403  44.9242070 -10.1270227  62.4796552
  44.0879382  -9.7895541  62.8005827  44.7846839 -10.2621248  61.5423689
  48.0106355  -5.0014144  59.1029028  47.1033417  -5.2324891  59.3020177
  48.5077387  -5.7976525  59.2903010  50.9174434   3.7083363  62.0225715
  50.2436133   4.0115060  62.6310672  51.3040256   4.5112443  61.6731172
  50.1332891  -8.7951506  71.5123384  49.2155452  -8.5736559  71.3545072
  50.5493034  -8.7205195  70.6535091  50.9167938  -7.3960090  66.6426064
  51.6639757  -6.8838693  66.3333186  51.1859528  -7.7176037  67.5030458
  49.1894589  -4.9001549  63.6253018  48.2805808  -5.1842517  63.7225488
  49.2189672  -4.4802471  62.7656325  54.4213856  -1.2894960  67.3944186
  53.9676183  -2.1304050  67.4509376  53.7907823  -0.6533562  67.7318966
  52.8646795   0.5481537  68.3294004  53.1569770   1.1086594  67.6106370
  53.3745416   0.8410098  69.0847163  47.7379483  -7.2872929  69.7262814
  47.7928092  -8.2399092  69.6505290  46.9270685  -7.1313490  70.2104112
  48.8870676  -3.3592806  60.9641097  48.4490106  -4.0756947  60.5046734
  49.6281117  -3.1316691  60.4026188  45.6771842  -8.6695869  67.4853193
  44.8639708  -8.3701699  67.8918385  46.1730837  -9.0640180  68.2027675
  47.8280420   1.3261888  69.4187457  47.7856599   1.5522734  68.4895989
  48.7443119   1.0925262  69.5673259  51.2746054  -8.2054045  76.3168087
  51.6295442  -7.9782572  77.1762552  51.9218185  -7.8735668  75.6945342
  57.0043791  -5.0835609  67.0217416  56.8661690  -4.8934013  66.0938605
  56.6480010  -4.3216226  67.4785467  57.0313171  -3.0159082  72.0328687
  57.4649677  -3.1083793  72.8811741  57.7444751  -3.0401581  71.3948703
  45.9446221  -1.7975083  69.2149420  46.7386820  -2.2924763  69.0131995
  45.2337914  -2.3257220  68.8517126  50.7641066   0.5843012  73.5661788
  50.8178088   1.1533949  74.3339504  49.8955847   0.7544897  73.2015825
  42.2528985  -7.6532001  65.2909173  41.3226573  -7.7147546  65.5079135
  42.3486457  -8.1756049  64.4945814  57.8928720  -2.9735381  74.5661573
  58.0864610  -2.0689571  74.8120847  57.7929338  -3.4327962  75.4000158
  52.9543829  -2.8228638  80.1402453  52.8029335  -3.0518087  79.2232537
  52.9448508  -1.8658037  80.1533798  49.7229165  -5.2496726  75.1248720
  50.6521225  -5.0985566  74.9517687  49.3020195  -5.1612705  74.2697366
  48.5217497  -1.2246061  72.8947257  48.3828583  -1.5927277  73.7673195
  47.7332093  -0.7098422  72.7231215  49.1165649   3.8763035  64.2372794
  49.2917405   3.4051078  65.0518416  48.4298437   4.5028801  64.4654054
  50.0722712  -1.8464459  70.2836095  49.7372545  -1.8863689  71.1793745
  49.5726658  -2.5119743  69.8106505  44.0466956  -6.4396828  75.8088676
  43.9086754  -7.1716590  76.4100215  44.9571880  -6.5287928  75.5272864
  53.0081904  -4.5008424  60.5573155  52.3911075  -5.2261596  60.4606207
  52.5398392  -3.7399064  60.2140229  46.6749257  -6.7276869  75.2972356
  47.3848875  -7.3683677  75.2558974  46.6318565  -6.4763974  76.2198537
  54.6636036   0.2090484  78.2178935  54.6048582  -0.4750296  77.5509518
  55.0655554   0.9509474  77.7659561  45.3878191  -9.7411651  77.1167995
  44.8515548 -10.1920913  77.7689592  44.7994899  -9.6065742  76.3738460
  43.6826734   7.0252398  71.0112654  43.9223333   7.6570922  71.6891672
  42.8395931   6.6740438  71.2978013  54.6653443  -1.8269932  76.4492915
  53.7780222  -2.1644010  76.5719314  55.2351994  -2.5586901  76.6861680
  48.1954596   2.8331520  73.4154158  48.1224768   3.6386492  73.9273462
  47.7531989   3.0323486  72.5902179  47.9844376   2.0703290  66.9256979
  47.2011898   2.6124971  67.0195204  48.6837121   2.5877270  67.3251221
  59.1470783  -6.4161715  71.2109476  59.1360660  -5.5336999  70.8403409
  58.2788163  -6.7690164  71.0164013  50.6553280   2.7318354  75.5712317
  51.3681252   3.3665819  75.4988218  50.1643308   2.8282220  74.7552318
  52.3770807  -3.3630393  67.1429608  51.4427085  -3.2428930  66.9734313
  52.5547475  -4.2657926  66.8789618  47.8775995  -9.9784697  69.2962869
  47.5073782 -10.5313657  69.9843775  48.3735087 -10.5826564  68.7437869
  55.7643358  -7.5213074  67.6779642  56.2303810  -6.6885082  67.6039945
  56.2150859  -7.9868092  68.3824901  45.7065193   0.4812798  76.3917887
  46.4074653   1.1149281  76.5447282  45.2360308   0.8227529  75.6313527
  53.8319589  -1.1769252  64.6765794  54.1079433  -1.2912658  65.5859668
  52.9624088  -1.5751767  64.6377967  53.5066479  -6.9642595  74.2170438
  52.8537930  -6.7166687  73.5622890  53.8846859  -7.7778456  73.8832915
  50.4673653   3.0717099  68.3198608  50.6496048   2.2538755  68.7826360
  51.2906639   3.2884791  67.8823498  50.8015819   1.9985284  65.5813656
  51.3303585   1.4877738  64.9683819  51.0644038   1.6827814  66.4459189
  49.5554052  -6.2222784  80.7036475  48.8794689  -6.3228654  81.3738850
  50.3781686  -6.3783570  81.1672472  41.3032911   0.0149153  73.3248990
  41.8886348  -0.7307159  73.4576894  41.1057750   0.3253110  74.2085654
  44.1571567   3.0500400  68.3411432  43.4881942   3.5346528  67.8575472
  44.0184436   3.2969621  69.2554811  48.2976835   5.0844144  74.9394091
  48.8495143   5.2475765  75.7043176  48.6383029   5.6748582  74.2674116
  53.1487709  -0.0894599  80.7942745  53.6927613   0.5235360  80.2997700
  52.5674554   0.4684980  81.3109758  51.4345222   3.0326119  71.9257773
  51.3096362   2.2315859  71.4168718  52.0924314   3.5272313  71.4371743
  53.4980131   0.8335140  73.5537323  52.5510466   0.7140491  73.4815650
  53.8462904  -0.0542362  73.6363584  50.5026564   0.6287856  69.7541675
  50.3551527  -0.2995437  69.9349245  51.3280058   0.6507946  69.2698750
  54.1060686   1.4516414  70.8406548  55.0307233   1.2459276  70.7030999
  53.9375989   1.2032816  71.7495889  45.2387300  -8.5588593  71.3244537
  45.0931881  -8.2448290  72.2168819  44.7612503  -7.9403693  70.7715436
  48.9509813 -11.1348705  73.4178554  48.6927591 -10.2131635  73.4162884
  48.4194854 -11.5318271  74.1079018  53.8956002   1.9702082  66.1968639
  54.0692880   1.4048504  65.4442492  54.3884893   2.7702977  66.0148129
  39.7132962  -6.0183249  74.2632198  39.1686430  -5.2423441  74.3952473
  40.5912312  -5.6712445  74.1051320  59.7495393  -5.2661495  67.8158939
  60.1926539  -6.0154170  67.4178062  58.8721904  -5.2751359  67.4332671
  54.8831175   1.2868846  63.2965538  55.5782079   1.9075539  63.5152852
  55.2254325   0.4364198  63.5717916  40.4998984  -6.8913353  77.1562355
  39.7580720  -6.7430717  77.7426986  40.1791728  -6.6305087  76.2929105
  56.7822598  -1.2631448  64.8252868  57.3073922  -0.9244175  64.1002189
  56.6944950  -2.1984433  64.6416003  48.4442646   2.6502626  76.9542745
  48.7529773   2.4051772  77.8265445  49.2418129   2.8549264  76.4661615
  48.4663259   4.8040535  69.1848122  48.0268249   4.3116914  69.8780978
  49.2171375   4.2613503  68.9440197  40.9455598   0.9952076  69.1872750
  41.7713617   0.6955848  68.8071393  40.5949650   0.2259698  69.6362538
  45.9137131   0.3478544  71.2570423  45.2917140  -0.3150751  70.9572651
  46.5841998   0.3739676  70.5744071  39.1464203  -1.0861598  70.1461683
  38.3096111  -1.5139423  69.9645685  39.1187848  -0.8929154  71.0832475
  56.4716504  -0.6298545  80.1304066  55.6812048  -0.6474406  79.5908566
  56.2349858  -0.0910251  80.8853103  56.5914379  -3.7806078  77.4436795
  56.6412384  -3.9456071  78.3852318  56.4828302  -4.6478819  77.0534676
  45.4750638  -1.1017532  64.7328884  45.6238758  -0.4182068  64.0795557
  46.2817081  -1.1212442  65.2478340  53.8818141  -7.7975150  78.7596102
  54.7828004  -7.9368685  78.4680100  53.9566116  -7.6320695  79.6994279
  48.2160947 -10.4208295  77.6049288  47.3464256 -10.1274729  77.3331877
  48.4520427  -9.8367850  78.3256552  58.0932576  -1.3609137  77.6878817
  57.8017384  -0.9979156  78.5242277  57.4804707  -2.0742128  77.5092149
  59.2928258  -3.7956257  70.2081387  60.1275149  -3.3566453  70.3718947
  59.4287387  -4.2717604  69.3889633  56.3419764  -6.2376522  76.1558875
  56.8173886  -6.0448876  75.3477726  55.4185329  -6.1817336  75.9102258
  43.2303271  -5.0752355  65.7389953  42.9849313  -5.9790025  65.9370163
  43.3999185  -5.0735204  64.7969431  48.9746043   1.3930598  62.2040631
  48.4020010   2.0120785  61.7511103  49.5478837   1.9429960  62.7380553
  52.1943303   1.6767748  63.3349214  53.1273976   1.6113310  63.5382089
  52.1066516   2.5124015  62.8763746  54.8231320   0.9933618  60.2953161
  54.7444951   0.6593482  61.1888919  55.6440986   1.4855386  60.2944634
  57.5209511  -6.1404642  73.5029480  57.4885831  -7.0788641  73.6889164
  58.1310134  -6.0620605  72.7695305  49.3592842  -7.2708589  59.5456684
  50.3051946  -7.4002381  59.6145102  48.9807087  -8.0093927  60.0226112
  63.3386061  -5.0788635  72.6435517  64.0689449  -5.3403347  73.2043220
  62.7293006  -5.8159913  72.6837585  61.4201358  -6.9380773  73.2409968
  60.6934521  -7.0724808  72.6326459  61.0048645  -6.6303944  74.0466686
  49.2431534  -3.2190843  81.0057341  50.1634544  -3.0412244  81.1997387
  49.2081117  -4.1634798  80.8537040  47.5435759  -9.3458613  59.4811569
  46.6367214  -9.6425500  59.5574283  47.8211740  -9.6428795  58.6145855
  42.2393607  -5.3089808  73.6480122  42.4579616  -4.3772701  73.6668156
  42.6519381  -5.6681834  74.4334926  47.1121472  -9.7356603  83.0382871
  47.0118199  -8.7862246  82.9694962  46.8943014 -10.0638364  82.1658941
  38.3301959  -4.4049338  71.9003737  37.6365431  -4.8195385  71.3873691
  39.0774950  -4.3628801  71.3037156  46.9752742  -6.3059464  81.8547933
  46.4919824  -5.5059104  82.0611822  47.0613681  -6.2951519  80.9015377
  40.2438702  -4.4731084  69.7769752  40.2209390  -4.3743397  68.8251635
  40.5539338  -3.6265933  70.0986918  42.9026080  -2.4154929  73.8916366
  43.8569333  -2.4470987  73.8246298  42.7038603  -2.8764305  74.7066592
  43.4925462  -3.8453813  76.4587164  44.3118351  -3.3509734  76.4822001
  43.7662269  -4.7621845  76.4304731  41.2576308   3.1264690  70.9086564
  41.1230776   2.3665091  70.3424562  40.8408371   3.8505590  70.4415353
  52.3935271  -1.6898386  59.9163139  53.0971121  -1.4848384  60.5320795
  51.6697920  -1.1221624  60.1812223  53.2233082  -5.9388525  66.0365410
  53.1668283  -5.4819973  65.1973042  53.7761424  -6.6997840  65.8588252
  44.4145434   4.0234007  71.1205007  44.2977818   4.9679440  71.0183697
  43.5937880   3.7207569  71.5090806  54.3021969  -1.2515857  61.9661600
  55.1367573  -1.6834658  61.7839074  54.1406312  -1.4233843  62.8938494
  53.9567861  -4.7483744  63.3317939  53.9016665  -4.9139472  62.3906383
  53.3313916  -4.0407711  63.4880129  51.2713768  -2.4434832  82.6571502
  52.1404928  -2.2694179  82.2958137  50.7920520  -1.6240415  82.5347231
  45.4399948   4.6762269  74.3360935  46.3427195   4.7085880  74.6527430
  45.2137318   3.7462720  74.3507271  47.1953550   3.4293256  70.9971014
  46.2449181   3.4295117  70.8835386  47.4986037   2.6825990  70.4807049
  62.9306244   9.2653794  72.0616776  63.5684654   9.1460542  71.3580116
  62.8127087  10.2134638  72.1204728  59.7395950   9.2181222  71.9978301
  59.4014462   9.1022287  71.1098836  60.6085718   8.8172387  71.9779307
  55.5982766  11.0716699  67.9875192  55.0347631  10.9806636  67.2191480
  55.4835161  10.2516603  68.4677684  61.1782325  14.7387666  63.2989657
  60.5270304  15.3241747  62.9123671  61.9726687  15.2693861  63.3584694
  55.1037952  11.8276804  63.6976791  55.8768828  11.2805791  63.5589667
  55.4563351  12.6921053  63.9091253  57.4404230   7.9869470  61.3295241
  57.6929750   7.4650991  60.5678704  56.5028789   7.8235615  61.4321925
  62.4847512   6.9905248  69.1369984  63.2710602   6.5724671  68.7860401
  62.7486217   7.8951340  69.3051633  62.6557590  12.4278098  63.8358641
  62.0203423  12.5012725  64.5479546  62.3254996  13.0171697  63.1577720
  67.8855939   6.9280481  70.0402963  68.6181111   6.3579698  70.2740792
  67.1295295   6.5402082  70.4809468  57.1600518   9.8897576  63.5319616
  57.0436776   9.2142479  64.2000700  57.2702778   9.4029950  62.7151769
  59.5032059   9.3507723  67.2366305  59.1390266   8.8238344  67.9479227
  60.3599175   8.9606192  67.0632791  65.4081360   0.6402055  74.4997571
  65.0764685   1.5097466  74.2758786  64.8126973   0.3238339  75.1791602
  59.1437546   4.3797622  62.2327654  59.3111949   5.2477859  62.5998125
  58.9534715   4.5424904  61.3088943  55.3525361   9.2928398  69.9330189
  54.4275857   9.1604612  70.1407880  55.6009774  10.0722617  70.4300131
  65.3010023   5.3597142  71.5790921  64.3926900   5.2912550  71.2849682
  65.2497619   5.8369086  72.4072747  59.1226767   6.8355280  63.2174321
  59.0026392   7.2812331  64.0559801  58.4279355   7.1840598  62.6587859
  52.7134172   8.9361672  70.7673978  52.8426553   9.1896151  71.6813389
  52.0331623   9.5289380  70.4478633  59.3750889   6.7786787  79.5225819
  58.5984223   7.3380707  79.5128683  60.0141452   7.2643570  80.0440689
  67.1671670   3.5613580  73.3568795  66.5246050   3.8546113  72.7108590
  66.6626598   3.4466500  74.1621992  64.8211833   7.3076753  64.0454655
  65.7329689   7.5404140  63.8702352  64.3121480   7.8913797  63.4829733
  59.4583671   6.6673988  75.0549504  60.3044866   7.0913401  75.1984153
  59.3982309   6.0107612  75.7488067  63.4281416  12.2902572  71.4368236
  62.7990278  12.4548286  70.7344304  63.0407078  12.7044181  72.2079200
  67.3070647  13.2257009  68.7912600  66.6221686  13.6055911  68.2409633
  67.3914497  13.8352336  69.5244548  62.6083116   4.3278356  76.7130678
  62.3644048   5.0820417  76.1764954  62.8843047   4.7063704  77.5477925
  64.5621579  10.8716968  75.3907943  64.7738474  11.5148728  74.7142325
  64.5151327  10.0379285  74.9229874  62.1647808   3.4834789  72.2944516
  61.3032287   3.7816043  72.5861253  62.1910243   3.7005188  71.3625548
  58.9809377  12.0276980  68.7018321  59.4447723  12.3064683  67.9122944
  58.7166176  11.1260424  68.5191412  55.8733458  11.5748461  71.6398084
  56.4434816  12.0035730  71.0015569  56.4641570  11.2931046  72.3382270
  57.9178263   8.1500132  65.5107886  58.6202307   8.6021176  65.9781813
  57.5858892   7.5083951  66.1387779  56.3658625   6.7411889  79.8859096
  55.7357286   7.4228170  80.1194493  56.2594713   6.6294970  78.9412234
  51.6603597   6.4083685  70.8125020  50.8702651   6.6641213  70.3365131
  52.1514845   7.2232023  70.9177060  65.6767407  13.7488924  73.5630301
  66.4984851  13.3469111  73.2812982  65.6729810  13.6457158  74.5146417
  53.6118343   6.7728264  67.7708497  52.8149506   6.8846958  68.2891992
  53.3843935   7.1114916  66.9049387  49.9441300   6.6614175  73.2440011
  50.1949339   7.5461185  73.5097587  50.4800849   6.4818777  72.4715103
  73.7673400  10.0927672  69.9115272  73.0137108   9.5235070  69.7559277
  73.9020941  10.0590337  70.8585907  55.6439368   1.0432655  82.2484347
  55.2506313   0.4898853  82.9231991  56.4605508   1.3543233  82.6390864
  52.6101425  12.4816513  66.1597917  53.1225946  13.2759763  66.3103481
  53.2624138  11.7842803  66.0931518  58.5607329   2.4590534  79.8404603
  59.3017042   3.0597687  79.7609066  58.7925252   1.7168171  79.2822646
  53.7048667   7.6446901  78.1182833  53.5902182   6.7432158  78.4189932
  52.8493184   7.8910598  77.7667650  62.5064492  -1.5128363  74.1168885
  62.1628761  -0.6226722  74.0407996  62.8743454  -1.7026706  73.2538470
  50.5750342  10.8105167  66.9357487  51.4125564  11.2202175  66.7191195
  50.7528610   9.8704609  66.9057681  62.4714774   8.4780248  62.6241320
  61.9561398   9.2484852  62.8629708  62.1992083   7.8045384  63.2474382
  60.0561885   3.3229948  67.6826559  59.2003482   2.9336799  67.5032197
  60.4688837   3.4021909  66.8226344  61.5861032   0.8576292  72.0818118
  61.0825828   0.8206427  71.2685924  61.8791639   1.7669034  72.1414775
  57.8303918   0.9415021  71.0884300  58.6956915   0.7457830  70.7290190
  57.8981427   0.7125373  72.0153657  67.4449048  11.2312602  64.5594494
  66.6678491  10.8923762  64.1149656  68.1240529  11.2365225  63.8849459
  62.2601078   6.3507340  64.4501101  61.9551213   6.6653489  65.3011245
  63.2131520   6.4288760  64.4928434  60.7047509  12.5097563  66.0994055
  60.1768871  11.7750323  65.7867293  60.2035012  13.2872239  65.8534024
  65.6840355  10.7046584  71.2161102  65.0264030  11.3945845  71.3041230
  66.4880755  11.0943015  71.5595088  55.4366237   3.1717229  68.4600667
  56.0109989   2.9492411  67.7273860  56.0237219   3.2405924  69.2129268
  64.4945814   9.0590956  69.2665043  65.0077696   9.6920948  69.7686753
  65.1447038   8.4592152  68.9008403  55.7635824   5.2021690  62.4796552
  54.9273136   5.5396377  62.8005827  55.6240594   5.0670670  61.5423689
  57.7388905   0.0458478  67.1875736  57.0853317  -0.2692505  66.5632351
  57.6969379  -0.5765781  67.9135559  58.8500110  10.3277773  59.1029028
  57.9427171  10.0967027  59.3020177  59.3471142   9.5315393  59.2903010
  60.9726645   6.5340412  71.5123384  60.0549206   6.7555359  71.3545072
  61.3886789   6.6086722  70.6535091  61.7561693   7.9331827  66.6426064
  62.5033512   8.4453225  66.3333186  62.0253282   7.6115880  67.5030458
  60.0288343  10.4290368  63.6253018  59.1199562  10.1449401  63.7225488
  60.0583427  10.8489447  62.7656325  65.2607610  14.0396958  67.3944186
  64.8069938  13.1987868  67.4509376  64.6301577  14.6758356  67.7318966
  64.2040530   4.9688944  68.6244853  63.4663287   4.4566330  68.9555096
  64.4567304   4.5289325  67.8128130  64.3052157  -2.2534804  69.2186623
  64.6111034  -3.1137441  68.9312538  65.0304762  -1.6617184  69.0185617
  50.5976513   8.1495882  67.6068221  50.4000913   7.5565243  66.8819287
  50.0423177   7.8448092  68.3244159  58.5773237   8.0418989  69.7262814
  58.6321847   7.0892825  69.6505290  57.7664439   8.1978428  70.2104112
  59.7264431  11.9699112  60.9641097  59.2883861  11.2534971  60.5046734
  60.4674872  12.1975227  60.4026188  56.5165597   6.6596049  67.4853193
  55.7033462   6.9590219  67.8918385  57.0124591   6.2651737  68.2027675
  62.1139809   7.1237873  76.3168087  62.4689196   7.3509346  77.1762552
  62.7611940   7.4556250  75.6945342  67.8437546  10.2456309  67.0217416
  67.7055444  10.4357905  66.0938605  67.4873764  11.0075692  67.4785467
  56.0079672   4.2314404  73.1014428  56.6479051   4.0903163  72.4037391
  55.1757202   3.9448917  72.7253030  67.8706925  12.3132836  72.0328687
  68.3043432  12.2208125  72.8811741  68.5838506  12.2890336  71.3948703
  56.7839976  13.5316834  69.2149420  57.5780574  13.0367155  69.0131995
  56.0731668  13.0034698  68.8517126  53.0922739   7.6759916  65.2909173
  52.1620327   7.6144372  65.5079135  53.1880211   7.1535869  64.4945814
  53.0108288   4.2014729  67.8787414  53.2715105   5.1160062  67.7696575
  53.8325460   3.7339172  68.0284027  54.4833213   5.6152486  75.0486239
  55.1556267   5.4069848  74.3998888  53.6563000   5.4174572  74.6091471
  68.7322475  12.3556537  74.5661573  68.9258365  13.2602347  74.8120847
  68.6323093  11.8963956  75.4000158  60.3858785   2.2414427  77.0651900
  59.7386701   2.9404377  76.9716376  61.1559801   2.6750571  77.4328148
  63.7937583  12.5063279  80.1402453  63.6423090  12.2773831  79.2232537
  63.7842263  13.4633881  80.1533798  60.9116467  13.4827459  70.2836095
  60.5766299  13.4428229  71.1793745  60.4120412  12.8172175  69.8106505
  54.8860711   8.8895089  75.8088676  54.7480509   8.1575328  76.4100215
  55.7965634   8.8003989  75.5272864  63.8475658  10.8283493  60.5573155
  63.2304829  10.1030322  60.4606207  63.3792147  11.5892854  60.2140229
  57.5143011   8.6015049  75.2972356  58.2242630   7.9608241  75.2558974
  57.4712320   8.8527943  76.2198537  65.5029790  15.5382402  78.2178935
  65.4442336  14.8541622  77.5509518  65.9049308  16.2801392  77.7659561
  56.2271945   5.5880266  77.1167995  55.6909302   5.1371005  77.7689592
  55.6388654   5.7226175  76.3738460  55.6374204   5.0468918  59.6794459
  54.7603671   4.9257719  59.3156706  56.1131957   4.2554996  59.4273348
  65.5047197  13.5021986  76.4492915  64.6173976  13.1647908  76.5719314
  66.0745748  12.7705017  76.6861680  47.1576344   9.8346078  69.7735966
  47.8447384   9.5207808  69.1856981  47.0024473  10.7387442  69.5003217
  51.9611067   4.7236274  74.2020990  51.8769255   4.1161944  73.4671400
  51.1393773   5.2145292  74.2030486  62.1334780   3.2089838  69.5691185
  62.6303480   2.4559800  69.2492255  61.3621762   3.2454154  69.0034394
  69.9864538   8.9130203  71.2109476  69.9754414   9.7954919  70.8403409
  69.1181917   8.5601754  71.0164013  63.2164561  11.9661525  67.1429608
  62.2820840  12.0862987  66.9734313  63.3941230  11.0633992  66.8789618
  58.7169749   5.3507221  69.2962869  58.3467537   4.7978261  69.9843775
  59.2128842   4.7465354  68.7437869  66.6037113   7.8078844  67.6779642
  67.0697565   8.6406836  67.6039945  67.0544613   7.3423826  68.3824901
  64.6713344  14.1522665  64.6765794  64.9473188  14.0379260  65.5859668
  63.8017842  13.7540150  64.6377967  64.5753775   0.1759431  71.7170544
  63.6616855   0.4063658  71.8852751  65.0046877   0.2597875  72.5684576
  64.3460234   8.3649323  74.2170438  63.6931684   8.6125231  73.5622890
  64.7240614   7.5513461  73.8832915  60.3947807   9.1069134  80.7036475
  59.7188444   9.0063263  81.3738850  61.2175441   8.9508348  81.1672472
  46.7344321   7.9146671  72.0453433  46.7728420   7.3810262  72.8390551
  46.2284613   7.3881876  71.4264410  54.1135083   2.7611211  75.5415975
  54.1776409   3.6226042  75.1293373  54.0502203   2.1485213  74.8088334
  53.5887355   4.8334344  79.1889010  54.2159394   4.4511421  79.8026534
  52.7315274   4.6148546  79.5544702  63.9881464  15.2397319  80.7942745
  64.5321368  15.8527277  80.2997700  63.4068309  15.7976898  81.3109758
  50.3652898   6.6410773  65.1207365  50.6606339   5.7321451  65.0674418
  49.4640934   6.6198512  64.7988367  53.8947145   4.7166770  71.1034913
  53.1733731   5.3302737  70.9642386  54.6840401   5.2524534  71.0251559
  56.6973459   2.0521196  77.3775565  57.2207860   2.2983493  78.1401874
  56.4785792   2.8841231  76.9578702  52.0940740   4.3224871  65.2446690
  51.7653446   3.4422250  65.0621796  52.4480110   4.2672539  66.1323079
  55.2082563   4.6097840  65.6122167  55.5478635   5.1383762  64.8900776
  55.6554683   4.9478247  66.3880734  57.9026004   2.9934891  75.0625235
  57.5622824   2.1942704  75.4645915  57.1965010   3.2936602  74.4902069
  58.5542476   0.0784204  73.5152558  59.3768545  -0.3955318  73.3931449
  58.7980539   0.8574687  74.0151245  57.1950710   3.1072462  63.8115460
  57.9159073   3.4853715  63.3079177  56.5716014   3.8261339  63.9150438
  61.3381833   3.8117611  64.7473792  61.5545447   4.6942249  64.4462621
  60.8575900   3.4203824  64.0179434  56.0781054   6.7703324  71.3244537
  55.9325635   7.0843627  72.2168819  55.6006258   7.3888225  70.7715436
  57.9377437   3.7605872  71.3725427  57.9239006   2.8646966  71.0357725
  58.6549865   3.7676536  72.0063713  59.7903568   4.1943212  73.4178554
  59.5321346   5.1160283  73.4162884  59.2588608   3.7973647  74.1079018
  50.5526716   9.3108669  74.2632198  50.0080185  10.0868477  74.3952473
  51.4306066   9.6579473  74.1051320  57.3414333   2.6420253  66.6412997
  57.4630244   1.7136899  66.8403884  57.0516375   2.6558939  65.7291312
  60.2105524   0.3275163  69.7779717  60.2327220   0.3914496  68.8231696
  60.6273583  -0.5120328  69.9720223  70.5889148  10.0630423  67.8158939
  71.0320294   9.3137748  67.4178062  69.7115658  10.0540559  67.4332671
  65.7224929  16.6160764  63.2965538  66.4175834  17.2367457  63.5152852
  66.0648079  15.7656115  63.5717916  51.3392738   8.4378565  77.1562355
  50.5974474   8.5861200  77.7426986  51.0185483   8.6986831  76.2929105
  67.6216352  14.0660470  64.8252868  68.1467676  14.4047742  64.1002189
  67.5338705  13.1307485  64.6416003  56.8255413   4.1552250  80.8502929
  56.8743568   5.0314373  80.4680699  57.3677927   3.6129643  80.2774573
  67.3110258  14.6993373  80.1304066  66.5205802  14.6817512  79.5908566
  67.0743613  15.2381667  80.8853103  67.4308133  11.5485840  77.4436795
  67.4806138  11.3835847  78.3852318  67.3222057  10.6813099  77.0534676
  56.3144392  14.2274385  64.7328884  56.4632512  14.9109850  64.0795557
  57.1210836  14.2079475  65.2478340  64.7211896   7.5316768  78.7596102
  65.6221759   7.3923232  78.4680100  64.7959870   7.6971222  79.6994279
  59.0554701   4.9083622  77.6049288  58.1858011   5.2017188  77.3331877
  59.2914181   5.4924067  78.3256552  68.9326330  13.9682781  77.6878817
  68.6411139  14.3312762  78.5242277  68.3198462  13.2549789  77.5092149
  70.1322013  11.5335661  70.2081387  70.9668904  11.9725465  70.3718947
  70.2681141  11.0574314  69.3889633  67.1813518   9.0915396  76.1558875
  67.6567640   9.2843042  75.3477726  66.2579084   9.1474582  75.9102258
  54.0697025  10.2539563  65.7389953  53.8243067   9.3501893  65.9370163
  54.2392940  10.2556713  64.7969431  61.7593735   1.1263239  75.1214708
  62.2775679   1.8624266  74.7961197  61.4048868   1.4327233  75.9561468
  53.3392673   5.9867920  63.2376114  52.6461918   6.0612275  62.5816150
  53.0944425   5.2228264  63.7597631  62.0106329  -2.4536478  70.6415605
  62.2908083  -3.1213289  71.2676032  62.7956936  -2.2607383  70.1290269
  65.8815187   5.9681156  74.3887180  66.8332610   6.0679253  74.4099404
  65.7118638   5.1759424  74.8985264  63.9029567   3.0536739  74.5746581
  63.3079499   3.3341752  73.8793070  63.6179264   3.5430640  75.3463322
  63.0337057  17.0059666  63.3349214  63.9667731  16.9405227  63.5382089
  62.9460270  17.8415933  62.8763746  65.6625074  16.3225536  60.2953161
  65.5838706  15.9885400  61.1888919  66.4834741  16.8147304  60.2944634
  68.3603265   9.1887275  73.5029480  68.3279585   8.2503276  73.6889164
  68.9703889   9.2671312  72.7695305  60.1986596   8.0583328  59.5456684
  61.1445701   7.9289537  59.6145102  59.8200841   7.3197990  60.0226112
  68.5097754   5.9798319  73.5487763  67.9936802   5.1956776  73.3617692
  69.3937702   5.6517036  73.7134282  66.1708481  -0.2760666  69.5083576
  65.9733302  -0.5845577  70.3926908  66.7808186   0.4500973  69.6381505
  74.1779815  10.2503282  72.6435517  74.9083204   9.9888570  73.2043220
  73.5686761   9.5132004  72.6837585  72.2595112   8.3911145  73.2409968
  71.5328276   8.2567110  72.6326459  71.8442399   8.6987974  74.0466686
  58.3829513   5.9833305  59.4811569  57.4760969   5.6866418  59.5574283
  58.6605494   5.6863123  58.6145855  49.3007454   7.3039668  69.9310615
  48.9810238   6.4504976  69.6384989  48.7540882   7.5188246  70.6868583
  53.0787361  10.0202109  73.6480122  53.2973371  10.9519217  73.6668156
  53.4913135   9.6610084  74.4334926  59.9991579   0.5270195  65.6355810
  59.1892307   0.1817280  66.0111056  60.6875996   0.2177738  66.2243422
  61.9282127  -0.3951759  67.2580107  62.4813166   0.0243695  67.9170130
  62.1652214  -1.3216011  67.3003063  57.9515227   5.5935315  83.0382871
  57.8511953   6.5429672  82.9694962  57.7336769   5.2653554  82.1658941
  57.1528298   2.8420240  59.6223548  58.0147462   3.1675138  59.8819366
  57.3378642   2.0551736  59.1096614  65.3060934   1.7148767  66.7658771
  64.7259603   2.3733571  66.3836824  65.0396867   0.8926111  66.3546189
  63.7564501   1.1153824  68.9680092  64.2564279   1.2270359  68.1594410
  64.4000109   0.8114877  69.6080900  57.8146497   9.0232454  81.8547933
  57.3313578   9.8232814  82.0611822  57.9007436   9.0340399  80.9015377
  54.3319216  11.4838105  76.4587164  55.1512105  11.9782183  76.4822001
  54.6056024  10.5670073  76.4304731  64.0885812   3.8748857  65.8215120
  63.2011667   4.1598508  65.6035314  64.5039801   3.7142620  64.9742396
  67.4400349   3.8995378  69.5369459  68.2160739   4.3891830  69.8094076
  66.7148483   4.3253432  69.9941328  69.8772907   4.6122997  70.5943399
  70.4717398   4.3718733  69.8836708  69.9499491   3.8930128  71.2216936
  63.2329026  13.6393532  59.9163139  63.9364876  13.8443534  60.5320795
  62.5091675  14.2070293  60.1812223  64.0626836   9.3903393  66.0365410
  64.0062038   9.8471944  65.1973042  64.6155179   8.6294077  65.8588252
  67.8731642   5.1793125  66.8615529  67.6168576   4.7789760  67.6923737
  67.2484510   5.8936919  66.7365668  72.1843980   7.9189198  69.3686821
  71.6243538   7.9882387  70.1418383  71.5787483   7.7430183  68.6486317
  65.1415723  14.0776061  61.9661600  65.9761327  13.6457259  61.7839074
  64.9800066  13.9058074  62.8938494  64.7961615  10.5808174  63.3317939
  64.7410419  10.4152445  62.3906383  64.1707671  11.2884207  63.4880129
  49.5854130   5.8176238  77.1579361  50.2312994   5.3075192  77.6466586
  49.3771282   6.5544920  77.7322786  62.1107523  12.8857086  82.6571502
  62.9798682  13.0597738  82.2958137  61.6314274  13.7051503  82.5347231
  58.1057741   0.0816283  62.9103257  58.0936411   1.0258123  63.0671528
  58.9981163  -0.1013572  62.6162718  61.9209860  -3.3240940  67.1649194
  61.1542256  -3.8782454  67.3105876  62.3320565  -3.2519072  68.0263346
  53.9251621   2.9643856  81.2554375  54.7883083   2.6080660  81.4657700
  53.3517032   2.6257750  81.9429780  73.7699998  24.5945712  72.0616776
  74.4078408  24.4752459  71.3580116  73.6520841  25.5426556  72.1204728
  70.5789705  24.5473140  71.9978301  70.2408216  24.4314205  71.1098836
  71.4479473  24.1464305  71.9779307  71.0609488  25.7007992  77.9564506
  71.0498128  25.3060790  77.0845010  71.2230127  24.9674064  78.5498278
  72.0176079  30.0679584  63.2989657  71.3664059  30.6533665  62.9123671
  72.8120442  30.5985779  63.3584694  65.9431706  27.1568721  63.6976791
  66.7162582  26.6097708  63.5589667  66.2957105  28.0212971  63.9091253
  68.2797984  23.3161387  61.3295241  68.5323505  22.7942909  60.5678704
  67.3422543  23.1527533  61.4321925  73.3241267  22.3197166  69.1369984
  74.1104356  21.9016589  68.7860401  73.5879971  23.2243258  69.3051633
  73.4951344  27.7570016  63.8358641  72.8597177  27.8304643  64.5479546
  73.1648751  28.3463615  63.1577720  78.7249694  22.2572399  70.0402963
  79.4574866  21.6871616  70.2740792  77.9689050  21.8693999  70.4809468
  67.9994273  25.2189493  63.5319616  67.8830531  24.5434397  64.2000700
  68.1096533  24.7321867  62.7151769  70.3425814  24.6799640  67.2366305
  69.9784021  24.1530261  67.9479227  71.1992930  24.2898109  67.0632791
  76.2475114  15.9693973  74.4997571  75.9158439  16.8389384  74.2758786
  75.6520728  15.6530257  75.1791602  69.9831301  19.7089540  62.2327654
  70.1505703  20.5769777  62.5998125  69.7928470  19.8716822  61.3088943
  72.7406634  28.1706519  73.8993484  72.4407357  29.0731558  73.7909291
  72.3957693  27.9038702  74.7514637  76.1403778  20.6889059  71.5790921
  75.2320655  20.6204468  71.2849682  76.0891373  21.1661004  72.4072747
  69.9620522  22.1647198  63.2174321  69.8420147  22.6104248  64.0559801
  69.2673110  22.5132515  62.6587859  70.2144643  22.1078705  79.5225819
  69.4377977  22.6672625  79.5128683  70.8535206  22.5935488  80.0440689
  78.0065424  18.8905498  73.3568795  77.3639804  19.1838031  72.7108590
  77.5020353  18.7758418  74.1621992  75.6605588  22.6368671  64.0454655
  76.5723444  22.8696058  63.8702352  75.1515235  23.2205715  63.4829733
  68.4691016  24.9164158  79.0843786  69.2105700  25.4549202  78.8078609
  67.7628001  25.5430447  79.2415338  73.9446355  27.0593299  77.6815947
  74.3529711  26.6175709  76.9370580  73.2223617  26.4845926  77.9350140
  70.2977425  21.9965905  75.0549504  71.1438621  22.4205319  75.1984153
  70.2376063  21.3399530  75.7488067  74.2675170  27.6194489  71.4368236
  73.6384032  27.7840203  70.7344304  73.8800832  28.0336099  72.2079200
  78.1464402  28.5548927  68.7912600  77.4615440  28.9347828  68.2409633
  78.2308251  29.1644254  69.5244548  73.4476871  19.6570274  76.7130678
  73.2037803  20.4112334  76.1764954  73.7236801  20.0355621  77.5477925
  75.4015334  26.2008886  75.3907943  75.6132229  26.8440646  74.7142325
  75.3545082  25.3671203  74.9229874  73.0041562  18.8126707  72.2944516
  72.1426042  19.1107960  72.5861253  73.0303997  19.0297106  71.3625548
  69.8203132  27.3568897  68.7018321  70.2841477  27.6356600  67.9122944
  69.5559930  26.4552342  68.5191412  68.7572018  23.4792050  65.5107886
  69.4596061  23.9313093  65.9781813  68.4252646  22.8375869  66.1387779
  67.2052379  22.0703806  79.8859096  66.5751040  22.7520087  80.1194493
  67.0988467  21.9586888  78.9412234  76.5161161  29.0780842  73.5630301
  77.3378605  28.6761029  73.2812982  76.5123564  28.9749076  74.5146417
  70.2817765  28.6264885  75.7191011  70.3462197  29.0885292  76.5549183
  69.5728689  27.9962250  75.8473321  84.6067155  25.4219590  69.9115272
  83.8530863  24.8526988  69.7559277  84.7414696  25.3882255  70.8585907
  69.9965783  30.2932992  65.5869992  69.8611457  31.1384528  66.0154839
  70.5375595  30.4952270  64.8235925  66.4833122  16.3724572  82.2484347
  66.0900068  15.8190771  82.9231991  67.2999263  16.6835151  82.6390864
  69.4001083  17.7882451  79.8404603  70.1410797  18.3889604  79.7609066
  69.6319006  17.0460089  79.2822646  73.7215497  31.1959359  77.7451735
  73.7033972  32.0168240  77.2532004  74.6435417  31.0713434  77.9701876
  73.3458246  13.8163554  74.1168885  73.0022516  14.7065196  74.0407996
  73.7137209  13.6265212  73.2538470  73.3108529  23.8072165  62.6241320
  72.7955152  24.5776770  62.8629708  73.0385837  23.1337301  63.2474382
  70.8955640  18.6521866  67.6826559  70.0397236  18.2628716  67.5032197
  71.3082592  18.7313827  66.8226344  72.4254787  16.1868209  72.0818118
  71.9219582  16.1498345  71.2685924  72.7185393  17.0960952  72.1414775
  68.6697672  16.2706939  71.0884300  69.5350669  16.0749748  70.7290190
  68.7375181  16.0417291  72.0153657  78.2842803  26.5604520  64.5594494
  77.5072246  26.2215679  64.1149656  78.9634284  26.5657143  63.8849459
  73.0994832  21.6799257  64.4501101  72.7944968  21.9945407  65.3011245
  74.0525274  21.7580677  64.4928434  71.5441264  27.8389481  66.0994055
  71.0162625  27.1042240  65.7867293  71.0428767  28.6164157  65.8534024
  76.5234110  26.0338501  71.2161102  75.8657784  26.7237763  71.3041230
  77.3274509  26.4234933  71.5595088  75.3339569  24.3882874  69.2665043
  75.8471450  25.0212866  69.7686753  75.9840793  23.7884069  68.9008403
  66.6029579  20.5313608  62.4796552  65.7666891  20.8688295  62.8005827
  66.4634348  20.3962588  61.5423689  68.5782659  15.3750396  67.1875736
  67.9247072  15.0599413  66.5632351  68.5363133  14.7526136  67.9135559
  69.6893864  25.6569691  59.1029028  68.7820926  25.4258944  59.3020177
  70.1864896  24.8607310  59.2903010  72.5961943  34.3667198  62.0225715
  71.9223642  34.6698895  62.6310672  72.9827765  35.1696279  61.6731172
  71.8120400  21.8632329  71.5123384  70.8942961  22.0847276  71.3545072
  72.2280543  21.9378640  70.6535091  72.5955447  23.2623745  66.6426064
  73.3427266  23.7745142  66.3333186  72.8647037  22.9407798  67.5030458
  70.8682097  25.7582286  63.6253018  69.9593317  25.4741319  63.7225488
  70.8977181  26.1781364  62.7656325  76.1001365  29.3688875  67.3944186
  75.6463692  28.5279785  67.4509376  75.4695332  30.0050274  67.7318966
  75.0434284  20.2980861  68.6244853  74.3057041  19.7858248  68.9555096
  75.2961058  19.8581243  67.8128130  74.5434304  31.2065372  68.3294004
  74.8357279  31.7670429  67.6106370  75.0532925  31.4993933  69.0847163
  75.1445912  13.0757113  69.2186623  75.4504789  12.2154477  68.9312538
  75.8698517  13.6674734  69.0185617  70.5658185  27.2991030  60.9641097
  70.1277615  26.5826888  60.5046734  71.3068626  27.5267144  60.4026188
  67.3559351  21.9887966  67.4853193  66.5427217  22.2882137  67.8918385
  67.8518346  21.5943655  68.2027675  69.5067929  31.9845723  69.4187457
  69.4644108  32.2106569  68.4895989  70.4230628  31.7509098  69.5673259
  72.9533563  22.4529791  76.3168087  73.3082951  22.6801264  77.1762552
  73.6005694  22.7848167  75.6945342  78.6831300  25.5748227  67.0217416
  78.5449199  25.7649823  66.0938605  78.3267519  26.3367609  67.4785467
  78.7100680  27.6424754  72.0328687  79.1437186  27.5500043  72.8811741
  79.4232260  27.6182254  71.3948703  72.4428575  31.2426848  73.5661788
  72.4965597  31.8117784  74.3339504  71.5743356  31.4128733  73.2015825
  79.5716229  27.6848454  74.5661573  79.7652119  28.5894265  74.8120847
  79.4716847  27.2255873  75.4000158  71.2252540  17.5706345  77.0651900
  70.5780455  18.2696294  76.9716376  71.9953555  18.0042489  77.4328148
  74.6331338  27.8355197  80.1402453  74.4816844  27.6065749  79.2232537
  74.6236017  28.7925798  80.1533798  71.4016674  25.4087110  75.1248720
  72.3308734  25.5598269  74.9517687  70.9807704  25.4971131  74.2697366
  70.7953158  34.5346871  64.2372794  70.9704914  34.0634914  65.0518416
  70.1085946  35.1612637  64.4654054  71.7510221  28.8119377  70.2836095
  71.4160054  28.7720147  71.1793745  71.2514167  28.1464093  69.8106505
  74.6869413  26.1575411  60.5573155  74.0698584  25.4322239  60.4606207
  74.2185901  26.9184771  60.2140229  76.3423545  30.8674320  78.2178935
  76.2836091  30.1833540  77.5509518  76.7443063  31.6093310  77.7659561
  67.0665700  20.9172184  77.1167995  66.5303057  20.4662923  77.7689592
  66.4782408  21.0518093  76.3738460  66.4767959  20.3760835  59.6794459
  65.5997425  20.2549636  59.3156706  66.9525712  19.5846914  59.4273348
  76.3440952  28.8313903  76.4492915  75.4567731  28.4939825  76.5719314
  76.9139503  28.0996935  76.6861680  69.6631885  32.7287126  66.9256979
  68.8799407  33.2708806  67.0195204  70.3624630  33.2461105  67.3251221
  72.9728535  18.5381755  69.5691185  73.4697234  17.7851718  69.2492255
  72.2015516  18.5746072  69.0034394  80.8258292  24.2422121  71.2109476
  80.8148169  25.1246836  70.8403409  79.9575672  23.8893672  71.0164013
  74.0558316  27.2953443  67.1429608  73.1214594  27.4154905  66.9734313
  74.2334984  26.3925909  66.8789618  69.5563504  20.6799138  69.2962869
  69.1861291  20.1270179  69.9843775  70.0522596  20.0757272  68.7437869
  77.4430867  23.1370762  67.6779642  77.9091319  23.9698753  67.6039945
  77.8938368  22.6715743  68.3824901  75.5107098  29.4814583  64.6765794
  75.7866942  29.3671178  65.5859668  74.6411597  29.0832068  64.6377967
  75.4147530  15.5051349  71.7170544  74.5010610  15.7355576  71.8852751
  75.8440631  15.5889793  72.5684576  75.1853988  23.6941241  74.2170438
  74.5325438  23.9417148  73.5622890  75.5634368  22.8805379  73.8832915
  72.1461162  33.7300934  68.3198608  72.3283557  32.9122590  68.7826360
  72.9694148  33.9468626  67.8823498  72.4803328  32.6569119  65.5813656
  73.0091094  32.1461574  64.9683819  72.7431547  32.3411649  66.4459189
  71.2341561  24.4361052  80.7036475  70.5582198  24.3355181  81.3738850
  72.0569195  24.2800266  81.1672472  64.9528837  18.0903129  75.5415975
  65.0170164  18.9517960  75.1293373  64.8895958  17.4777131  74.8088334
  64.4281110  20.1626262  79.1889010  65.0553149  19.7803339  79.8026534
  63.5709029  19.9440464  79.5544702  73.1132731  33.6909955  71.9257773
  72.9883871  32.8899695  71.4168718  73.7711823  34.1856148  71.4371743
  75.1767640  31.4918975  73.5537323  74.2297975  31.3724326  73.4815650
  75.5250413  30.6041473  73.6363584  67.5367213  17.3813114  77.3775565
  68.0601615  17.6275410  78.1401874  67.3179546  18.2133149  76.9578702
  72.1814073  31.2871691  69.7541675  72.0339036  30.3588399  69.9349245
  73.0067567  31.3091782  69.2698750  75.7848195  32.1100250  70.8406548
  76.7094742  31.9043111  70.7030999  75.6163498  31.8616651  71.7495889
  68.7419758  18.3226809  75.0625235  68.4016579  17.5234622  75.4645915
  68.0358764  18.6228520  74.4902069  69.3936230  15.4076121  73.5152558
  70.2162299  14.9336600  73.3931449  69.6374294  16.1866605  74.0151245
  68.0344465  18.4364380  63.8115460  68.7552827  18.8145633  63.3079177
  67.4109769  19.1553257  63.9150438  72.1775587  19.1409529  64.7473792
  72.3939202  20.0234167  64.4462621  71.6969655  18.7495742  64.0179434
  68.7771192  19.0897790  71.3725427  68.7632760  18.1938883  71.0357725
  69.4943620  19.0968454  72.0063713  70.6297322  19.5235130  73.4178554
  70.3715100  20.4452201  73.4162884  70.0982363  19.1265565  74.1079018
  75.5743511  32.6285917  66.1968639  75.7480389  32.0632340  65.4442492
  76.0672402  33.4286812  66.0148129  68.1808088  17.9712170  66.6412997
  68.3023999  17.0428816  66.8403884  67.8910130  17.9850856  65.7291312
  71.0499278  15.6567081  69.7779717  71.0720975  15.7206414  68.8231696
  71.4667337  14.8171589  69.9720223  81.4282902  25.3922340  67.8158939
  81.8714048  24.6429665  67.4178062  80.5509413  25.3832477  67.4332671
  76.5618684  31.9452682  63.2965538  77.2569588  32.5659374  63.5152852
  76.9041834  31.0948033  63.5717916  78.4610107  29.3952387  64.8252868
  78.9861431  29.7339660  64.1002189  78.3732459  28.4599403  64.6416003
  67.6649167  19.4844168  80.8502929  67.7137323  20.3606290  80.4680699
  68.2071681  18.9421561  80.2774573  78.1504013  30.0285291  80.1304066
  77.3599557  30.0109430  79.5908566  77.9137367  30.5673585  80.8853103
  78.2701888  26.8777757  77.4436795  78.3199893  26.7127765  78.3852318
  78.1615811  26.0105016  77.0534676  67.1538147  29.5566303  64.7328884
  67.3026267  30.2401767  64.0795557  67.9604590  29.5371393  65.2478340
  75.5605650  22.8608685  78.7596102  76.4615513  22.7215150  78.4680100
  75.6353625  23.0263140  79.6994279  69.8948456  20.2375540  77.6049288
  69.0251765  20.5309106  77.3331877  70.1307936  20.8215985  78.3256552
  79.7720085  29.2974699  77.6878817  79.4804893  29.6604679  78.5242277
  79.1592216  28.5841707  77.5092149  80.9715767  26.8627579  70.2081387
  81.8062658  27.3017383  70.3718947  81.1074896  26.3866232  69.3889633
  78.0207273  24.4207313  76.1558875  78.4961395  24.6134960  75.3477726
  77.0972838  24.4766499  75.9102258  72.5987489  16.4555157  75.1214708
  73.1169433  17.1916184  74.7961197  72.2442622  16.7619150  75.9561468
  72.8500084  12.8755439  70.6415605  73.1301837  12.2078629  71.2676032
  73.6350691  13.0684535  70.1290269  70.6533552  32.0514433  62.2040631
  70.0807519  32.6704620  61.7511103  71.2266346  32.6013795  62.7380553
  76.7208942  21.2973073  74.3887180  77.6726365  21.3971171  74.4099404
  76.5512392  20.5051342  74.8985264  74.7423321  18.3828657  74.5746581
  74.1473254  18.6633669  73.8793070  74.4573018  18.8722558  75.3463322
  73.8730812  32.3351583  63.3349214  74.8061485  32.2697145  63.5382089
  73.7854025  33.1707850  62.8763746  76.5018829  31.6517454  60.2953161
  76.4232460  31.3177317  61.1888919  77.3228495  32.1439222  60.2944634
  79.1997020  24.5179193  73.5029480  79.1673340  23.5795194  73.6889164
  79.8097643  24.5963230  72.7695305  71.0380351  23.3875246  59.5456684
  71.9839455  23.2581454  59.6145102  70.6594596  22.6489908  60.0226112
  79.3491508  21.3090237  73.5487763  78.8330557  20.5248693  73.3617692
  80.2331457  20.9808953  73.7134282  77.0102235  15.0531252  69.5083576
  76.8127056  14.7446340  70.3926908  77.6201941  15.7792891  69.6381505
  85.0173570  25.5795200  72.6435517  85.7476958  25.3180488  73.2043220
  84.4080515  24.8423922  72.6837585  83.0988867  23.7203063  73.2409968
  82.3722030  23.5859028  72.6326459  82.6836154  24.0279891  74.0466686
  69.2223268  21.3125223  59.4811569  68.3154723  21.0158335  59.5574283
  69.4999249  21.0155041  58.6145855  70.8385333  15.8562112  65.6355810
  70.0286062  15.5109197  66.0111056  71.5269750  15.5469656  66.2243422
  72.7675882  14.9340159  67.2580107  73.3206920  15.3535612  67.9170130
  73.0045968  14.0075907  67.3003063  67.9922052  18.1712158  59.6223548
  68.8541216  18.4967056  59.8819366  68.1772397  17.3843654  59.1096614
  76.1454689  17.0440684  66.7658771  75.5653358  17.7025488  66.3836824
  75.8790622  16.2218029  66.3546189  74.5958255  16.4445742  68.9680092
  75.0958034  16.5562276  68.1594410  75.2393863  16.1406795  69.6080900
  74.9279567  19.2040775  65.8215120  74.0405422  19.4890425  65.6035314
  75.3433556  19.0434538  64.9742396  78.2794103  19.2287296  69.5369459
  79.0554493  19.7183748  69.8094076  77.5542237  19.6545350  69.9941328
  80.7166662  19.9414915  70.5943399  81.3111152  19.7010651  69.8836708
  80.7893245  19.2222045  71.2216936  74.0722780  28.9685449  59.9163139
  74.7758630  29.1735452  60.5320795  73.3485429  29.5362211  60.1812223
  74.9020591  24.7195311  66.0365410  74.8455792  25.1763862  65.1973042
  75.4548933  23.9585995  65.8588252  78.7125397  20.5085042  66.8615529
  78.4562331  20.1081678  67.6923737  78.0878265  21.2228836  66.7365668
  83.0237734  23.2481116  69.3686821  82.4637292  23.3174305  70.1418383
  82.4181238  23.0722100  68.6486317  75.9809478  29.4067978  61.9661600
  76.8155082  28.9749177  61.7839074  75.8193821  29.2349992  62.8938494
  75.6355370  25.9100092  63.3317939  75.5804174  25.7444363  62.3906383
  75.0101425  26.6176125  63.4880129  68.9451495  15.4108201  62.9103257
  68.9330165  16.3550041  63.0671528  69.8374917  15.2278346  62.6162718
  72.7603615  12.0050977  67.1649194  71.9936011  11.4509464  67.3105876
  73.1714320  12.0772846  68.0263346  64.7645376  18.2935773  81.2554375
  65.6276837  17.9372578  81.4657700  64.1910787  17.9549668  81.9429780
  84.1635021  37.6489083  69.1369984  84.9498111  37.2308507  68.7860401
  84.4273726  38.5535176  69.3051633  89.5643448  37.5864317  70.0402963
  90.2968620  37.0163533  70.2740792  88.8082804  37.1985917  70.4809468
  87.0868869  31.2985891  74.4997571  86.7552194  32.1681302  74.2758786
  86.4914482  30.9822175  75.1791602  80.8225055  35.0381458  62.2327654
  80.9899458  35.9061694  62.5998125  80.6322224  35.2008739  61.3088943
  86.9797532  36.0180977  71.5790921  86.0714409  35.9496385  71.2849682
  86.9285128  36.4952922  72.4072747  80.8014276  37.4939115  63.2174321
  80.6813901  37.9396166  64.0559801  80.1066864  37.8424433  62.6587859
  88.8459179  34.2197415  73.3568795  88.2033559  34.5129948  72.7108590
  88.3414107  34.1050336  74.1621992  86.4999342  37.9660588  64.0454655
  87.4117198  38.1987975  63.8702352  85.9908989  38.5497633  63.4829733
  88.9858156  43.8840845  68.7912600  88.3009195  44.2639746  68.2409633
  89.0702006  44.4936171  69.5244548  84.2870625  34.9862191  76.7130678
  84.0431557  35.7404252  76.1764954  84.5630556  35.3647539  77.5477925
  86.2409088  41.5300804  75.3907943  86.4525983  42.1732564  74.7142325
  86.1938836  40.6963120  74.9229874  83.8435317  34.1418624  72.2944516
  82.9819796  34.4399878  72.5861253  83.8697752  34.3589023  71.3625548
  73.3391106  37.0667520  70.8125020  72.5490160  37.3225049  70.3365131
  73.8302354  37.8815858  70.9177060  87.3554916  44.4072759  73.5630301
  88.1772360  44.0052946  73.2812982  87.3517319  44.3040993  74.5146417
  95.4460909  40.7511508  69.9115272  94.6924617  40.1818906  69.7559277
  95.5808450  40.7174172  70.8585907  80.2394838  33.1174369  79.8404603
  80.9804551  33.7181522  79.7609066  80.4712761  32.3752007  79.2822646
  84.5609251  46.5251276  77.7451735  84.5427727  47.3460157  77.2532004
  85.4829172  46.4005352  77.9701876  84.1852001  29.1455472  74.1168885
  83.8416270  30.0357114  74.0407996  84.5530963  28.9557130  73.2538470
  84.1502283  39.1364083  62.6241320  83.6348907  39.9068688  62.8629708
  83.8779592  38.4629219  63.2474382  81.7349394  33.9813784  67.6826559
  80.8790991  33.5920634  67.5032197  82.1476346  34.0605745  66.8226344
  83.2648541  31.5160127  72.0818118  82.7613337  31.4790262  71.2685924
  83.5579148  32.4252870  72.1414775  79.5091427  31.5998857  71.0884300
  80.3744424  31.4041665  70.7290190  79.5768936  31.3709209  72.0153657
  89.1236557  41.8896438  64.5594494  88.3466000  41.5507597  64.1149656
  89.8028038  41.8949061  63.8849459  83.9388587  37.0091175  64.4501101
  83.6338722  37.3237324  65.3011245  84.8919029  37.0872595  64.4928434
  87.3627864  41.3630419  71.2161102  86.7051539  42.0529680  71.3041230
  88.1668264  41.7526851  71.5595088  77.1153746  33.8301065  68.4600667
  77.6897498  33.6076246  67.7273860  77.7024728  33.8989759  69.2129268
  86.1733323  39.7174792  69.2665043  86.6865205  40.3504783  69.7686753
  86.8234547  39.1175987  68.9008403  77.4423333  35.8605526  62.4796552
  76.6060645  36.1980212  62.8005827  77.3028103  35.7254506  61.5423689
  79.4176414  30.7042314  67.1875736  78.7640826  30.3891331  66.5632351
  79.3756888  30.0818054  67.9135559  82.6514154  37.1924247  71.5123384
  81.7336715  37.4139194  71.3545072  83.0674298  37.2670558  70.6535091
  83.4349202  38.5915663  66.6426064  84.1821021  39.1037060  66.3333186
  83.7040791  38.2699716  67.5030458  86.9395119  44.6980793  67.3944186
  86.4857446  43.8571703  67.4509376  86.3089086  45.3342191  67.7318966
  85.8828039  35.6272779  68.6244853  85.1450796  35.1150165  68.9555096
  86.1354812  35.1873161  67.8128130  85.9839666  28.4049031  69.2186623
  86.2898543  27.5446394  68.9312538  86.7092271  28.9966651  69.0185617
  72.2764022  38.8079718  67.6068221  72.0788422  38.2149078  66.8819287
  71.7210686  38.5031928  68.3244159  89.5225055  40.9040144  67.0217416
  89.3842953  41.0941740  66.0938605  89.1661273  41.6659527  67.4785467
  77.6867181  34.8898239  73.1014428  78.3266560  34.7486999  72.4037391
  76.8544711  34.6032753  72.7253030  89.5494434  42.9716671  72.0328687
  89.9830941  42.8791960  72.8811741  90.2626015  42.9474172  71.3948703
  74.6895797  34.8598564  67.8787414  74.9502614  35.7743898  67.7696575
  75.5112969  34.3923007  68.0284027  90.4109984  43.0140372  74.5661573
  90.6045874  43.9186182  74.8120847  90.3110602  42.5547791  75.4000158
  82.0646294  32.8998262  77.0651900  81.4174210  33.5988212  76.9716376
  82.8347310  33.3334406  77.4328148  85.4725092  43.1647115  80.1402453
  85.3210599  42.9357666  79.2232537  85.4629772  44.1217716  80.1533798
  85.5263167  41.4867329  60.5573155  84.9092338  40.7614157  60.4606207
  85.0579656  42.2476689  60.2140229  87.1817299  46.1966237  78.2178935
  87.1229845  45.5125457  77.5509518  87.5836817  46.9385227  77.7659561
  77.3161713  35.7052753  59.6794459  76.4391180  35.5841554  59.3156706
  77.7919466  34.9138831  59.4273348  87.1834706  44.1605821  76.4492915
  86.2961485  43.8231743  76.5719314  87.7533257  43.4288852  76.6861680
  83.8122289  33.8673673  69.5691185  84.3090989  33.1143635  69.2492255
  83.0409271  33.9037990  69.0034394  91.6652047  39.5714039  71.2109476
  91.6541923  40.4538754  70.8403409  90.7969426  39.2185589  71.0164013
  80.3957258  36.0091056  69.2962869  80.0255046  35.4562096  69.9843775
  80.8916351  35.4049189  68.7437869  88.2824621  38.4662679  67.6779642
  88.7485074  39.2990671  67.6039945  88.7332122  38.0007661  68.3824901
  86.2541284  30.8343266  71.7170544  85.3404364  31.0647493  71.8852751
  86.6834386  30.9181711  72.5684576  86.0247743  39.0233158  74.2170438
  85.3719193  39.2709066  73.5622890  86.4028123  38.2097297  73.8832915
  82.0735316  39.7652969  80.7036475  81.3975953  39.6647099  81.3738850
  82.8962950  39.6092183  81.1672472  75.7922592  33.4195047  75.5415975
  75.8563918  34.2809878  75.1293373  75.7289712  32.8069048  74.8088334
  72.0440407  37.2994608  65.1207365  72.3393848  36.3905287  65.0674418
  71.1428443  37.2782348  64.7988367  75.5734654  35.3750605  71.1034913
  74.8521240  35.9886573  70.9642386  76.3627910  35.9108370  71.0251559
  78.3760968  32.7105031  77.3775565  78.8995369  32.9567328  78.1401874
  78.1573301  33.5425066  76.9578702  73.7728249  34.9808706  65.2446690
  73.4440955  34.1006085  65.0621796  74.1267619  34.9256375  66.1323079
  76.8870072  35.2681676  65.6122167  77.2266144  35.7967597  64.8900776
  77.3342192  35.6062082  66.3880734  86.6241949  47.4392167  70.8406548
  87.5488497  47.2335029  70.7030999  86.4557253  47.1908569  71.7495889
  79.5813513  33.6518727  75.0625235  79.2410333  32.8526540  75.4645915
  78.8752519  33.9520437  74.4902069  80.2329985  30.7368039  73.5152558
  81.0556054  30.2628517  73.3931449  80.4768048  31.5158523  74.0151245
  78.8738219  33.7656297  63.8115460  79.5946582  34.1437550  63.3079177
  78.2503523  34.4845174  63.9150438  83.0169342  34.4701446  64.7473792
  83.2332956  35.3526084  64.4462621  82.5363409  34.0787660  64.0179434
  77.7568563  37.4287160  71.3244537  77.6113144  37.7427463  72.2168819
  77.2793767  38.0472060  70.7715436  79.6164946  34.4189708  71.3725427
  79.6026515  33.5230801  71.0357725  80.3337374  34.4260371  72.0063713
  81.4691077  34.8527048  73.4178554  81.2108855  35.7744118  73.4162884
  80.9376117  34.4557482  74.1079018  79.0201842  33.3004088  66.6412997
  79.1417753  32.3720734  66.8403884  78.7303884  33.3142774  65.7291312
  81.8893032  30.9858998  69.7779717  81.9114729  31.0498331  68.8231696
  82.3061092  30.1463507  69.9720223  92.2676657  40.7214258  67.8158939
  92.7107803  39.9721583  67.4178062  91.3903167  40.7124394  67.4332671
  89.3003861  44.7244305  64.8252868  89.8255185  45.0631578  64.1002189
  89.2126214  43.7891320  64.6416003  88.9897767  45.3577209  80.1304066
  88.1993311  45.3401347  79.5908566  88.7531122  45.8965502  80.8853103
  89.1095642  42.2069675  77.4436795  89.1593647  42.0419682  78.3852318
  89.0009566  41.3396934  77.0534676  86.3999405  38.1900603  78.7596102
  87.3009268  38.0507068  78.4680100  86.4747379  38.3555058  79.6994279
  90.6113839  44.6266616  77.6878817  90.3198648  44.9896597  78.5242277
  89.9985970  43.9133625  77.5092149  91.8109522  42.1919496  70.2081387
  92.6456413  42.6309300  70.3718947  91.9468650  41.7158149  69.3889633
  88.8601027  39.7499231  76.1558875  89.3355149  39.9426877  75.3477726
  87.9366593  39.8058417  75.9102258  83.4381244  31.7847075  75.1214708
  83.9563188  32.5208102  74.7961197  83.0836377  32.0911068  75.9561468
  75.0180182  36.6451756  63.2376114  74.3249427  36.7196111  62.5816150
  74.7731933  35.8812099  63.7597631  83.6893838  28.2047357  70.6415605
  83.9695592  27.5370546  71.2676032  84.4744445  28.3976453  70.1290269
  87.5602696  36.6264991  74.3887180  88.5120119  36.7263089  74.4099404
  87.3906147  35.8343260  74.8985264  85.5817076  33.7120574  74.5746581
  84.9867008  33.9925587  73.8793070  85.2966773  34.2014475  75.3463322
  87.3412583  46.9809372  60.2953161  87.2626215  46.6469235  61.1888919
  88.1622250  47.4731139  60.2944634  90.0390774  39.8471111  73.5029480
  90.0067094  38.9087112  73.6889164  90.6491398  39.9255148  72.7695305
  90.1885263  36.6382154  73.5487763  89.6724311  35.8540611  73.3617692
  91.0725211  36.3100871  73.7134282  87.8495990  30.3823170  69.5083576
  87.6520811  30.0738258  70.3926908  88.4595695  31.1084809  69.6381505
  95.8567324  40.9087118  72.6435517  96.5870713  40.6472406  73.2043220
  95.2474270  40.1715840  72.6837585  93.9382621  39.0494980  73.2409968
  93.2115785  38.9150945  72.6326459  93.5229908  39.3571809  74.0466686
  80.0617022  36.6417140  59.4811569  79.1548478  36.3450253  59.5574283
  80.3393003  36.3446958  58.6145855  81.6779088  31.1854030  65.6355810
  80.8679816  30.8401115  66.0111056  82.3663505  30.8761574  66.2243422
  83.6069636  30.2632077  67.2580107  84.1600675  30.6827530  67.9170130
  83.8439723  29.3367825  67.3003063  78.8315807  33.5004075  59.6223548
  79.6934971  33.8258974  59.8819366  79.0166151  32.7135571  59.1096614
  86.9848443  32.3732602  66.7658771  86.4047112  33.0317406  66.3836824
  86.7184376  31.5509946  66.3546189  85.4352010  31.7737660  68.9680092
  85.9351788  31.8854194  68.1594410  86.0787618  31.4698712  69.6080900
  85.7673321  34.5332692  65.8215120  84.8799176  34.8182343  65.6035314
  86.1827310  34.3726456  64.9742396  89.1187858  34.5579213  69.5369459
  89.8948248  35.0475666  69.8094076  88.3935992  34.9837267  69.9941328
  91.5560416  35.2706832  70.5943399  92.1504907  35.0302568  69.8836708
  91.6287000  34.5513963  71.2216936  84.9116535  44.2977367  59.9163139
  85.6152385  44.5027369  60.5320795  84.1879184  44.8654129  60.1812223
  85.7414345  40.0487228  66.0365410  85.6849547  40.5055780  65.1973042
  86.2942688  39.2877913  65.8588252  89.5519151  35.8376960  66.8615529
  89.2956085  35.4373596  67.6923737  88.9272019  36.5520754  66.7365668
  93.8631489  38.5773033  69.3686821  93.3031047  38.6466223  70.1418383
  93.2574992  38.4014018  68.6486317  86.8203232  44.7359896  61.9661600
  87.6548836  44.3041095  61.7839074  86.6587575  44.5641910  62.8938494
  86.4749124  41.2392009  63.3317939  86.4197928  41.0736281  62.3906383
  85.8495180  41.9468042  63.4880129  79.7845250  30.7400118  62.9103257
  79.7723920  31.6841958  63.0671528  80.6768672  30.5570264  62.6162718
  83.5997369  27.3342895  67.1649194  82.8329765  26.7801382  67.3105876
  84.0108074  27.4064764  68.0263346  92.7396997  56.3591827  77.9564506
  92.7285637  55.9644625  77.0845010  92.9017636  55.6257900  78.5498278
  89.4604258  59.1428939  76.9043690  89.1694124  60.0474570  76.7890357
  90.0961242  59.1845466  77.6187760  90.3860465  56.5205787  73.4945050
  90.9824037  56.2961810  72.7802013  90.4435436  55.7790533  74.0970498
 100.4037203  52.9156234  70.0402963 101.1362375  52.3455451  70.2740792
  99.6476559  52.5277835  70.4809468  97.9262623  46.6277808  74.4997571
  97.5945948  47.4973219  74.2758786  97.3308237  46.3114092  75.1791602
  94.4194143  58.8290354  73.8993484  94.1194866  59.7315393  73.7909291
  94.0745202  58.5622538  74.7514637  97.8191287  51.3472895  71.5790921
  96.9108164  51.2788303  71.2849682  97.7678882  51.8244839  72.4072747
  91.8932152  52.7662540  79.5225819  91.1165486  53.3256460  79.5128683
  92.5322715  53.2519323  80.0440689  99.6852933  49.5489333  73.3568795
  99.0427313  49.8421866  72.7108590  99.1807862  49.4342253  74.1621992
  95.6233864  57.7177134  77.6815947  96.0317220  57.2759544  76.9370580
  94.9011126  57.1429761  77.9350140  91.9764934  52.6549741  75.0549504
  92.8226130  53.0789154  75.1984153  91.9163572  51.9983365  75.7488067
  95.1264380  50.3154109  76.7130678  94.8825312  51.0696170  76.1764954
  95.4024310  50.6939457  77.5477925  97.0802842  56.8592721  75.3907943
  97.2919738  57.5024481  74.7142325  97.0332591  56.0255038  74.9229874
  94.6829071  49.4710542  72.2944516  93.8213550  49.7691796  72.5861253
  94.7091506  49.6880941  71.3625548  98.1948670  59.7364677  73.5630301
  99.0166114  59.3344864  73.2812982  98.1911073  59.6332911  74.5146417
  91.9605274  59.2848720  75.7191011  92.0249706  59.7469127  76.5549183
  91.2516198  58.6546085  75.8473321 106.2854663  56.0803425  69.9115272
 105.5318372  55.5110823  69.7559277 106.4202205  56.0466090  70.8585907
  88.1620631  47.0308408  82.2484347  87.7687577  46.4774606  82.9231991
  88.9786771  47.3418986  82.6390864  91.0788592  48.4466287  79.8404603
  91.8198306  49.0473440  79.7609066  91.3106515  47.7043924  79.2822646
  93.3021768  61.5740394  79.7170334  92.8585622  60.7876773  79.3991238
  93.9638981  61.7619545  79.0514224  88.0608889  63.1036196  74.2431012
  88.6116314  62.9753259  73.4708006  87.2220365  63.4031085  73.8925905
  95.4003006  61.8543194  77.7451735  95.3821481  62.6752075  77.2532004
  96.3222926  61.7297269  77.9701876  91.8576060  59.3687324  78.5875243
  92.3904397  58.6075612  78.3574551  91.3290141  59.0760975  79.3299398
  95.0245755  44.4747390  74.1168885  94.6810024  45.3649031  74.0407996
  95.3924718  44.2849047  73.2538470  94.1042295  46.8452045  72.0818118
  93.6007091  46.8082180  71.2685924  94.3972902  47.7544787  72.1414775
  99.9630312  57.2188355  64.5594494  99.1859755  56.8799515  64.1149656
 100.6421793  57.2240978  63.8849459  98.2021619  56.6922337  71.2161102
  97.5445293  57.3821598  71.3041230  99.0062018  57.0818769  71.5595088
  97.7788874  60.0272711  67.3944186  97.3251201  59.1863621  67.4509376
  97.1482841  60.6634109  67.7318966  96.8233421  43.7340949  69.2186623
  97.1292298  42.8738312  68.9312538  97.5486026  44.3258569  69.0185617
  94.6321072  53.1113626  76.3168087  94.9870460  53.3385099  77.1762552
  95.2793203  53.4432003  75.6945342 100.3618809  56.2332062  67.0217416
 100.2236708  56.4233658  66.0938605 100.0055028  56.9951445  67.4785467
 100.3888189  58.3008589  72.0328687 100.8224695  58.2083878  72.8811741
 101.1019769  58.2766089  71.3948703 101.2503738  58.3432290  74.5661573
 101.4439628  59.2478100  74.8120847 101.1504356  57.8839709  75.4000158
  92.9040049  48.2290180  77.0651900  92.2567964  48.9280130  76.9716376
  93.6741064  48.6626324  77.4328148  96.3118847  58.4939032  80.1402453
  96.1604353  58.2649584  79.2232537  96.3023526  59.4509634  80.1533798
  93.0804183  56.0670945  75.1248720  94.0096243  56.2182105  74.9517687
  92.6595213  56.1554966  74.2697366  91.8792515  60.0921609  72.8947257
  91.7403601  59.7240394  73.7673195  91.0907111  60.6069249  72.7231215
  90.0324275  54.5890802  75.2972356  90.7423893  53.9483994  75.2558974
  89.9893583  54.8403696  76.2198537  98.0211054  61.5258155  78.2178935
  97.9623600  60.8417375  77.5509518  98.4230572  62.2677145  77.7659561
  88.7453209  51.5756019  77.1167995  88.2090566  51.1246758  77.7689592
  88.1569917  51.7101928  76.3738460  98.0228461  59.4897739  76.4492915
  97.1355240  59.1523661  76.5719314  98.5927012  58.7580770  76.6861680
  91.5529614  64.1499191  73.4154158  91.4799786  64.9554163  73.9273462
  91.1107007  64.3491157  72.5902179 102.5045801  54.9005956  71.2109476
 102.4935678  55.7830672  70.8403409 101.6363181  54.5477507  71.0164013
  94.0128298  64.0486025  75.5712317  94.7256270  64.6833490  75.4988218
  93.5218326  64.1449891  74.7552318  99.1218376  53.7954597  67.6779642
  99.5878828  54.6282589  67.6039945  99.5725876  53.3299579  68.3824901
  89.0640211  61.7980469  76.3917887  89.7649671  62.4316952  76.5447282
  88.5935326  62.1395200  75.6313527  97.0935039  46.1635184  71.7170544
  96.1798119  46.3939411  71.8852751  97.5228140  46.2473628  72.5684576
  96.8641497  54.3525076  74.2170438  96.2112947  54.6000984  73.5622890
  97.2421877  53.5389214  73.8832915  92.9129070  55.0944887  80.7036475
  92.2369707  54.9939016  81.3738850  93.7356704  54.9384101  81.1672472
  86.6316346  48.7486964  75.5415975  86.6957673  49.6101795  75.1293373
  86.5683467  48.1360966  74.8088334  96.5062727  61.2273072  80.7942745
  97.0502631  61.8403030  80.2997700  95.9249572  61.7852651  81.3109758
  96.8555149  62.1502810  73.5537323  95.9085484  62.0308161  73.4815650
  97.2037922  61.2625308  73.6363584  89.2154722  48.0396949  77.3775565
  89.7389124  48.2859246  78.1401874  88.9967055  48.8716984  76.9578702
  97.4635704  62.7684085  70.8406548  98.3882251  62.5626947  70.7030999
  97.2951007  62.5200486  71.7495889  90.4207267  48.9810644  75.0625235
  90.0804088  48.1818457  75.4645915  89.7146273  49.2812355  74.4902069
  91.0723739  46.0659957  73.5152558  91.8949808  45.5920435  73.3931449
  91.3161803  46.8450440  74.0151245  92.3084831  50.1818966  73.4178554
  92.0502609  51.1036036  73.4162884  91.7769872  49.7849400  74.1079018
  92.7286787  46.3150916  69.7779717  92.7508484  46.3790249  68.8231696
  93.1454846  45.4755425  69.9720223 103.1070411  56.0506176  67.8158939
 103.5501557  55.3013501  67.4178062 102.2296922  56.0416312  67.4332671
 100.1397616  60.0536223  64.8252868 100.6648940  60.3923495  64.1002189
 100.0519968  59.1183238  64.6416003  91.8017664  63.9670296  76.9542745
  92.1104791  63.7219443  77.8265445  92.5993146  64.1716935  76.4661615
  89.3436676  50.1428003  80.8502929  89.3924832  51.0190126  80.4680699
  89.8859190  49.6005396  80.2774573  99.8291522  60.6869126  80.1304066
  99.0387066  60.6693265  79.5908566  99.5924876  61.2257420  80.8853103
  99.9489397  57.5361593  77.4436795  99.9987402  57.3711600  78.3852318
  99.8403320  56.6688852  77.0534676  97.2393159  53.5192521  78.7596102
  98.1403022  53.3798985  78.4680100  97.3141134  53.6846975  79.6994279
  91.5735965  50.8959375  77.6049288  90.7039274  51.1892941  77.3331877
  91.8095445  51.4799820  78.3256552 101.4507594  59.9558534  77.6878817
 101.1592402  60.3188515  78.5242277 100.8379725  59.2425542  77.5092149
 102.6503276  57.5211414  70.2081387 103.4850167  57.9601218  70.3718947
 102.7862405  57.0450067  69.3889633  99.6994782  55.0791149  76.1558875
 100.1748904  55.2718795  75.3477726  98.7760347  55.1350335  75.9102258
  94.2774998  47.1138992  75.1214708  94.7956942  47.8500019  74.7961197
  93.9230131  47.4202986  75.9561468  94.5287593  43.5339275  70.6415605
  94.8089346  42.8662464  71.2676032  95.3138200  43.7268370  70.1290269
  98.3996451  51.9556909  74.3887180  99.3513874  52.0555006  74.4099404
  98.2299901  51.1635177  74.8985264  96.4210830  49.0412492  74.5746581
  95.8260763  49.3217505  73.8793070  96.1360527  49.5306393  75.3463322
 100.8784529  55.1763029  73.5029480 100.8460849  54.2379029  73.6889164
 101.4885152  55.2547065  72.7695305 101.0279017  51.9674072  73.5487763
 100.5118066  51.1832529  73.3617692 101.9118966  51.6392789  73.7134282
  98.6889744  45.7115088  69.5083576  98.4914565  45.4030176  70.3926908
  99.2989450  46.4376726  69.6381505 106.6961079  56.2379035  72.6435517
 107.4264467  55.9764323  73.2043220 106.0868024  55.5007757  72.6837585
 104.7776376  54.3786898  73.2409968 104.0509539  54.2442863  72.6326459
 104.3623663  54.6863727  74.0466686  90.4696490  51.5811068  83.0382871
  90.3693217  52.5305425  82.9694962  90.2518032  51.2529307  82.1658941
  89.6709561  48.8295993  59.6223548  90.5328725  49.1550891  59.8819366
  89.8559906  48.0427489  59.1096614  99.9581612  49.8871131  69.5369459
 100.7342002  50.3767583  69.8094076  99.2329746  50.3129185  69.9941328
 102.3954171  50.5998750  70.5943399 102.9898661  50.3594486  69.8836708
 102.4680754  49.8805881  71.2216936 100.3912906  51.1668878  66.8615529
 100.1349840  50.7665513  67.6923737  99.7665774  51.8812672  66.7365668
 104.7025243  53.9064951  69.3686821 104.1424801  53.9758140  70.1418383
 104.0968747  53.7305936  68.6486317  90.6239004  46.0692036  62.9103257
  90.6117674  47.0133876  63.0671528  91.5162426  45.8862182  62.6162718
  94.4391124  42.6634813  67.1649194  93.6723520  42.1093299  67.3105876
  94.8501829  42.7356682  68.0263346 106.2881262  70.5821465  72.0616776
 106.9259672  70.4628212  71.3580116 106.1702105  71.5302309  72.1204728
 105.8422530  68.3072919  69.1369984 106.6285620  67.8892342  68.7860401
 106.1061235  69.2119011  69.3051633 111.2430957  68.2448152  70.0402963
 111.9756129  67.6747369  70.2740792 110.4870313  67.8569752  70.4809468
 108.7656378  61.9569726  74.4997571 108.4339703  62.8265137  74.2758786
 108.1701991  61.6406010  75.1791602 105.2587897  74.1582272  73.8993484
 104.9588620  75.0607311  73.7909291 104.9138957  73.8914455  74.7514637
 108.6585041  66.6764812  71.5790921 107.7501918  66.6080221  71.2849682
 108.6072637  67.1536757  72.4072747 102.7325907  68.0954458  79.5225819
 101.9559241  68.6548378  79.5128683 103.3716470  68.5811241  80.0440689
 110.5246688  64.8781251  73.3568795 109.8821068  65.1713784  72.7108590
 110.0201616  64.7634171  74.1621992 106.4627619  73.0469052  77.6815947
 106.8710975  72.6051462  76.9370580 105.7404880  72.4721679  77.9350140
 105.9658134  65.6446027  76.7130678 105.7219066  66.3988087  76.1764954
 106.2418065  66.0231374  77.5477925 107.9196597  72.1884639  75.3907943
 108.1313492  72.8316399  74.7142325 107.8726345  71.3546956  74.9229874
 105.5222826  64.8002460  72.2944516 104.6607305  65.0983713  72.5861253
 105.5485261  65.0172859  71.3625548  99.7233643  68.0579559  79.8859096
  99.0932304  68.7395840  80.1194493  99.6169731  67.9462641  78.9412234
 109.0342425  75.0656595  73.5630301 109.8559869  74.6636782  73.2812982
 109.0304828  74.9624829  74.5146417 117.1248418  71.4095343  69.9115272
 116.3712126  70.8402741  69.7559277 117.2595959  71.3758008  70.8585907
  99.0014386  62.3600325  82.2484347  98.6081331  61.8066524  82.9231991
  99.8180526  62.6710904  82.6390864 101.9182347  63.7758204  79.8404603
 102.6592060  64.3765357  79.7609066 102.1500269  63.0335842  79.2822646
 105.8639510  59.8039307  74.1168885 105.5203779  60.6940949  74.0407996
 106.2318472  59.6140965  73.2538470 103.4136903  64.6397619  67.6826559
 102.5578500  64.2504470  67.5032197 103.8263855  64.7189580  66.8226344
 104.9436050  62.1743962  72.0818118 104.4400846  62.1374098  71.2685924
 105.2366657  63.0836705  72.1414775 101.1878936  62.2582692  71.0884300
 102.0531933  62.0625501  70.7290190 101.2556445  62.0293044  72.0153657
 101.0963923  61.3626149  67.1875736 100.4428335  61.0475166  66.5632351
 101.0544397  60.7401889  67.9135559 104.3301663  67.8508082  71.5123384
 103.4124224  68.0723029  71.3545072 104.7461807  67.9254393  70.6535091
 107.5615548  66.2856614  68.6244853 106.8238305  65.7734001  68.9555096
 107.8142321  65.8456996  67.8128130 107.6627175  59.0632866  69.2186623
 107.9686052  58.2030230  68.9312538 108.3879780  59.6550487  69.0185617
  99.3654690  65.5482075  73.1014428 100.0054069  65.4070834  72.4037391
  98.5332220  65.2616588  72.7253030 112.0897493  73.6724207  74.5661573
 112.2833383  74.5770018  74.8120847 111.9898111  73.2131626  75.4000158
 103.7433803  63.5582098  77.0651900 103.0961718  64.2572047  76.9716376
 104.5134819  63.9918242  77.4328148 107.1512601  73.8230950  80.1402453
 106.9998108  73.5941502  79.2232537 107.1417281  74.7801551  80.1533798
 108.8622215  74.8189656  76.4492915 107.9748994  74.4815578  76.5719314
 109.4320766  74.0872688  76.6861680 105.4909798  64.5257508  69.5691185
 105.9878498  63.7727471  69.2492255 104.7196780  64.5621825  69.0034394
 113.3439556  70.2297874  71.2109476 113.3329432  71.1122589  70.8403409
 112.4756935  69.8769425  71.0164013 107.9328793  61.4927102  71.7170544
 107.0191873  61.7231329  71.8852751 108.3621895  61.5765546  72.5684576
 107.7035252  69.6816994  74.2170438 107.0506702  69.9292901  73.5622890
 108.0815632  68.8681132  73.8832915 103.7522825  70.4236805  80.7036475
 103.0763462  70.3230934  81.3738850 104.5750459  70.2676019  81.1672472
  97.4710101  64.0778882  75.5415975  97.5351427  64.9393713  75.1293373
  97.4077221  63.4652884  74.8088334  96.9462373  66.1502015  79.1889010
  97.5734412  65.7679092  79.8026534  96.0890292  65.9316217  79.5544702
 107.3456482  76.5564990  80.7942745 107.8896386  77.1694948  80.2997700
 106.7643327  77.1144568  81.3109758 100.0548477  63.3688867  77.3775565
 100.5782878  63.6151163  78.1401874  99.8360810  64.2008902  76.9578702
 101.2601022  64.3102562  75.0625235 100.9197842  63.5110375  75.4645915
 100.5540028  64.6104273  74.4902069 101.9117494  61.3951874  73.5152558
 102.7343563  60.9212353  73.3931449 102.1555557  62.1742358  74.0151245
 101.2952455  65.0773543  71.3725427 101.2814024  64.1814636  71.0357725
 102.0124883  65.0844207  72.0063713 103.1478586  65.5110883  73.4178554
 102.8896364  66.4327954  73.4162884 102.6163626  65.1141318  74.1079018
 103.5680541  61.6442834  69.7779717 103.5902238  61.7082167  68.8231696
 103.9848600  60.8047342  69.9720223 100.1830431  65.4719921  80.8502929
 100.2318586  66.3482043  80.4680699 100.7252945  64.9297314  80.2774573
 110.6685276  76.0161044  80.1304066 109.8780820  75.9985183  79.5908566
 110.4318631  76.5549338  80.8853103 110.7883151  72.8653510  77.4436795
 110.8381156  72.7003518  78.3852318 110.6797075  71.9980769  77.0534676
 108.0786914  68.8484438  78.7596102 108.9796776  68.7090903  78.4680100
 108.1534888  69.0138893  79.6994279 102.4129719  66.2251293  77.6049288
 101.5433028  66.5184859  77.3331877 102.6489199  66.8091738  78.3256552
 112.2901348  75.2850452  77.6878817 111.9986156  75.6480432  78.5242277
 111.6773479  74.5717460  77.5092149 110.5388536  70.4083066  76.1558875
 111.0142658  70.6010713  75.3477726 109.6154102  70.4642252  75.9102258
 105.1168753  62.4430910  75.1214708 105.6350697  63.1791937  74.7961197
 104.7623886  62.7494903  75.9561468 105.3681347  58.8631192  70.6415605
 105.6483101  58.1954382  71.2676032 106.1531954  59.0560288  70.1290269
 109.2390205  67.2848826  74.3887180 110.1907628  67.3846924  74.4099404
 109.0693656  66.4927095  74.8985264 107.2604585  64.3704410  74.5746581
 106.6654517  64.6509422  73.8793070 106.9754282  64.8598311  75.3463322
 111.7178283  70.5054946  73.5029480 111.6854603  69.5670947  73.6889164
 112.3278907  70.5838983  72.7695305 111.8672772  67.2965990  73.5487763
 111.3511820  66.5124446  73.3617692 112.7512720  66.9684706  73.7134282
 109.5283499  61.0407005  69.5083576 109.3308320  60.7322093  70.3926908
 110.1383204  61.7668644  69.6381505 117.5354833  71.5670953  72.6435517
 118.2658222  71.3056241  73.2043220 116.9261779  70.8299675  72.6837585
 115.6170130  69.7078816  73.2409968 114.8903294  69.5734781  72.6326459
 115.2017417  70.0155644  74.0466686 103.4400307  73.4268745  81.0057341
 104.3603316  73.6047344  81.1997387 103.4049890  72.4824791  80.8537040
 103.3566597  61.8437865  65.6355810 102.5467325  61.4984950  66.0111056
 104.0451014  61.5345409  66.2243422 105.2857145  60.9215912  67.2580107
 105.8388184  61.3411365  67.9170130 105.5227232  59.9951660  67.3003063
 101.3090244  66.9102986  83.0382871 101.2086971  67.8597343  82.9694962
 101.0911787  66.5821225  82.1658941 108.6635952  63.0316437  66.7658771
 108.0834621  63.6901241  66.3836824 108.3971885  62.2093782  66.3546189
 107.1139519  62.4321495  68.9680092 107.6139297  62.5438029  68.1594410
 107.7575127  62.1282548  69.6080900 101.1721515  70.3400125  81.8547933
 100.6888596  71.1400485  82.0611822 101.2582454  70.3508069  80.9015377
 107.4460830  65.1916528  65.8215120 106.5586685  65.4766178  65.6035314
 107.8614819  65.0310291  64.9742396 110.7975366  65.2163049  69.5369459
 111.5735757  65.7059501  69.8094076 110.0723501  65.6421103  69.9941328
 113.2347925  65.9290668  70.5943399 113.8292416  65.6886404  69.8836708
 113.3074509  65.2097798  71.2216936 111.2306660  66.4960795  66.8615529
 110.9743594  66.0957431  67.6923737 110.6059528  67.2104589  66.7365668
 115.5418998  69.2356869  69.3686821 114.9818556  69.3050058  70.1418383
 114.9362501  69.0597853  68.6486317 105.4682541  74.2024757  82.6571502
 106.3373700  74.3765409  82.2958137 104.9889292  75.0219173  82.5347231
 101.4632759  61.3983954  62.9103257 101.4511429  62.3425794  63.0671528
 102.3556181  61.2154099  62.6162718 105.2784878  57.9926730  67.1649194
 104.5117274  57.4385217  67.3105876 105.6895583  58.0648599  68.0263346
  97.2826639  64.2811526  81.2554375  98.1458101  63.9248331  81.4657700
  96.7092050  63.9425421  81.9429780 114.4184506  87.0175662  77.9564506
 114.4073146  86.6228461  77.0845010 114.5805145  86.2841735  78.5498278
 111.0802432  96.2518510  66.8664452 111.0026461  97.2026335  66.9452932
 110.4764075  95.9064383  67.5239378 111.8266034  86.2331829  79.0843786
 112.5680718  86.7716873  78.8078609 111.1203019  86.8598118  79.2415338
 117.3021373  88.3760969  77.6815947 117.7104729  87.9343380  76.9370580
 116.5798635  87.8013597  77.9350140 109.8408140  77.6892243  82.2484347
 109.4475086  77.1358441  82.9231991 110.6574280  78.0002821  82.6390864
 108.6165083  92.2441857  68.2420670 108.7931711  93.1659822  68.0541654
 109.4121916  91.9300277  68.6715050 112.7576101  79.1050122  79.8404603
 113.4985815  79.7057275  79.7609066 112.9894024  78.3627760  79.2822646
 117.9009322  92.5233043  68.3294004 118.1932296  93.0838100  67.6106370
 118.4107943  92.8161604  69.0847163 112.8642947  93.3013394  69.4187457
 112.8219126  93.5274240  68.4895989 113.7805646  93.0676768  69.5673259
 122.9291247  89.0016125  74.5661573 123.1227137  89.9061935  74.8120847
 122.8291865  88.5423544  75.4000158 114.5827558  78.8874016  77.0651900
 113.9355473  79.5863965  76.9716376 115.3528573  79.3210159  77.4328148
 117.9906356  89.1522868  80.1402453 117.8391862  88.9233419  79.2232537
 117.9811035  90.1093469  80.1533798 114.1528176  95.8514541  64.2372794
 114.3279932  95.3802584  65.0518416 113.4660964  96.4780308  64.4654054
 119.7015970  90.1481574  76.4492915 118.8142749  89.8107496  76.5719314
 120.2714521  89.4164605  76.6861680 113.0206903  94.0454797  66.9256979
 112.2374425  94.5876477  67.0195204 113.7199648  94.5628776  67.3251221
 115.5036180  95.0468605  68.3198608 115.6858575  94.2290261  68.7826360
 116.3269166  95.2636297  67.8823498 114.5916579  85.7528723  80.7036475
 113.9157216  85.6522852  81.3738850 115.4144213  85.5967936  81.1672472
 109.1934094  95.0251906  68.3411432 108.5244469  95.5098034  67.8575472
 109.0546963  95.2721127  69.2554811 113.3339362  97.0595650  74.9394091
 113.8857670  97.2227271  75.7043176 113.6745556  97.6500088  74.2674116
 118.1850236  91.8856907  80.7942745 118.7290140  92.4986866  80.2997700
 117.6037081  92.4436486  81.3109758 119.1423213  93.4267921  70.8406548
 120.0669760  93.2210782  70.7030999 118.9738516  93.1784322  71.7495889
 113.5025785  96.7792041  69.1848122 113.0630776  96.2868420  69.8780978
 114.2533902  96.2365009  68.9440197 121.5079031  91.3452962  80.1304066
 120.7174574  91.3277100  79.5908566 121.2712385  91.8841255  80.8853103
 121.6276906  88.1945428  77.4436795 121.6774911  88.0295435  78.3852318
 121.5190829  87.3272687  77.0534676 118.9180668  84.1776356  78.7596102
 119.8190531  84.0382821  78.4680100 118.9928643  84.3430811  79.6994279
 123.1295103  90.6142369  77.6878817 122.8379911  90.9772350  78.5242277
 122.5167234  89.9009378  77.5092149 121.3782291  85.7374984  76.1558875
 121.8536413  85.9302630  75.3477726 120.4547856  85.7934170  75.9102258
 114.0108570  93.3682104  62.2040631 113.4382537  93.9872291  61.7511103
 114.5841364  93.9181466  62.7380553 126.4563885  85.0370733  73.2409968
 125.7297048  84.9026698  72.6326459 126.0411172  85.3447562  74.0466686
 112.1483999  82.2394903  83.0382871 112.0480726  83.1889260  82.9694962
 111.9305541  81.9113142  82.1658941 112.0115269  85.6692042  81.8547933
 111.5282351  86.4692402  82.0611822 112.0976208  85.6799987  80.9015377
 112.2316077  95.4044762  70.9971014 111.2811708  95.4046623  70.8835386
 112.5348563  94.6577496  70.4807049 127.9668771 101.2405300  72.0616776
 128.6047181 101.1212048  71.3580116 127.8489614 102.1886144  72.1204728
 124.7758477 101.1932728  71.9978301 124.4376989 101.0773793  71.1098836
 125.6448245 100.7923893  71.9779307 120.6345293 103.0468205  67.9875192
 120.0710158 102.9558142  67.2191480 120.5197688 102.2268109  68.4677684
 125.2578260 102.3467580  77.9564506 125.2466901 101.9520378  77.0845010
 125.4198900 101.6133653  78.5498278 126.2144852 106.7139172  63.2989657
 125.5632831 107.2993253  62.9123671 127.0089214 107.2445367  63.3584694
 120.1400479 103.8028310  63.6976791 120.9131355 103.2557297  63.5589667
 120.4925878 104.6672559  63.9091253 122.4766756  99.9620976  61.3295241
 122.7292277  99.4402497  60.5678704 121.5391316  99.7987121  61.4321925
 127.5210039  98.9656754  69.1369984 128.3073129  98.5476177  68.7860401
 127.7848744  99.8702846  69.3051633 127.6920117 104.4029604  63.8358641
 127.0565950 104.4764231  64.5479546 127.3617523 104.9923203  63.1577720
 132.9218466  98.9031987  70.0402963 133.6543638  98.3331204  70.2740792
 132.1657822  98.5153588  70.4809468 122.1963045 101.8649082  63.5319616
 122.0799303 101.1893985  64.2000700 122.3065305 101.3781456  62.7151769
 124.5394586 101.3259229  67.2366305 124.1752793 100.7989850  67.9479227
 125.3961702 100.9357698  67.0632791 130.4443887  92.6153561  74.4997571
 130.1127212  93.4848972  74.2758786 129.8489500  92.2989845  75.1791602
 124.1800073  96.3549128  62.2327654 124.3474475  97.2229365  62.5998125
 123.9897242  96.5176410  61.3088943 126.9375406 104.8166107  73.8993484
 126.6376129 105.7191146  73.7909291 126.5926466 104.5498291  74.7514637
 120.3887888 101.2679904  69.9330189 119.4638384 101.1356118  70.1407880
 120.6372301 102.0474123  70.4300131 130.3372550  97.3348648  71.5790921
 129.4289427  97.2664056  71.2849682 130.2860146  97.8120593  72.4072747
 124.1589294  98.8106786  63.2174321 124.0388919  99.2563837  64.0559801
 123.4641882  99.1592104  62.6587859 117.7496699 100.9113178  70.7673978
 117.8789080 101.1647657  71.6813389 117.0694150 101.5040886  70.4478633
 124.4113416  98.7538293  79.5225819 123.6346750  99.3132213  79.5128683
 125.0503979  99.2395076  80.0440689 132.2034196  95.5365086  73.3568795
 131.5608577  95.8297619  72.7108590 131.6989125  95.4218006  74.1621992
 129.8574360  99.2828259  64.0454655 130.7692216  99.5155646  63.8702352
 129.3484007  99.8665303  63.4829733 128.1415128 103.7052887  77.6815947
 128.5498484 103.2635298  76.9370580 127.4192389 103.1305515  77.9350140
 124.4946198  98.6425494  75.0549504 125.3407393  99.0664907  75.1984153
 124.4344836  97.9859118  75.7488067 128.4643942 104.2654078  71.4368236
 127.8352805 104.4299792  70.7344304 128.0769605 104.6795687  72.2079200
 132.3433174 105.2008515  68.7912600 131.6584213 105.5807417  68.2409633
 132.4277024 105.8103842  69.5244548 127.6445643  96.3029862  76.7130678
 127.4006575  97.0571923  76.1764954 127.9205574  96.6815210  77.5477925
 129.5984106 102.8468475  75.3907943 129.8101001 103.4900234  74.7142325
 129.5513854 102.0130791  74.9229874 127.2010335  95.4586295  72.2944516
 126.3394814  95.7567549  72.5861253 127.2272770  95.6756694  71.3625548
 124.0171904 104.0028486  68.7018321 124.4810250 104.2816189  67.9122944
 123.7528702 103.1011930  68.5191412 122.9540790 100.1251638  65.5107886
 123.6564834 100.5772682  65.9781813 122.6221419  99.4835457  66.1387779
 116.6966124  98.3835191  70.8125020 115.9065178  98.6392719  70.3365131
 117.1877372  99.1983529  70.9177060 130.7129934 105.7240430  73.5630301
 131.5347378 105.3220617  73.2812982 130.7092337 105.6208664  74.5146417
 118.6480870  98.7479770  67.7708497 117.8512033  98.8598464  68.2891992
 118.4206462  99.0866422  66.9049387 138.8035927 102.0679178  69.9115272
 138.0499635 101.4986576  69.7559277 138.9383468 102.0341843  70.8585907
 124.1934555 106.9392581  65.5869992 124.0580230 107.7844116  66.0154839
 124.7344368 107.1411858  64.8235925 120.6801895  93.0184161  82.2484347
 120.2868840  92.4650359  82.9231991 121.4968035  93.3294739  82.6390864
 117.6463952 104.4568019  66.1597917 118.1588473 105.2511269  66.3103481
 118.2986665 103.7594309  66.0931518 123.5969856  94.4342040  79.8404603
 124.3379569  95.0349193  79.7609066 123.8287778  93.6919677  79.2822646
 125.8203031 107.5616147  79.7170334 125.3766886 106.7752526  79.3991238
 126.4820245 107.7495298  79.0514224 127.9184269 107.8418947  77.7451735
 127.9002745 108.6627828  77.2532004 128.8404190 107.7173022  77.9701876
 115.6112869 102.7856673  66.9357487 116.4488091 103.1953681  66.7191195
 115.7891137 101.8456115  66.9057681 127.5077301 100.4531754  62.6241320
 126.9923925 101.2236358  62.8629708 127.2354610  99.7796890  63.2474382
 132.4811575 103.2064108  64.5594494 131.7041018 102.8675268  64.1149656
 133.1603056 103.2116732  63.8849459 127.2963604  98.3258846  64.4501101
 126.9913740  98.6404995  65.3011245 128.2494047  98.4040266  64.4928434
 125.7410036 104.4849069  66.0994055 125.2131398 103.7501829  65.7867293
 125.2397539 105.2623745  65.8534024 130.7202882 102.6798090  71.2161102
 130.0626557 103.3697351  71.3041230 131.5243282 103.0694522  71.5595088
 120.4728764  95.1468735  68.4600667 121.0472516  94.9243917  67.7273860
 121.0599746  95.2157430  69.2129268 129.5308341 101.0342462  69.2665043
 130.0440223 101.6672454  69.7686753 130.1809565 100.4343658  68.9008403
 123.8862636 102.3029279  59.1029028 122.9789698 102.0718533  59.3020177
 124.3833668 101.5066899  59.2903010 126.7930715 111.0126787  62.0225715
 126.1192414 111.3158483  62.6310672 127.1796537 111.8155867  61.6731172
 126.0089172  98.5091918  71.5123384 125.0911733  98.7306865  71.3545072
 126.4249316  98.5838228  70.6535091 126.7924220  99.9083334  66.6426064
 127.5396039 100.4204731  66.3333186 127.0615809  99.5867386  67.5030458
 125.0650870 102.4041874  63.6253018 124.1562089 102.1200907  63.7225488
 125.0945954 102.8240953  62.7656325 130.2970137 106.0148464  67.3944186
 129.8432464 105.1739374  67.4509376 129.6664104 106.6509862  67.7318966
 129.2403057  96.9440450  68.6244853 128.5025814  96.4317836  68.9555096
 129.4929830  96.5040831  67.8128130 128.7403077 107.8524960  68.3294004
 129.0326051 108.4130018  67.6106370 129.2501697 108.1453521  69.0847163
 115.6339040 100.1247388  67.6068221 115.4363440  99.5316749  66.8819287
 115.0785704  99.8199599  68.3244159 123.6135764 100.0170495  69.7262814
 123.6684374  99.0644331  69.6505290 122.8026966 100.1729934  70.2104112
 124.7626958 103.9450618  60.9641097 124.3246388 103.2286477  60.5046734
 125.5037399 104.1726733  60.4026188 121.5528124  98.6347555  67.4853193
 120.7395989  98.9341725  67.8918385 122.0487118  98.2403243  68.2027675
 127.1502336  99.0989379  76.3168087 127.5051723  99.3260852  77.1762552
 127.7974467  99.4307756  75.6945342 132.8800073 102.2207815  67.0217416
 132.7417971 102.4109411  66.0938605 132.5236291 102.9827198  67.4785467
 132.9069452 104.2884342  72.0328687 133.3405959 104.1959631  72.8811741
 133.6201033 104.2641842  71.3948703 118.1285266  99.6511422  65.2909173
 117.1982854  99.5895878  65.5079135 118.2242738  99.1287375  64.4945814
 118.0470815  96.1766235  67.8787414 118.3077632  97.0911568  67.7696575
 118.8687987  95.7090678  68.0284027 133.7685002 104.3308043  74.5661573
 133.9620892 105.2353853  74.8120847 133.6685620 103.8715462  75.4000158
 125.4221312  94.2165933  77.0651900 124.7749227  94.9155883  76.9716376
 126.1922328  94.6502077  77.4328148 128.8300110 104.4814785  80.1402453
 128.6785617 104.2525337  79.2232537 128.8204790 105.4385387  80.1533798
 125.5985447 102.0546698  75.1248720 126.5277507 102.2057858  74.9517687
 125.1776477 102.1430719  74.2697366 124.9921931 111.1806459  64.2372794
 125.1673686 110.7094502  65.0518416 124.3054719 111.8072225  64.4654054
 125.9478994 105.4578965  70.2836095 125.6128826 105.4179735  71.1793745
 125.4482939 104.7923681  69.8106505 128.8838185 102.8035000  60.5573155
 128.2667356 102.0781828  60.4606207 128.4154674 103.5644360  60.2140229
 122.5505538 100.5766555  75.2972356 123.2605157  99.9359747  75.2558974
 122.5074846 100.8279449  76.2198537 130.5392317 107.5133908  78.2178935
 130.4804863 106.8293128  77.5509518 130.9411835 108.2552898  77.7659561
 121.2634472  97.5631772  77.1167995 120.7271829  97.1122511  77.7689592
 120.6751181  97.6977681  76.3738460 120.6736731  97.0220424  59.6794459
 119.7966198  96.9009225  59.3156706 121.1494484  96.2306502  59.4273348
 130.5409724 105.4773492  76.4492915 129.6536503 105.1399414  76.5719314
 131.1108275 104.7456523  76.6861680 123.8600657 109.3746714  66.9256979
 123.0768179 109.9168394  67.0195204 124.5593402 109.8920694  67.3251221
 127.1697307  95.1841344  69.5691185 127.6666007  94.4311306  69.2492255
 126.3984289  95.2205660  69.0034394 135.0227065 100.8881709  71.2109476
 135.0116941 101.7706425  70.8403409 134.1544444 100.5353260  71.0164013
 126.5309561 110.0361778  75.5712317 127.2437533 110.6709243  75.4988218
 126.0399590 110.1325644  74.7552318 128.2527088 103.9413031  67.1429608
 127.3183367 104.0614493  66.9734313 128.4303757 103.0385498  66.8789618
 123.7532276  97.3258727  69.2962869 123.3830064  96.7729767  69.9843775
 124.2491369  96.7216860  68.7437869 131.6399639  99.7830350  67.6779642
 132.1060092 100.6158342  67.6039945 132.0907140  99.3175332  68.3824901
 129.7075871 106.1274171  64.6765794 129.9835714 106.0130766  65.5859668
 128.8380369 105.7291656  64.6377967 129.3822761 100.3400829  74.2170438
 128.7294211 100.5876737  73.5622890 129.7603141  99.5264967  73.8832915
 126.3429935 110.3760522  68.3198608 126.5252329 109.5582178  68.7826360
 127.1662921 110.5928215  67.8823498 126.6772100 109.3028707  65.5813656
 127.2059866 108.7921162  64.9683819 126.9400320 108.9871238  66.4459189
 125.4310334 101.0820640  80.7036475 124.7550971 100.9814770  81.3738850
 126.2537968 100.9259854  81.1672472 129.0243991 107.2148825  80.7942745
 129.5683895 107.8278783  80.2997700 128.4430836 107.7728404  81.3109758
 115.4015425  98.6162279  65.1207365 115.6968866  97.7072958  65.0674418
 114.5003461  98.5950019  64.7988367 127.3101504 110.3369543  71.9257773
 127.1852643 109.5359283  71.4168718 127.9680595 110.8315737  71.4371743
 118.9309672  96.6918276  71.1034913 118.2096258  97.3054243  70.9642386
 119.7202928  97.2276040  71.0251559 129.3736412 108.1378563  73.5537323
 128.4266748 108.0183914  73.4815650 129.7219185 107.2501061  73.6363584
 121.7335986  94.0272702  77.3775565 122.2570387  94.2734999  78.1401874
 121.5148319  94.8592737  76.9578702 126.3782846 107.9331279  69.7541675
 126.2307808 107.0047987  69.9349245 127.2036339 107.9551370  69.2698750
 129.9816967 108.7559838  70.8406548 130.9063515 108.5502700  70.7030999
 129.8132271 108.5076239  71.7495889 122.9388531  94.9686397  75.0625235
 122.5985351  94.1694210  75.4645915 122.2327537  95.2688108  74.4902069
 123.5905002  92.0535710  73.5152558 124.4131072  91.5796188  73.3931449
 123.8343066  92.8326193  74.0151245 126.3744360  95.7869117  64.7473792
 126.5907974  96.6693755  64.4462621 125.8938427  95.3955331  64.0179434
 121.1143581  98.7454830  71.3244537 120.9688162  99.0595133  72.2168819
 120.6368785  99.3639731  70.7715436 122.9739964  95.7357378  71.3725427
 122.9601533  94.8398472  71.0357725 123.6912392  95.7428042  72.0063713
 124.8266095  96.1694719  73.4178554 124.5683873  97.0911789  73.4162884
 124.2951135  95.7725153  74.1079018 129.7712284 109.2745506  66.1968639
 129.9449161 108.7091928  65.4442492 130.2641175 110.0746401  66.0148129
 122.3776860  94.6171759  66.6412997 122.4992771  93.6888405  66.8403884
 122.0878902  94.6310445  65.7291312 135.6251675 102.0381929  67.8158939
 136.0682821 101.2889254  67.4178062 134.7478185 102.0292065  67.4332671
 130.7587456 108.5912270  63.2965538 131.4538361 109.2118963  63.5152852
 131.1010606 107.7407621  63.5717916 132.6578879 106.0411976  64.8252868
 133.1830203 106.3799248  64.1002189 132.5701232 105.1058991  64.6416003
 121.8617940  96.1303756  80.8502929 121.9106095  97.0065879  80.4680699
 122.4040454  95.5881149  80.2774573 132.3472785 106.6744879  80.1304066
 131.5568329 106.6569018  79.5908566 132.1106140 107.2133173  80.8853103
 132.4670660 103.5237346  77.4436795 132.5168665 103.3587353  78.3852318
 132.3584584 102.6564605  77.0534676 121.3506919 106.2025891  64.7328884
 121.4995039 106.8861356  64.0795557 122.1573362 106.1830981  65.2478340
 129.7574423  99.5068274  78.7596102 130.6584285  99.3674738  78.4680100
 129.8322397  99.6722728  79.6994279 124.0917228  96.8835128  77.6049288
 123.2220537  97.1768694  77.3331877 124.3276708  97.4675573  78.3256552
 133.9688857 105.9434287  77.6878817 133.6773665 106.3064268  78.5242277
 133.3560988 105.2301295  77.5092149 135.1684539 103.5087167  70.2081387
 136.0031431 103.9476971  70.3718947 135.3043668 103.0325820  69.3889633
 132.2176045 101.0666902  76.1558875 132.6930167 101.2594548  75.3477726
 131.2941611 101.1226088  75.9102258 119.1059552 102.2291069  65.7389953
 118.8605594 101.3253399  65.9370163 119.2755467 102.2308219  64.7969431
 126.7956262  93.1014745  75.1214708 127.3138206  93.8375772  74.7961197
 126.4411395  93.4078739  75.9561468 124.8502325 108.6974022  62.2040631
 124.2776292 109.3164209  61.7511103 125.4235118 109.2473383  62.7380553
 130.9177714  97.9432662  74.3887180 131.8695137  98.0430760  74.4099404
 130.7481165  97.1510930  74.8985264 128.9392094  95.0288245  74.5746581
 128.3442026  95.3093258  73.8793070 128.6541791  95.5182146  75.3463322
 128.0699584 108.9811172  63.3349214 129.0030257 108.9156734  63.5382089
 127.9822797 109.8167439  62.8763746 130.6987601 108.2977042  60.2953161
 130.6201233 107.9636906  61.1888919 131.5197268 108.7898810  60.2944634
 133.3965792 101.1638782  73.5029480 133.3642112 100.2254782  73.6889164
 134.0066416 101.2422818  72.7695305 125.2349123 100.0334835  59.5456684
 126.1808228  99.9041043  59.6145102 124.8563368  99.2949496  60.0226112
 133.5460281  97.9549825  73.5487763 133.0299329  97.1708282  73.3617692
 134.4300229  97.6268542  73.7134282 131.2071008  91.6990841  69.5083576
 131.0095829  91.3905929  70.3926908 131.8170713  92.4252479  69.6381505
 139.2142342 102.2254788  72.6435517 139.9445731 101.9640076  73.2043220
 138.6049288 101.4883510  72.6837585 137.2957639 100.3662651  73.2409968
 136.5690803 100.2318616  72.6326459 136.8804926 100.6739480  74.0466686
 125.1187816 104.0852581  81.0057341 126.0390825 104.2631180  81.1997387
 125.0837399 103.1408626  80.8537040 123.4192040  97.9584811  59.4811569
 122.5123496  97.6617924  59.5574283 123.6968021  97.6614629  58.6145855
 122.9877753  97.5686821  83.0382871 122.8874480  98.5181178  82.9694962
 122.7699295  97.2405060  82.1658941 122.1890825  94.8171746  59.6223548
 123.0509989  95.1426644  59.8819366 122.3741169  94.0303242  59.1096614
 130.3423461  93.6900273  66.7658771 129.7622130  94.3485077  66.3836824
 130.0759394  92.8677617  66.3546189 122.8509024 100.9983960  81.8547933
 122.3676105 101.7984320  82.0611822 122.9369963 101.0091905  80.9015377
 116.1194983 102.8312340  69.7769752 116.0965671 102.9300027  68.8251635
 116.4295620 103.6777490  70.0986918 129.1248339  95.8500363  65.8215120
 128.2374194  96.1350014  65.6035314 129.5402328  95.6894126  64.9742396
 132.4762875  95.8746884  69.5369459 133.2523266  96.3643336  69.8094076
 131.7511010  96.3004938  69.9941328 134.9135434  96.5874503  70.5943399
 135.5079925  96.3470239  69.8836708 134.9862018  95.8681634  71.2216936
 128.2691553 105.6145038  59.9163139 128.9727403 105.8195040  60.5320795
 127.5454202 106.1821800  60.1812223 129.0989363 101.3654899  66.0365410
 129.0424564 101.8223450  65.1973042 129.6517706 100.6045583  65.8588252
 132.9094169  97.1544631  66.8615529 132.6531103  96.7541266  67.6923737
 132.2847037  97.8688425  66.7365668 137.2206507  99.8940704  69.3686821
 136.6606065  99.9633893  70.1418383 136.6150010  99.7181689  68.6486317
 130.1778250 106.0527567  61.9661600 131.0123854 105.6208765  61.7839074
 130.0162593 105.8809581  62.8938494 129.8324142 102.5559680  63.3317939
 129.7772946 102.3903952  62.3906383 129.2070198 103.2635713  63.4880129
 127.1470050 104.8608592  82.6571502 128.0161209 105.0349244  82.2958137
 126.6676801 105.6803009  82.5347231 118.9614148  94.9395362  81.2554375
 119.8245610  94.5832166  81.4657700 118.3879559  94.6009256  81.9429780
 138.8062525 116.5697218  72.0616776 139.4440935 116.4503965  71.3580116
 138.6883368 117.5178062  72.1204728 135.6152232 116.5224646  71.9978301
 135.2770743 116.4065711  71.1098836 136.4842000 116.1215811  71.9779307
 131.4739047 118.3760122  67.9875192 130.9103912 118.2850059  67.2191480
 131.3591442 117.5560027  68.4677684 136.0972015 117.6759498  77.9564506
 136.0860655 117.2812296  77.0845010 136.2592654 116.9425570  78.5498278
 129.0203479 119.8711314  70.8259412 129.8124771 119.5302139  70.4105712
 129.2600129 119.9806289  71.7461566 137.0538606 122.0431090  63.2989657
 136.4026586 122.6285171  62.9123671 137.8482969 122.5737285  63.3584694
 130.9794233 119.1320227  63.6976791 131.7525109 118.5849214  63.5589667
 131.3319632 119.9964477  63.9091253 132.8179276 120.4596610  76.9043690
 132.5269142 121.3642240  76.7890357 133.4536260 120.5013137  77.6187760
 133.7435483 117.8373458  73.4945050 134.3399055 117.6129480  72.7802013
 133.8010454 117.0958204  74.0970498 133.3160511 115.2912893  61.3295241
 133.5686032 114.7694415  60.5678704 132.3785070 115.1279039  61.4321925
 138.3603794 114.2948672  69.1369984 139.1466883 113.8768095  68.7860401
 138.6242498 115.1994764  69.3051633 138.5313871 119.7321522  63.8358641
 137.8959704 119.8056149  64.5479546 138.2011278 120.3215121  63.1577720
 133.0356800 117.1940999  63.5319616 132.9193058 116.5185903  64.2000700
 133.1459060 116.7073373  62.7151769 135.3788341 116.6551146  67.2366305
 135.0146548 116.1281767  67.9479227 136.2355457 116.2649616  67.0632791
 135.0193828 111.6841046  62.2327654 135.1868230 112.5521283  62.5998125
 134.8290997 111.8468328  61.3088943 137.7769161 120.1458025  73.8993484
 137.4769884 121.0483064  73.7909291 137.4320220 119.8790208  74.7514637
 131.2281642 116.5971822  69.9330189 130.3032139 116.4648036  70.1407880
 131.4766055 117.3766041  70.4300131 141.1766305 112.6640565  71.5790921
 140.2683182 112.5955974  71.2849682 141.1253900 113.1412510  72.4072747
 134.9983048 114.1398704  63.2174321 134.8782674 114.5855754  64.0559801
 134.3035637 114.4884021  62.6587859 128.5890453 116.2405095  70.7673978
 128.7182834 116.4939574  71.6813389 127.9087905 116.8332803  70.4478633
 135.2507170 114.0830211  79.5225819 134.4740504 114.6424131  79.5128683
 135.8897733 114.5686994  80.0440689 133.5053543 116.8915664  79.0843786
 134.2468227 117.4300708  78.8078609 132.7990528 117.5181953  79.2415338
 138.9808882 119.0344805  77.6815947 139.3892238 118.5927215  76.9370580
 138.2586144 118.4597432  77.9350140 135.3339952 113.9717411  75.0549504
 136.1801148 114.3956825  75.1984153 135.2738590 113.3151036  75.7488067
 139.3037697 119.5945995  71.4368236 138.6746559 119.7591709  70.7344304
 138.9163359 120.0087605  72.2079200 138.4839398 111.6321780  76.7130678
 138.2400330 112.3863840  76.1764954 138.7599328 112.0107127  77.5477925
 140.4377860 118.1760392  75.3907943 140.6494756 118.8192152  74.7142325
 140.3907609 117.3422709  74.9229874 138.0404089 110.7878213  72.2944516
 137.1788568 111.0859466  72.5861253 138.0666524 111.0048612  71.3625548
 134.8565659 119.3320403  68.7018321 135.3204004 119.6108106  67.9122944
 134.5922457 118.4303848  68.5191412 131.7489740 118.8791885  71.6398084
 132.3191097 119.3079153  71.0015569 132.3397852 118.5974470  72.3382270
 133.7934545 115.4543556  65.5107886 134.4958588 115.9064599  65.9781813
 133.4615173 114.8127375  66.1387779 132.2414906 114.0455312  79.8859096
 131.6113567 114.7271593  80.1194493 132.1350994 113.9338394  78.9412234
 127.5359879 113.7127108  70.8125020 126.7458933 113.9684637  70.3365131
 128.0271126 114.5275446  70.9177060 129.4874624 114.0771688  67.7708497
 128.6905787 114.1890382  68.2891992 129.2600216 114.4158340  66.9049387
 135.3180292 120.6016391  75.7191011 135.3824724 121.0636798  76.5549183
 134.6091216 119.9713756  75.8473321 125.8197582 113.9657599  73.2440011
 126.0705620 114.8504609  73.5097587 126.3557130 113.7862200  72.4715103
 135.0328309 122.2684498  65.5869992 134.8973984 123.1136034  66.0154839
 135.5738122 122.4703776  64.8235925 131.5195649 108.3476078  82.2484347
 131.1262595 107.7942277  82.9231991 132.3361789 108.6586657  82.6390864
 128.4857707 119.7859936  66.1597917 128.9982227 120.5803187  66.3103481
 129.1380420 119.0886227  66.0931518 130.2952592 122.9025693  68.2420670
 130.4719220 123.8243657  68.0541654 131.0909425 122.5884112  68.6715050
 134.4363610 109.7633957  79.8404603 135.1773323 110.3641110  79.7609066
 134.6681533 109.0211595  79.2822646 129.5804948 114.9490325  78.1182833
 129.4658463 114.0475582  78.4189932 128.7249466 115.1954021  77.7667650
 136.6596786 122.8908065  79.7170334 136.2160640 122.1044443  79.3991238
 137.3213999 123.0787215  79.0514224 131.4183907 124.4203866  74.2431012
 131.9691332 124.2920930  73.4708006 130.5795383 124.7198756  73.8925905
 135.2151078 120.6854994  78.5875243 135.7479415 119.9243282  78.3574551
 134.6865159 120.3928646  79.3299398 138.3820773 105.7915060  74.1168885
 138.0385042 106.6816702  74.0407996 138.7499736 105.6016718  73.2538470
 126.4506624 118.1148591  66.9357487 127.2881846 118.5245599  66.7191195
 126.6284891 117.1748033  66.9057681 138.3471056 115.7823671  62.6241320
 137.8317679 116.5528276  62.8629708 138.0748364 115.1088808  63.2474382
 135.9318167 110.6273372  67.6826559 135.0759763 110.2380223  67.5032197
 136.3445119 110.7065333  66.8226344 137.4617313 108.1619715  72.0818118
 136.9582109 108.1249851  71.2685924 137.7547920 109.0712458  72.1414775
 133.7060199 108.2458445  71.0884300 134.5713196 108.0501254  70.7290190
 133.7737708 108.0168797  72.0153657 138.1357359 113.6550763  64.4501101
 137.8307495 113.9696913  65.3011245 139.0887801 113.7332183  64.4928434
 136.5803791 119.8140987  66.0994055 136.0525152 119.0793746  65.7867293
 136.0791294 120.5915663  65.8534024 131.3122518 110.4760653  68.4600667
 131.8866270 110.2535835  67.7273860 131.8993501 110.5449348  69.2129268
 140.3702096 116.3634380  69.2665043 140.8833977 116.9964372  69.7686753
 141.0203320 115.7635575  68.9008403 131.6392106 112.5065114  62.4796552
 130.8029418 112.8439801  62.8005827 131.4996875 112.3714094  61.5423689
 133.6145186 107.3501902  67.1875736 132.9609598 107.0350919  66.5632351
 133.5725660 106.7277642  67.9135559 134.7256391 117.6321197  59.1029028
 133.8183453 117.4010451  59.3020177 135.2227423 116.8358816  59.2903010
 136.8482926 113.8383836  71.5123384 135.9305488 114.0598783  71.3545072
 137.2643070 113.9130146  70.6535091 137.6317974 115.2375251  66.6426064
 138.3789793 115.7496648  66.3333186 137.9009564 114.9159304  67.5030458
 135.9044624 117.7333792  63.6253018 134.9955844 117.4492825  63.7225488
 135.9339708 118.1532870  62.7656325 140.0796811 112.2732367  68.6244853
 139.3419568 111.7609754  68.9555096 140.3323585 111.8332749  67.8128130
 140.1808439 105.0508619  69.2186623 140.4867316 104.1905983  68.9312538
 140.9061044 105.6426240  69.0185617 126.4732795 115.4539306  67.6068221
 126.2757195 114.8608667  66.8819287 125.9179459 115.1491516  68.3244159
 134.4529518 115.3462413  69.7262814 134.5078128 114.3936249  69.6505290
 133.6420720 115.5021852  70.2104112 135.6020712 119.2742536  60.9641097
 135.1640142 118.5578395  60.5046734 136.3431153 119.5018650  60.4026188
 132.3921878 113.9639472  67.4853193 131.5789744 114.2633643  67.8918385
 132.8880873 113.5695161  68.2027675 134.5430456 123.9597229  69.4187457
 134.5006635 124.1858076  68.4895989 135.4593155 123.7260604  69.5673259
 137.9896090 114.4281297  76.3168087 138.3445478 114.6552770  77.1762552
 138.6368221 114.7599674  75.6945342 131.8835953 111.5357828  73.1014428
 132.5235332 111.3946587  72.4037391 131.0513484 111.2492341  72.7253030
 132.6596257 120.8360258  69.2149420 133.4536856 120.3410578  69.0131995
 131.9487949 120.3078121  68.8517126 128.9679021 114.9803340  65.2909173
 128.0376609 114.9187795  65.5079135 129.0636493 114.4579293  64.4945814
 128.8864570 111.5058153  67.8787414 129.1471387 112.4203486  67.7696575
 129.7081742 111.0382595  68.0284027 130.3589495 112.9195910  75.0486239
 131.0312548 112.7113272  74.3998888 129.5319281 112.7217996  74.6091471
 136.2615067 109.5457851  77.0651900 135.6142982 110.2447801  76.9716376
 137.0316082 109.9793995  77.4328148 139.6693865 119.8106703  80.1402453
 139.5179371 119.5817255  79.2232537 139.6598544 120.7677304  80.1533798
 136.4379201 117.3838616  75.1248720 137.3671261 117.5349775  74.9517687
 136.0170231 117.4722637  74.2697366 135.2367533 121.4089280  72.8947257
 135.0978619 121.0408065  73.7673195 134.4482129 121.9236920  72.7231215
 136.7872748 120.7870883  70.2836095 136.4522581 120.7471653  71.1793745
 136.2876694 120.1215599  69.8106505 130.7616992 116.1938513  75.8088676
 130.6236790 115.4618752  76.4100215 131.6721916 116.1047413  75.5272864
 139.7231940 118.1326917  60.5573155 139.1061110 117.4073745  60.4606207
 139.2548428 118.8936278  60.2140229 133.3899293 115.9058472  75.2972356
 134.0998911 115.2651664  75.2558974 133.3468601 116.1571367  76.2198537
 132.1028227 112.8923690  77.1167995 131.5665584 112.4414429  77.7689592
 131.5144935 113.0269599  76.3738460 131.5130486 112.3512342  59.6794459
 130.6359952 112.2301142  59.3156706 131.9888239 111.5598420  59.4273348
 123.0332626 117.1389501  69.7735966 123.7203666 116.8251231  69.1856981
 122.8780755 118.0430866  69.5003217 127.8367348 112.0279698  74.2020990
 127.7525537 111.4205367  73.4671400 127.0150054 112.5188716  74.2030486
 138.0091062 110.5133261  69.5691185 138.5059761 109.7603224  69.2492255
 137.2378043 110.5497578  69.0034394 139.0920843 119.2704949  67.1429608
 138.1577121 119.3906411  66.9734313 139.2697511 118.3677415  66.8789618
 134.5926031 112.6550644  69.2962869 134.2223818 112.1021685  69.9843775
 135.0885123 112.0508778  68.7437869 132.4215229 123.1148139  76.3917887
 133.1224689 123.7484622  76.5447282 131.9510344 123.4562871  75.6313527
 140.4510057 107.4802855  71.7170544 139.5373136 107.7107082  71.8852751
 140.8803158 107.5641299  72.5684576 140.2216515 115.6692747  74.2170438
 139.5687965 115.9168654  73.5622890 140.5996895 114.8556885  73.8832915
 136.2704088 116.4112558  80.7036475 135.5944725 116.3106687  81.3738850
 137.0931722 116.2551772  81.1672472 128.0182947 122.6484494  73.3248990
 128.6036384 121.9028182  73.4576894 127.8207786 122.9588451  74.2085654
 130.8721602 125.6835742  68.3411432 130.2031978 126.1681869  67.8575472
 130.7334472 125.9304962  69.2554811 129.9891364 110.0654635  75.5415975
 130.0532691 110.9269466  75.1293373 129.9258485 109.4528637  74.8088334
 129.4643637 112.1377768  79.1889010 130.0915676 111.7554845  79.8026534
 128.6071556 111.9191970  79.5544702 126.2409180 113.9454197  65.1207365
 126.5362621 113.0364875  65.0674418 125.3397215 113.9241936  64.7988367
 129.7703427 112.0210193  71.1034913 129.0490012 112.6346161  70.9642386
 130.5596682 112.5567958  71.0251559 132.5729740 109.3564620  77.3775565
 133.0964142 109.6026916  78.1401874 132.3542073 110.1884655  76.9578702
 127.9697021 111.6268294  65.2446690 127.6409727 110.7465673  65.0621796
 128.3236392 111.5715963  66.1323079 131.0838844 111.9141264  65.6122167
 131.4234917 112.4427185  64.8900776 131.5310965 112.2521670  66.3880734
 133.7782285 110.2978315  75.0625235 133.4379106 109.4986128  75.4645915
 133.0721291 110.5980026  74.4902069 134.4298757 107.3827627  73.5152558
 135.2524826 106.9088106  73.3931449 134.6736821 108.1618111  74.0151245
 133.0706991 110.4115886  63.8115460 133.7915354 110.7897139  63.3079177
 132.4472296 111.1304763  63.9150438 137.2138114 111.1161035  64.7473792
 137.4301729 111.9985673  64.4462621 136.7332182 110.7247248  64.0179434
 131.9537336 114.0746748  71.3244537 131.8081916 114.3887051  72.2168819
 131.4762539 114.6931648  70.7715436 133.8133719 111.0649296  71.3725427
 133.7995287 110.1690389  71.0357725 134.5306147 111.0719960  72.0063713
 135.6659849 111.4986636  73.4178554 135.4077627 112.4203707  73.4162884
 135.1344890 111.1017071  74.1079018 126.4282998 116.6152092  74.2632198
 125.8836466 117.3911900  74.3952473 127.3062348 116.9622897  74.1051320
 133.2170615 109.9463676  66.6412997 133.3386526 109.0180322  66.8403884
 132.9272657 109.9602362  65.7291312 136.0861805 107.6318587  69.7779717
 136.1083502 107.6957920  68.8231696 136.5029864 106.7923095  69.9720223
 127.2149020 115.7421989  77.1562355 126.4730756 115.8904624  77.7426986
 126.8941764 116.0030254  76.2929105 127.6605633 123.6287417  69.1872750
 128.4863653 123.3291189  68.8071393 127.3099685 122.8595040  69.6362538
 132.6287167 122.9813886  71.2570423 132.0067176 122.3184591  70.9572651
 133.2992034 123.0075018  70.5744071 125.8614238 121.5473744  70.1461683
 125.0246147 121.1195918  69.9645685 125.8337884 121.7406187  71.0832475
 132.7011694 111.4595674  80.8502929 132.7499850 112.3357796  80.4680699
 133.2434208 110.9173067  80.2774573 132.1900674 121.5317809  64.7328884
 132.3388794 122.2153273  64.0795557 132.9967117 121.5122899  65.2478340
 134.9310983 112.2127046  77.6049288 134.0614292 112.5060612  77.3331877
 135.1670463 112.7967491  78.3256552 129.9453306 117.5582987  65.7389953
 129.6999348 116.6545317  65.9370163 130.1149221 117.5600137  64.7969431
 137.6350016 108.4306663  75.1214708 138.1531960 109.1667690  74.7961197
 137.2805149 108.7370656  75.9561468 129.2148954 113.2911344  63.2376114
 128.5218199 113.3655699  62.5816150 128.9700706 112.5271688  63.7597631
 137.8862611 104.8506946  70.6415605 138.1664364 104.1830135  71.2676032
 138.6713217 105.0436041  70.1290269 139.7785848 110.3580163  74.5746581
 139.1835780 110.6385175  73.8793070 139.4935545 110.8474064  75.3463322
 136.0742878 115.3626752  59.5456684 137.0201982 115.2332960  59.6145102
 135.6957122 114.6241414  60.0226112 135.9581570 119.4144498  81.0057341
 136.8784580 119.5923097  81.1997387 135.9231153 118.4700544  80.8537040
 134.2585795 113.2876729  59.4811569 133.3517250 112.9909841  59.5574283
 134.5361776 112.9906547  58.6145855 125.1763735 114.6083092  69.9310615
 124.8566519 113.7548400  69.6384989 124.6297163 114.8231670  70.6868583
 128.9543643 117.3245533  73.6480122 129.1729652 118.2562641  73.6668156
 129.3669416 116.9653507  74.4334926 135.8747860 107.8313618  65.6355810
 135.0648589 107.4860703  66.0111056 136.5632277 107.5221162  66.2243422
 137.8038409 106.9091665  67.2580107 138.3569447 107.3287119  67.9170130
 138.0408495 105.9827413  67.3003063 133.8271508 112.8978739  83.0382871
 133.7268235 113.8473096  82.9694962 133.6093050 112.5696978  82.1658941
 133.0284579 110.1463664  59.6223548 133.8903743 110.4718562  59.8819366
 133.2134923 109.3595160  59.1096614 125.0451995 118.2286003  71.9003737
 124.3515467 117.8139956  71.3873691 125.7924986 118.2706540  71.3037156
 141.1817216 109.0192190  66.7658771 140.6015885 109.6776994  66.3836824
 140.9153148 108.1969535  66.3546189 139.6320782 108.4197248  68.9680092
 140.1320561 108.5313782  68.1594410 140.2756390 108.1158301  69.6080900
 133.6902778 116.3275878  81.8547933 133.2069860 117.1276238  82.0611822
 133.7763717 116.3383822  80.9015377 126.9588738 118.1604257  69.7769752
 126.9359426 118.2591945  68.8251635 127.2689374 119.0069408  70.0986918
 129.6176115 120.2180412  73.8916366 130.5719369 120.1864355  73.8246298
 129.4188639 119.7571036  74.7066592 130.2075498 118.7881528  76.4587164
 131.0268387 119.2825607  76.4822001 130.4812305 117.8713496  76.4304731
 139.9642094 111.1792281  65.8215120 139.0767949 111.4641931  65.6035314
 140.3796083 111.0186044  64.9742396 127.9726344 125.7600032  70.9086564
 127.8380812 125.0000433  70.3424562 127.5558407 126.4840932  70.4415353
 139.1085307 120.9436955  59.9163139 139.8121157 121.1486958  60.5320795
 138.3847956 121.5113717  60.1812223 139.9383118 116.6946817  66.0365410
 139.8818319 117.1515368  65.1973042 140.4911460 115.9337501  65.8588252
 131.1295470 126.6569349  71.1205007 131.0127854 127.6014781  71.0183697
 130.3087916 126.3542910  71.5090806 140.6717897 117.8851598  63.3317939
 140.6166701 117.7195869  62.3906383 140.0463952 118.5927631  63.4880129
 125.4610412 113.1219662  77.1579361 126.1069275 112.6118616  77.6466586
 125.2527563 113.8588344  77.7322786 137.9863804 120.1900510  82.6571502
 138.8554964 120.3641162  82.2958137 137.5070556 121.0094926  82.5347231
 133.9814022 107.3859707  62.9103257 133.9692692 108.3301547  63.0671528
 134.8737444 107.2029852  62.6162718 137.7966142 103.9802483  67.1649194
 137.0298538 103.4260970  67.3105876 138.2076847 104.0524352  68.0263346
 129.8007903 110.2687279  81.2554375 130.6639364 109.9124084  81.4657700
 129.2273314 109.9301174  81.9429780  56.8833660  -3.3878956  53.5909759
  56.8057690  -2.4371131  53.6698239  56.2795304  -3.7333083  54.2484685
  59.1572029  -8.0296803  52.3115298  59.0217704  -7.1845267  52.7400146
  59.6981842  -7.8277525  51.5481232  54.4196311  -7.3955608  54.9665976
  54.5962940  -6.4737644  54.7786960  55.2153145  -7.7097189  55.3960356
  55.5427627  -5.8777435  60.9676319  56.0935052  -6.0060371  60.1953313
  54.7039103  -5.5782546  60.6171212  61.7568190  -3.9562597  48.7471021
  61.0829888  -3.6530900  49.3555979  62.1434012  -3.1533517  48.3976478
  58.6674176  -6.3384072  56.1432764  58.6250355  -6.1123226  55.2141296
  59.5836875  -6.5720697  56.2918565  61.6034821  -7.0802947  60.2907094
  61.6571844  -6.5112011  61.0584810  60.7349603  -6.9101062  59.9261131
  59.9559405  -3.7882924  50.9618100  60.1311161  -4.2594881  51.7763723
  59.2692193  -3.1617158  51.1899361  54.5220490  -0.6393562  57.7357961
  54.7617088  -0.0075038  58.4136979  53.6789687  -0.9905522  58.0223320
  59.0348352  -4.8314439  60.1399465  58.9618523  -4.0259468  60.6518769
  58.5925745  -4.6322473  59.3147486  58.8238132  -5.5942669  53.6502286
  58.0405654  -5.0520989  53.7440511  59.5230877  -5.0768690  54.0496527
  61.4947036  -4.9327605  62.2957623  62.2075008  -4.2980140  62.2233525
  61.0037064  -4.8363739  61.4797625  56.5458949  -7.1833162  63.1163194
  57.2468409  -6.5496679  63.2692588  56.0754064  -6.8418430  62.3558833
  61.3067409  -4.5928861  55.0443915  61.4889803  -5.4107205  55.5071667
  62.1300395  -4.3761169  54.6068805  61.6409574  -5.6660676  52.3058963
  62.1697341  -6.1768221  51.6929125  61.9037794  -5.9818146  53.1704496
  52.1426667  -7.6496807  60.0494297  52.7280104  -8.3953119  60.1822201
  51.9451506  -7.3392850  60.9330961  54.9965322  -4.6145559  55.0656739
  54.3275698  -4.1299432  54.5820779  54.8578192  -4.3676339  55.9800118
  59.1370591  -2.5801816  61.6639397  59.6888899  -2.4170194  62.4288483
  59.4776784  -1.9897378  60.9919422  62.2738978  -4.6319840  58.6503080
  62.1490118  -5.4330100  58.1414025  62.9318069  -4.1373647  58.1617050
  59.2836402  -5.0143334  63.6788052  59.5923529  -5.2594187  64.5510751
  60.0811884  -4.8096696  63.1906922  59.3057014  -2.8605425  55.9093428
  58.8662005  -3.3529046  56.6026285  60.0565131  -3.4032457  55.6685504
  51.7849353  -6.6693884  55.9118056  52.6107373  -6.9690112  55.5316700
  51.4343405  -7.4386261  56.3607845  56.7530886  -7.3167416  57.9815730
  56.1310896  -7.9796710  57.6817958  57.4235753  -7.2906284  57.2989378
  49.9857958  -8.7507557  56.8706990  49.1489867  -9.1785383  56.6890991
  49.9581604  -8.5575114  57.8077781  56.3144393  -8.7663492  51.4574191
  56.4632514  -8.0828028  50.8040863  57.1210837  -8.7858402  51.9723646
  59.8139799  -6.2715362  48.9285938  59.2413766  -5.6525175  48.4756410
  60.3872593  -5.7216000  49.4625860  63.0337059  -5.9878212  50.0594520
  63.9667732  -6.0532650  50.2627396  62.9460271  -5.1521945  49.6009053
  52.0970064  -4.5381269  57.6331871  51.9624532  -5.2980868  57.0669869
  51.6802126  -3.8140370  57.1660660  55.2539190  -3.6411952  57.8450313
  55.1371574  -2.6966520  57.7429004  54.4331636  -3.9438391  58.2336113
  56.2793704  -2.9883690  61.0606242  57.1820951  -2.9560080  61.3772737
  56.0531074  -3.9183240  61.0752578  58.0347306  -4.2352704  57.7216321
  57.0842937  -4.2350842  57.6080693  58.3379792  -4.9819969  57.2052355
  73.7700000   1.6007834  58.7862083  74.4078410   1.4814582  58.0825423
  73.6520842   2.5488678  58.8450035  70.5789706   1.5535263  58.7223608
  70.2408217   1.4376327  57.8344142  71.4479474   1.1526428  58.7024614
  66.4376522   3.4070739  54.7120499  65.8741387   3.3160676  53.9436786
  66.3228917   2.5870643  55.1922991  71.0609489   2.7070114  64.6809813
  71.0498130   2.3122913  63.8090317  71.2230128   1.9736187  65.2743585
  63.9840954   4.9021931  57.5504719  64.7762245   4.5612755  57.1351018
  64.2237604   5.0116906  58.4706872  72.0176080   7.0741707  50.0234963
  71.3664060   7.6595787  49.6368977  72.8120443   7.6047902  50.0830001
  65.9431707   4.1630844  50.4222098  66.7162583   3.6159831  50.2834974
  66.2957106   5.0275093  50.6336559  67.7816750   5.4907226  63.6288997
  67.4906616   6.3952857  63.5135663  68.4173734   5.5323754  64.3433067
  68.7072957   2.8684075  60.2190357  69.3036529   2.6440097  59.5047320
  68.7647928   2.1268820  60.8215805  68.2797985   0.3223510  48.0540548
  68.5323506  -0.1994969  47.2924011  67.3422544   0.1589655  48.1567231
  73.3241268  -0.6740712  55.8615291  74.1104357  -1.0921289  55.5105708
  73.5879972   0.2305381  56.0296939  73.4951345   4.7632139  50.5603948
  72.8597178   4.8366765  51.2724852  73.1648752   5.3525737  49.8823027
  67.9994274   2.2251616  50.2564923  67.8830532   1.5496519  50.9246007
  68.1096534   1.7383990  49.4397076  70.3425815   1.6861763  53.9611612
  69.9784022   1.1592384  54.6724533  71.1992931   1.2960232  53.7878097
  69.9831302  -3.2848337  48.9572960  70.1505704  -2.4168101  49.3243431
  69.7928471  -3.1221056  48.0334250  72.7406635   5.1768642  60.6238791
  72.4407358   6.0793680  60.5154598  72.3957695   4.9100825  61.4759944
  66.1919117   1.6282438  56.6575495  65.2669613   1.4958653  56.8653187
  66.4403530   2.4076658  57.1545438  69.9620523  -0.8290680  49.9419627
  69.8420148  -0.3833629  50.7805108  69.2673111  -0.4805362  49.3833165
  63.5527928   1.2715712  57.4919284  63.6820309   1.5250191  58.4058696
  62.8725379   1.8643420  57.1723939  67.7227415  11.9412962  53.5909759
  67.6451445  12.8920787  53.6698239  67.1189058  11.5958834  54.2484685
  70.2144645  -0.8859173  66.2471125  69.4377979  -0.3265252  66.2373990
  70.8535208  -0.4002390  66.7685996  75.6605589  -0.3569207  50.7699961
  76.5723445  -0.1241820  50.5947659  75.1515236   0.2267838  50.2075040
  68.4691017   1.9226281  65.8089092  69.2105701   2.4611325  65.5323916
  67.7628002   2.5492570  65.9660644  73.9446357   4.0655421  64.4061254
  74.3529713   3.6237832  63.6615886  73.2223618   3.4908049  64.6595447
  70.2977427  -0.9971972  61.7794811  71.1438622  -0.5732558  61.9229460
  70.2376064  -1.6538348  62.4733374  74.2675171   4.6256612  58.1613543
  73.6384034   4.7902326  57.4589611  73.8800833   5.0398221  58.9324507
  78.1464403   5.5611050  55.5157907  77.4615441   5.9409951  54.9654940
  78.2308252   6.1706376  56.2489854  75.4015335   3.2071009  62.1153250
  75.6132230   3.8502769  61.4387631  75.3545083   2.3733325  61.6475180
  69.8203133   4.3631020  55.4263628  70.2841479   4.6418723  54.6368250
  69.5559931   3.4614465  55.2436719  66.7127214   3.9102501  58.3643391
  67.2828571   4.3389770  57.7260876  67.3035326   3.6285086  59.0627577
  68.7572019   0.4854172  52.2353193  69.4596063   0.9375216  52.7027119
  68.4252648  -0.1562009  52.8633086  67.2052381  -0.9234071  66.6104402
  66.5751041  -0.2417790  66.8439799  67.0988469  -1.0350989  65.6657541
  62.4997353  -1.2562275  57.5370327  61.7096407  -1.0004747  57.0610437
  62.9908601  -0.4413937  57.6422367  76.5161163   6.0842964  60.2875607
  77.3378606   5.6823151  60.0058289  76.5123566   5.9811198  61.2391723
  64.4512099  -0.8917696  54.4953803  63.6543262  -0.7799002  55.0137299
  64.2237691  -0.5531044  53.6294694  70.2817766   5.6327007  62.4436318
  70.3462199   6.0947415  63.2794490  69.5728690   5.0024372  62.5718628
  60.7835056  -1.0031785  59.9685317  61.0343095  -0.1184775  60.2342893
  61.3194605  -1.1827183  59.1960409  84.6067156   2.4281713  56.6360579
  83.8530864   1.8589111  56.4804583  84.7414697   2.3944377  57.5831214
  69.9965784   7.2995115  52.3115298  69.8611459   8.1446651  52.7400146
  70.5375596   7.5014393  51.5481232  63.4495181   4.8170553  52.8843223
  63.9619702   5.6113803  53.0348788  64.1017894   4.1196843  52.8176825
  65.2590066   7.9336309  54.9665976  65.4356694   8.8554274  54.7786960
  66.0546899   7.6194728  55.3960356  64.5442422  -0.0199059  64.8428140
  64.4295938  -0.9213802  65.1435239  63.6886940   0.2264638  64.4912956
  71.6234260   7.9218681  66.4415640  71.1798114   7.1355060  66.1236545
  72.2851474   8.1097832  65.7759531  66.3821381   9.4514483  60.9676319
  66.9328806   9.3231546  60.1953313  65.5432857   9.7509372  60.6171212
  73.7215498   8.2021481  64.4697042  73.7033974   9.0230362  63.9777311
  74.6435418   8.0775557  64.6947183  70.1788552   5.7165611  65.3120550
  70.7116889   4.9553899  65.0819858  69.6502634   5.4239263  66.0544704
  61.4144098   3.1459207  53.6602794  62.2519320   3.5556216  53.4436502
  61.5922366   2.2058649  53.6302988  73.3108530   0.8134288  49.3486627
  72.7955154   1.5838893  49.5875014  73.0385839   0.1399424  49.9719688
  78.2842804   3.5666643  51.2839800  77.5072247   3.2277802  50.8394962
  78.9634285   3.5719266  50.6094765  73.0994833  -1.3138620  51.1746408
  72.7944969  -0.9992471  52.0256551  74.0525275  -1.2357200  51.2173741
  71.5441265   4.8451603  52.8239362  71.0162627   4.1104363  52.5112599
  71.0428768   5.6226280  52.5779330  76.5234111   3.0400624  57.9406408
  75.8657786   3.7299885  58.0286537  77.3274510   3.4297056  58.2840395
  66.2759993  -4.4928730  55.1845973  66.8503745  -4.7153549  54.4519166
  66.8630975  -4.4240036  55.9374575  75.3339570   1.3944996  55.9910350
  75.8471452   2.0274988  56.4932060  75.9840794   0.7946192  55.6253710
  66.6029580  -2.4624269  49.2041859  65.7666892  -2.1249583  49.5251133
  66.4634349  -2.5975290  48.2668996  69.6893865   2.6631814  45.8274335
  68.7820927   2.4321067  46.0265484  70.1864897   1.8669433  46.0148317
  72.5961944  11.3729321  48.7471021  71.9223643  11.6761018  49.3555979
  72.9827766  12.1758401  48.3976478  71.8120401  -1.1305548  58.2368691
  70.8942962  -0.9090601  58.0790379  72.2280544  -1.0559237  57.3780398
  72.5955449   0.2685868  53.3671371  73.3427268   0.7807265  53.0578493
  72.8647038  -0.0530080  54.2275764  70.8682099   2.7644408  50.3498325
  69.9593318   2.4803441  50.4470795  70.8977183   3.1843487  49.4901632
  76.1001366   6.3750998  54.1189493  75.6463693   5.5341908  54.1754683
  75.4695333   7.0112396  54.4564273  74.5434305   8.2127495  55.0539311
  74.8357280   8.7732552  54.3351676  75.0532926   8.5056056  55.8092470
  61.4370269   0.4849923  54.3313527  61.2394669  -0.1080717  53.6064594
  60.8816933   0.1802133  55.0489466  69.4166993   0.3773029  56.4508120
  69.4715603  -0.5753135  56.3750597  68.6058195   0.5332468  56.9349419
  70.5658187   4.3053152  47.6886404  70.1277616   3.5889011  47.2292041
  71.3068627   4.5329267  47.1271495  67.3559353  -1.0049911  54.2098499
  66.5427218  -0.7055741  54.6163691  67.8518347  -1.3994222  54.9272982
  69.5067931   8.9907846  56.1432764  69.4644109   9.2168692  55.2141296
  70.4230629   8.7571220  56.2918565  72.9533564  -0.5408087  63.0413393
  73.3082952  -0.3136614  63.9007859  73.6005696  -0.2089710  62.4190649
  78.6831301   2.5810349  53.7462722  78.5449200   2.7711945  52.8183911
  78.3267520   3.3429732  54.2030773  66.8473427  -3.4331556  59.8259734
  67.4872807  -3.5742797  59.1282698  66.0150958  -3.7197042  59.4498336
  78.7100681   4.6486876  58.7573994  79.1437188   4.5562165  59.6057048
  79.4232262   4.6244377  58.1194010  67.6233731   5.8670875  55.9394727
  68.4174330   5.3721195  55.7377302  66.9125424   5.3388738  55.5762432
  72.4428576   8.2488970  60.2907094  72.4965598   8.8179907  61.0584810
  71.5743357   8.4190855  59.9261131  63.9316495   0.0113956  52.0154479
  63.0014083  -0.0501588  52.2324442  64.0273967  -0.5110091  51.2191121
  63.8502044  -3.4631231  54.6032721  64.1108861  -2.5485897  54.4941882
  64.6719216  -3.9306788  54.7529334  65.3226969  -2.0493474  61.7731546
  65.9950023  -2.2576111  61.1244195  64.4956756  -2.2471388  61.3336778
  79.5716231   4.6910577  61.2906879  79.7652121   5.5956387  61.5366154
  79.4716849   4.2317996  62.1245464  74.6331339   4.8417320  66.8647760
  74.4816846   4.6127871  65.9477843  74.6236019   5.7987921  66.8779105
  71.4016676   2.4149232  61.8494026  72.3308736   2.5660392  61.6762994
  70.9807706   2.5033253  60.9942673  70.2005007   6.4399897  59.6192564
  70.0616093   6.0718681  60.4918502  69.4119604   6.9547536  59.4476522
  70.7953159  11.5408993  50.9618100  70.9704915  11.0697036  51.7763723
  70.1085947  12.1674759  51.1899361  71.7510223   5.8181499  57.0081402
  71.4160055   5.7782269  57.9039051  71.2514168   5.1526215  56.5351812
  65.7254466   1.2249129  62.5333983  65.5874264   0.4929368  63.1345522
  66.6359390   1.1358030  62.2518171  74.6869414   3.1637534  47.2818461
  74.0698585   2.4384362  47.1851514  74.2185903   3.9246894  46.9385536
  68.3536767   0.9369089  62.0217662  69.0636386   0.2962281  61.9804281
  68.3106075   1.1881984  62.9443843  76.3423546   7.8736442  64.9424242
  76.2836092   7.1895662  64.2754825  76.7443064   8.6155432  64.4904868
  67.0665701  -2.0765693  63.8413302  66.5303058  -2.5274955  64.4934898
  66.4782410  -1.9419785  63.0983766  65.3614245  14.6898356  57.7357961
  65.6010843  15.3216880  58.4136979  64.5183441  14.3386396  58.0223320
  66.4767960  -2.6177042  46.4039766  65.5997426  -2.7388241  46.0402012
  66.9525713  -3.4090964  46.1518654  76.3440953   5.8376026  63.1738221
  75.4567732   5.5001948  63.2964620  76.9139504   5.1059057  63.4106987
  57.9970100   2.1700118  56.4981273  58.6841140   1.8561848  55.9102288
  57.8418229   3.0741482  56.2248524  62.8004822  -2.9409686  60.9266296
  62.7163011  -3.5484016  60.1916706  61.9787529  -2.4500667  60.9275793
  69.8742106  10.4977478  60.1399465  69.8012278  11.3032450  60.6518769
  69.4319500  10.6969444  59.3147486  69.6631886   9.7349248  53.6502286
  68.8799408  10.2770929  53.7440511  70.3624631  10.2523228  54.0496527
  80.8258294   1.2484243  57.9354783  80.8148170   2.1308959  57.5648716
  79.9575673   0.8955794  57.7409320  72.3340790  10.3964312  62.2957623
  73.0468762  11.0311777  62.2233525  71.8430819  10.4928178  61.4797625
  74.0558317   4.3015565  53.8674915  73.1214596   4.4217028  53.6979619
  74.2334985   3.3988032  53.6034925  69.5563505  -2.3138739  56.0208176
  69.1861292  -2.8667699  56.7089082  70.0522597  -2.9180606  55.4683176
  77.4430868   0.1432884  54.4024949  77.9091320   0.9760876  54.3285252
  77.8938369  -0.3222134  55.1070207  67.3852704   8.1458756  63.1163194
  68.0862163   8.7795239  63.2692588  66.9147819   8.4873487  62.3558833
  75.5107099   6.4876706  51.4011101  75.7866943   6.3733300  52.3104975
  74.6411598   6.0894191  51.3623274  75.1853990   0.7003363  60.9415744
  74.5325440   0.9479271  60.2868197  75.5634369  -0.1132498  60.6078222
  72.1461163  10.7363057  55.0443915  72.3283558   9.9184712  55.5071667
  72.9694149  10.9530749  54.6068805  72.4803329   9.6631242  52.3058963
  73.0091095   9.1523696  51.6929125  72.7431548   9.3473772  53.1704496
  71.2341563   1.4423174  67.4281781  70.5582200   1.3417304  68.0984157
  72.0569196   1.2862388  67.8917779  62.9820422   7.6795111  60.0494297
  63.5673858   6.9338799  60.1822201  62.7845260   7.9899068  60.9330961
  65.8359077  10.7146358  55.0656739  65.1669452  11.1992486  54.5820779
  65.6971947  10.9615579  55.9800118  57.5738076   0.2500711  58.7698740
  57.6122176  -0.2835698  59.5635858  57.0678369  -0.2764083  58.1509717
  69.9764345  12.7490102  61.6639397  70.5282653  12.9121723  62.4288483
  70.3170539  13.3394540  60.9919422  64.9528839  -4.9034748  62.2661282
  65.0170165  -4.0419917  61.8538680  64.8895959  -5.5160747  61.5333641
  64.4281111  -2.8311616  65.9134316  65.0553150  -3.2134538  66.5271841
  63.5709030  -3.0497414  66.2790009  74.8275220   7.5751359  67.5188052
  75.3715124   8.1881318  67.0243007  74.2462065   8.1330938  68.0355065
  61.2046654  -1.0235187  51.8452671  61.5000095  -1.9324508  51.7919725
  60.3034690  -1.0447447  51.5233674  73.1132733  10.6972077  58.6503080
  72.9883872   9.8961817  58.1414025  73.7711824  11.1918271  58.1617050
  64.7340901  -2.9479190  57.8280220  64.0127487  -2.3343222  57.6887693
  65.5234157  -2.4121425  57.7496866  75.1767641   8.4981097  60.2782630
  74.2297977   8.3786449  60.2060956  75.5250414   7.6103596  60.3608891
  62.9334496  -3.3421089  51.9691996  62.6047202  -4.2223710  51.7867102
  63.2873866  -3.3973420  52.8568386  72.1814074   8.2933814  56.4786982
  72.0339037   7.3650521  56.6594552  73.0067568   8.3153904  55.9944057
  66.0476319  -3.0548119  52.3367474  66.3872391  -2.5262198  51.6146082
  66.4948439  -2.7167713  53.1126041  75.7848196   9.1162372  57.5651855
  76.7094744   8.9105234  57.4276306  75.6163500   8.8678774  58.4741196
  68.0344466  -4.5573498  50.5360767  68.7552828  -4.1792245  50.0324484
  67.4109770  -3.8384621  50.6395745  66.9174810  -0.8942635  58.0489844
  66.7719391  -0.5802332  58.9414125  66.4400014  -0.2757735  57.4960742
  70.6297324  -3.4702747  60.1423861  70.3715101  -2.5485677  60.1408191
  70.0982364  -3.8672313  60.8324325  75.5743512   9.6348040  52.9213946
  75.7480390   9.0694462  52.1687799  76.0672404  10.4348935  52.7393436
  61.3920472   1.6462709  60.9877505  60.8473940   2.4222517  61.1197779
  62.2699822   1.9933513  60.8296626  81.4282904   2.3984463  54.5404246
  81.8714050   1.6491788  54.1423369  80.5509414   2.3894599  54.1577978
  76.5618685   8.9514804  50.0210844  77.2569590   9.5721497  50.2398159
  76.9041835   8.1010155  50.2963222  62.1786494   0.7732605  63.8807662
  61.4368230   0.9215241  64.4672292  61.8579238   1.0340871  63.0174411
  78.4610108   6.4014510  51.5498175  78.9861432   6.7401783  50.8247495
  78.3732461   5.4661525  51.3661310  70.1230157  10.3148583  63.6788052
  70.4317283  10.0697730  64.5510751  70.9205639  10.5195222  63.1906922
  70.1450769  12.4686493  55.9093428  69.7055759  11.9762872  56.6026285
  70.8958886  11.9259461  55.6685504  62.6243108   8.6598034  55.9118056
  63.4501128   8.3601806  55.5316700  62.2737160   7.8905656  56.3607845
  67.5924641   8.0124502  57.9815730  66.9704650   7.3495207  57.6817958
  68.2629508   8.0385634  57.2989378  60.8251713   6.5784360  56.8706990
  59.9883621   6.1506535  56.6890991  60.7975358   6.7716804  57.8077781
  67.6649168  -3.5093710  67.5748236  67.7137324  -2.6331587  67.1926006
  68.2071683  -4.0516317  67.0019879  78.1504014   7.0347413  66.8549373
  77.3599558   7.0171552  66.3153873  77.9137369   7.5735707  67.6098410
  78.2701889   3.8839880  64.1682102  78.3199894   3.7189887  65.1097624
  78.1615812   3.0167139  63.7779982  67.1538148   6.5628426  51.4574191
  67.3026268   7.2463890  50.8040863  67.9604591   6.5433516  51.9723646
  75.5605652  -0.1329192  65.4841408  76.4615514  -0.2722727  65.1925406
  75.6353626   0.0325263  66.4239586  69.8948457  -2.7562337  64.3294595
  69.0251766  -2.4628771  64.0577183  70.1307937  -2.1721892  65.0501858
  79.7720086   6.3036821  64.4124123  79.4804894   6.6666802  65.2487584
  79.1592217   5.5903830  64.2337455  80.9715768   3.8689701  56.9326693
  81.8062660   4.3079505  57.0964254  81.1074897   3.3928354  56.1134939
  78.0207274   1.4269436  62.8804181  78.4961396   1.6197082  62.0723033
  77.0972840   1.4828622  62.6347565  64.9090781   2.5893603  52.4635259
  64.6636823   1.6855933  52.6615470  65.0786695   2.5910754  51.5214737
  64.1786428  -1.6778039  49.9621421  63.4855673  -1.6033684  49.3061457
  63.9338180  -2.4417696  50.4842938  70.6533553   9.0576556  48.9285938
  70.0807520   9.6766743  48.4756410  71.2266347   9.6075918  49.4625860
  73.8730813   9.3413706  50.0594520  74.8061486   9.2759268  50.2627396
  73.7854026  10.1769973  49.6009053  76.5018830   8.6579576  47.0198468
  76.4232461   8.3239440  47.9134226  77.3228497   9.1501344  47.0189940
  79.1997021   1.5241316  60.2274786  79.1673341   0.5857316  60.4134470
  79.8097645   1.6025352  59.4940611  71.0380352   0.3937369  46.2701990
  71.9839457   0.2643577  46.3390408  70.6594597  -0.3447969  46.7471419
  85.0173571   2.5857323  59.3680823  85.7476959   2.3242611  59.9288527
  84.4080516   1.8486045  59.4082891  83.0988868   0.7265185  59.9655274
  82.3722032   0.5921150  59.3571766  82.6836155   1.0342014  60.7711992
  70.9219044   4.4455115  67.7302647  71.8422054   4.6233714  67.9242694
  70.8868627   3.5011160  67.5782347  69.2223269  -1.6812655  46.2056876
  68.3154724  -1.9779542  46.2819589  69.4999250  -1.9782837  45.3391162
  60.1401209  -0.3606291  56.6555922  59.8203994  -1.2140983  56.3630296
  59.5934638  -0.1457713  57.4113889  63.9181117   2.3556150  60.3725429
  64.1367127   3.2873257  60.3913462  64.3306891   1.9964124  61.1580232
  68.7908982  -2.0710645  69.7628178  68.6905709  -1.1216288  69.6940269
  68.5730524  -2.3992406  68.8904248  60.0089469   3.2596620  58.6249044
  59.3152941   2.8450573  58.1118998  60.7562460   3.3017157  58.0282463
  68.6540252   1.3586494  68.5793239  68.1707334   2.1586854  68.7857128
  68.7401191   1.3694439  67.6260683  61.9226212   3.1914874  56.5015059
  61.8996900   3.2902561  55.5496942  62.2326848   4.0380025  56.8232225
  64.5813590   5.2491029  60.6161673  65.5356843   5.2174971  60.5491605
  64.3826113   4.7881653  61.4311899  65.1712972   3.8192145  63.1832471
  65.9905861   4.3136224  63.2067308  65.4449780   2.9024113  63.1550038
  62.9363819  10.7910648  57.6331871  62.8018287  10.0311049  57.0669869
  62.5195881  11.5151548  57.1660660  74.0722782   5.9747572  46.6408446
  74.7758632   6.1797574  47.2566102  73.3485430   6.5424334  46.9057530
  74.9020592   1.7257433  52.7610716  74.8455793   2.1825985  51.9218349
  75.4548934   0.9648118  52.5833559  66.0932944  11.6879965  57.8450313
  65.9765329  12.6325398  57.7429004  65.2725391  11.3853527  58.2336113
  75.9809479   6.4130101  48.6906906  76.8155083   5.9811300  48.5084381
  75.8193822   6.2412115  49.6183801  75.6355371   2.9162214  50.0563245
  75.5804175   2.7506486  49.1151690  75.0101426   3.6238247  50.2125435
  60.4247886  -1.8469721  63.8824668  61.0706750  -2.3570767  64.3711893
  60.2165037  -1.1101040  64.4568093  72.9501278   5.2211126  69.3816808
  73.8192438   5.3951778  69.0203443  72.4708030   6.0405543  69.2592538
  67.1187459  12.3408227  61.0606242  68.0214705  12.3731837  61.3772737
  66.8924829  11.4108678  61.0752578  68.8741061  11.0939214  57.7216321
  67.9236692  11.0941075  57.6080693  69.1773547  10.3471948  57.2052355
  64.7645377  -4.7002104  67.9799682  65.6276839  -5.0565299  68.1903007
  64.1910788  -5.0388209  68.6675086  84.6093754  16.9299752  58.7862083
  85.2472164  16.8106500  58.0825423  84.4914597  17.8780596  58.8450035
  81.4183460  16.8827180  58.7223608  81.0801972  16.7668245  57.8344142
  82.2873229  16.4818345  58.7024614  77.2770276  18.7362657  54.7120499
  76.7135141  18.6452594  53.9436786  77.1622671  17.9162561  55.1922991
  81.9003243  18.0362032  64.6809813  81.8891884  17.6414830  63.8090317
  82.0623883  17.3028105  65.2743585  74.8234708  20.2313848  57.5504719
  75.6156000  19.8904673  57.1351018  75.0631358  20.3408823  58.4706872
  82.8569835  22.4033624  50.0234963  82.2057815  22.9887705  49.6368977
  83.6514198  22.9339819  50.0830001  76.7825462  19.4922762  50.4222098
  77.5556338  18.9451749  50.2834974  77.1350861  20.3567011  50.6336559
  78.6210505  20.8199144  63.6288997  78.3300370  21.7244775  63.5135663
  79.2567489  20.8615671  64.3433067  79.5466711  18.1975992  60.2190357
  80.1430284  17.9732015  59.5047320  79.6041683  17.4560738  60.8215805
  79.1191740  15.6515428  48.0540548  79.3717260  15.1296949  47.2924011
  78.1816299  15.4881573  48.1567231  84.1635023  14.6551206  55.8615291
  84.9498112  14.2370629  55.5105708  84.4273727  15.5597298  56.0296939
  84.3345100  20.0924056  50.5603948  83.6990933  20.1658683  51.2724852
  84.0042506  20.6817655  49.8823027  89.5643450  14.5926439  56.7648269
  90.2968622  14.0225656  56.9986099  88.8082805  14.2048040  57.2054775
  78.8388029  17.5543534  50.2564923  78.7224287  16.8788437  50.9246007
  78.9490288  17.0675908  49.4397076  81.1819569  17.0153681  53.9611612
  80.8177777  16.4884302  54.6724533  82.0386685  16.6252150  53.7878097
  87.0868870   8.3048013  61.2242878  86.7552195   9.1743424  61.0004093
  86.4914483   7.9884297  61.9036908  80.8225056  12.0443580  48.9572960
  80.9899459  12.9123817  49.3243431  80.6322225  12.2070862  48.0334250
  83.5800390  20.5060559  60.6238791  83.2801113  21.4085598  60.5154598
  83.2351449  20.2392743  61.4759944  77.0312871  16.9574356  56.6575495
  76.1063368  16.8250570  56.8653187  77.2797284  17.7368575  57.1545438
  86.9797533  13.0243099  58.3036228  86.0714411  12.9558508  58.0094989
  86.9285129  13.5015044  59.1318054  80.8014277  14.5001238  49.9419627
  80.6813902  14.9458289  50.7805108  80.1066866  14.8486556  49.3833165
  74.3921682  16.6007630  57.4919284  74.5214063  16.8542109  58.4058696
  73.7119133  17.1935338  57.1723939  78.5621169  27.2704880  53.5909759
  78.4845199  28.2212705  53.6698239  77.9582813  26.9250752  54.2484685
  81.0538399  14.4432745  66.2471125  80.2771733  15.0026665  66.2373990
  81.6928962  14.9289528  66.7685996  88.8459180  11.2259538  60.0814102
  88.2033560  11.5192071  59.4353897  88.3414108  11.1112458  60.8867299
  86.4999343  14.9722711  50.7699961  87.4117200  15.2050098  50.5947659
  85.9908991  15.5559755  50.2075040  79.3084771  17.2518198  65.8089092
  80.0499456  17.7903242  65.5323916  78.6021757  17.8784487  65.9660644
  84.7840111  19.3947339  64.4061254  85.1923467  18.9529749  63.6615886
  84.0617373  18.8199966  64.6595447  81.1371181  14.3319946  61.7794811
  81.9832376  14.7559359  61.9229460  81.0769819  13.6753570  62.4733374
  85.1068926  19.9548530  58.1613543  84.4777788  20.1194244  57.4589611
  84.7194588  20.3690139  58.9324507  88.9858158  20.8902967  55.5157907
  88.3009196  21.2701869  54.9654940  89.0702007  21.4998294  56.2489854
  84.2870626  11.9924314  63.4375984  84.0431558  12.7466375  62.9010260
  84.5630557  12.3709662  64.2723232  86.2409089  18.5362926  62.1153250
  86.4525984  19.1794686  61.4387631  86.1938838  17.7025243  61.6475180
  83.8435318  11.1480747  59.0189822  82.9819797  11.4462001  59.3106560
  83.8697753  11.3651146  58.0870855  80.6596888  19.6922938  55.4263628
  81.1235233  19.9710641  54.6368250  80.3953686  18.7906382  55.2436719
  77.5520969  19.2394419  58.3643391  78.1222326  19.6681688  57.7260876
  78.1429081  18.9577004  59.0627577  79.5965774  15.8146090  52.2353193
  80.2989817  16.2667134  52.7027119  79.2646402  15.1729909  52.8633086
  78.0446135  14.4057847  66.6104402  77.4144796  15.0874127  66.8439799
  77.9382223  14.2940928  65.6657541  73.3391108  14.0729643  57.5370327
  72.5490162  14.3287171  57.0610437  73.8302355  14.8877980  57.6422367
  87.3554917  21.4134882  60.2875607  88.1772361  21.0115069  60.0058289
  87.3517320  21.3103116  61.2391723  75.2905853  14.4374222  54.4953803
  74.4937016  14.5492916  55.0137299  75.0631445  14.7760874  53.6294694
  81.1211521  20.9618925  62.4436318  81.1855953  21.4239332  63.2794490
  80.4122445  20.3316290  62.5718628  71.6228811  14.3260133  59.9685317
  71.8736849  15.2107143  60.2342893  72.1588359  14.1464735  59.1960409
  95.4460910  17.7573630  56.6360579  94.6924619  17.1881028  56.4804583
  95.5808451  17.7236295  57.5831214  80.8359538  22.6287033  52.3115298
  80.7005213  23.4738568  52.7400146  81.3769351  22.8306310  51.5481232
  77.3226878   8.7078612  68.9729653  76.9293824   8.1544811  69.6477298
  78.1393018   9.0189191  69.3636171  74.2888936  20.1462471  52.8843223
  74.8013456  20.9405721  53.0348788  74.9411649  19.4488761  52.8176825
  76.0983820  23.2628227  54.9665976  76.2750449  24.1846192  54.7786960
  76.8940654  22.9486646  55.3960356  80.2394839  10.1236492  66.5649910
  80.9804552  10.7243645  66.4854372  80.4712762   9.3814129  66.0067953
  75.3836177  15.3092859  64.8428140  75.2689692  14.4078116  65.1435239
  74.5280695  15.5556556  64.4912956  82.4628015  23.2510599  66.4415640
  82.0191869  22.4646978  66.1236545  83.1245228  23.4389750  65.7759531
  77.2215136  24.7806401  60.9676319  77.7722561  24.6523464  60.1953313
  76.3826612  25.0801290  60.6171212  84.5609253  23.5313399  64.4697042
  84.5427728  24.3522280  63.9777311  85.4829173  23.4067474  64.6947183
  81.0182307  21.0457529  65.3120550  81.5510644  20.2845817  65.0819858
  80.4896388  20.7531180  66.0544704  84.1852002   6.1517594  60.8414192
  83.8416271   7.0419236  60.7653302  84.5530964   5.9619252  59.9783777
  72.2537852  18.4751125  53.6602794  73.0913074  18.8848133  53.4436502
  72.4316120  17.5350567  53.6302988  84.1502285  16.1426206  49.3486627
  83.6348908  16.9130810  49.5875014  83.8779593  15.4691342  49.9719688
  81.7349396  10.9875906  54.4071865  80.8790992  10.5982757  54.2277504
  82.1476347  11.0667867  53.5471651  83.2648542   8.5222250  58.8063425
  82.7613338   8.4852385  57.9931230  83.5579149   9.4314992  58.8660082
  79.5091428   8.6060979  57.8129607  80.3744425   8.4103788  57.4535496
  79.5768937   8.3771331  58.7398963  89.1236559  18.8958560  51.2839800
  88.3466001  18.5569720  50.8394962  89.8028040  18.9011183  50.6094765
  83.9388588  14.0153298  51.1746408  83.6338723  14.3299447  52.0256551
  84.8919030  14.0934718  51.2173741  82.3835020  20.1743521  52.8239362
  81.8556381  19.4396281  52.5112599  81.8822522  20.9518197  52.5779330
  87.3627866  18.3692541  57.9406408  86.7051540  19.0591803  58.0286537
  88.1668265  18.7588973  58.2840395  77.1153747  10.8363187  55.1845973
  77.6897499  10.6138369  54.4519166  77.7024730  10.9051882  55.9374575
  86.1733324  16.7236914  55.9910350  86.6865206  17.3566906  56.4932060
  86.8234548  16.1238110  55.6253710  77.4423334  12.8667648  49.2041859
  76.6060647  13.2042335  49.5251133  77.3028104  12.7316628  48.2668996
  79.4176415   7.7104436  53.9121043  78.7640827   7.3953453  53.2877658
  79.3756889   7.0880177  54.6380866  80.5287620  17.9923731  45.8274335
  79.6214682  17.7612985  46.0265484  81.0258652  17.1961351  46.0148317
  83.4355699  26.7021238  48.7471021  82.7617397  27.0052935  49.3555979
  83.8221521  27.5050319  48.3976478  82.6514155  14.1986370  58.2368691
  81.7336717  14.4201317  58.0790379  83.0674299  14.2732680  57.3780398
  83.4349203  15.5977785  53.3671371  84.1821022  16.1099183  53.0578493
  83.7040793  15.2761838  54.2275764  81.7075853  18.0936326  50.3498325
  80.7987072  17.8095359  50.4470795  81.7370937  18.5135405  49.4901632
  86.9395121  21.7042916  54.1189493  86.4857448  20.8633826  54.1754683
  86.3089087  22.3404314  54.4564273  85.8828040  12.6334902  55.3490160
  85.1450797  12.1212288  55.6800403  86.1354814  12.1935283  54.5373437
  85.3828060  23.5419412  55.0539311  85.6751034  24.1024469  54.3351676
  85.8926680  23.8347973  55.8092470  85.9839668   5.4111154  55.9431929
  86.2898544   4.5508517  55.6557844  86.7092272   6.0028774  55.7430923
  72.2764024  15.8141840  54.3313527  72.0788423  15.2211201  53.6064594
  71.7210688  15.5094050  55.0489466  80.2560747  15.7064947  56.4508120
  80.3109357  14.7538783  56.3750597  79.4451949  15.8624386  56.9349419
  81.4051941  19.6345070  47.6886404  80.9671371  18.9180929  47.2292041
  82.1462382  19.8621185  47.1271495  78.1953107  14.3242006  54.2098499
  77.3820973  14.6236177  54.6163691  78.6912101  13.9297695  54.9272982
  80.3461685  24.3199763  56.1432764  80.3037864  24.5460610  55.2141296
  81.2624384  24.0863138  56.2918565  83.7927319  14.7883831  63.0413393
  84.1476707  15.0155304  63.9007859  84.4399450  15.1202208  62.4190649
  89.5225056  17.9102267  53.7462722  89.3842954  18.1003863  52.8183911
  89.1661275  18.6721650  54.2030773  77.6867182  11.8960362  59.8259734
  78.3266561  11.7549121  59.1282698  76.8544713  11.6094875  59.4498336
  89.5494435  19.9778794  58.7573994  89.9830942  19.8854083  59.6057048
  90.2626016  19.9536294  58.1194010  78.4627486  21.1962792  55.9394727
  79.2568084  20.7013113  55.7377302  77.7519178  20.6680656  55.5762432
  83.2822330  23.5780888  60.2907094  83.3359353  24.1471824  61.0584810
  82.4137112  23.7482773  59.9261131  74.7710249  15.3405874  52.0154479
  73.8407837  15.2790330  52.2324442  74.8667721  14.8181827  51.2191121
  74.6895798  11.8660687  54.6032721  74.9502616  12.7806020  54.4941882
  75.5112971  11.3985130  54.7529334  76.1620724  13.2798444  61.7731546
  76.8343777  13.0715806  61.1244195  75.3350510  13.0820530  61.3336778
  90.4109985  20.0202494  61.2906879  90.6045875  20.9248305  61.5366154
  90.3110603  19.5609914  62.1245464  82.0646296   9.9060385  63.7897206
  81.4174211  10.6050335  63.6961683  82.8347311  10.3396529  64.1573455
  85.4725094  20.1709237  66.8647760  85.3210600  19.9419789  65.9477843
  85.4629773  21.1279839  66.8779105  82.2410430  17.7441150  61.8494026
  83.1702490  17.8952310  61.6762994  81.8201460  17.8325171  60.9942673
  81.0398762  21.7691814  59.6192564  80.9009848  21.4010599  60.4918502
  80.2513358  22.2839454  59.4476522  81.6346914  26.8700911  50.9618100
  81.8098670  26.3988954  51.7763723  80.9479702  27.4966677  51.1899361
  82.5903977  21.1473417  57.0081402  82.2553810  21.1074187  57.9039051
  82.0907923  20.4818133  56.5351812  76.5648221  16.5541047  62.5333983
  76.4268019  15.8221286  63.1345522  77.4753144  16.4649947  62.2518171
  85.5263169  18.4929451  47.2818461  84.9092339  17.7676280  47.1851514
  85.0579657  19.2538812  46.9385536  79.1930522  16.2661006  62.0217662
  79.9030140  15.6254199  61.9804281  79.1499830  16.5173901  62.9443843
  87.1817300  23.2028360  64.9424242  87.1229846  22.5187580  64.2754825
  87.5836819  23.9447350  64.4904868  77.9059456  13.2526224  63.8413302
  77.3696813  12.8016963  64.4934898  77.3176164  13.3872133  63.0983766
  76.2007999  30.0190274  57.7357961  76.4404597  30.6508798  58.4136979
  75.3577196  29.6678314  58.0223320  77.3161715  12.7114876  46.4039766
  76.4391181  12.5903677  46.0402012  77.7919468  11.9200954  46.1518654
  87.1834708  21.1667944  63.1738221  86.2961486  20.8293866  63.2964620
  87.7533259  20.4350975  63.4106987  68.8363855  17.4992035  56.4981273
  69.5234895  17.1853766  55.9102288  68.6811983  18.4033400  56.2248524
  73.6398577  12.3882232  60.9266296  73.5556766  11.7807902  60.1916706
  72.8181283  12.8791250  60.9275793  80.7135861  25.8269396  60.1399465
  80.6406032  26.6324368  60.6518769  80.2713254  26.0261362  59.3147486
  80.5025641  25.0641166  53.6502286  79.7193162  25.6062846  53.7440511
  81.2018386  25.5815146  54.0496527  83.8122291  10.8735796  56.2936491
  84.3090990  10.1205758  55.9737562  83.0409272  10.9100112  55.7279701
  91.6652048  16.5776161  57.9354783  91.6541924  17.4600877  57.5648716
  90.7969428  16.2247712  57.7409320  83.1734544  25.7256230  62.2957623
  83.8862517  26.3603695  62.2233525  82.6824573  25.8220096  61.4797625
  84.8952071  19.6307483  53.8674915  83.9608350  19.7508945  53.6979619
  85.0728740  18.7279950  53.6034925  80.3957259  13.0153179  56.0208176
  80.0255047  12.4624219  56.7089082  80.8916352  12.4111312  55.4683176
  88.2824623  15.4724802  54.4024949  88.7485075  16.3052794  54.3285252
  88.7332123  15.0069784  55.1070207  78.2246458  23.4750674  63.1163194
  78.9255918  24.1087157  63.2692588  77.7541573  23.8165405  62.3558833
  86.3500854  21.8168623  51.4011101  86.6260698  21.7025218  52.3104975
  85.4805353  21.4186108  51.3623274  86.2541285   7.8405389  58.4415850
  85.3404365   8.0709616  58.6098057  86.6834387   7.9243833  59.2929883
  86.0247744  16.0295281  60.9415744  85.3719194  16.2771188  60.2868197
  86.4028124  15.2159419  60.6078222  82.9854918  26.0654974  55.0443915
  83.1677312  25.2476630  55.5071667  83.8087904  26.2822666  54.6068805
  83.3197083  24.9923159  52.3058963  83.8484850  24.4815614  51.6929125
  83.5825303  24.6765690  53.1704496  82.0735317  16.7715092  67.4281781
  81.3975954  16.6709221  68.0984157  82.8962951  16.6154306  67.8917779
  73.8214176  23.0087029  60.0494297  74.4067613  22.2630717  60.1822201
  73.6239015  23.3190985  60.9330961  76.6752831  26.0438276  55.0656739
  76.0063207  26.5284404  54.5820779  76.5365701  26.2907496  55.9800118
  68.4131831  15.5792629  58.7698740  68.4515930  15.0456220  59.5635858
  67.9072124  15.0527834  58.1509717  80.8158100  28.0782020  61.6639397
  81.3676408  28.2413641  62.4288483  81.1564293  28.6686457  60.9919422
  75.7922593  10.4257169  62.2661282  75.8563920  11.2872000  61.8538680
  75.7289713   9.8131171  61.5333641  75.2674866  12.4980302  65.9134316
  75.8946904  12.1157379  66.5271841  74.4102785  12.2794504  66.2790009
  85.6668974  22.9043277  67.5188052  86.2108878  23.5173235  67.0243007
  85.0855819  23.4622855  68.0355065  72.0440408  14.3056731  51.8452671
  72.3393849  13.3967409  51.7919725  71.1428444  14.2844470  51.5233674
  83.9526487  26.0263995  58.6503080  83.8277627  25.2253735  58.1414025
  84.6105578  26.5210188  58.1617050  75.5734655  12.3812728  57.8280220
  74.8521241  12.9948695  57.6887693  76.3627911  12.9170492  57.7496866
  86.0161396  23.8273015  60.2782630  85.0691731  23.7078366  60.2060956
  86.3644169  22.9395513  60.3608891  78.3760969   9.7167154  64.1020872
  78.8995371   9.9629451  64.8647181  78.1573302  10.5487189  63.6824009
  73.7728250  11.9870829  51.9691996  73.4440956  11.1068208  51.7867102
  74.1267621  11.9318497  52.8568386  83.0207829  23.6225731  56.4786982
  82.8732791  22.6942439  56.6594552  83.8461322  23.6445822  55.9944057
  76.8870073  12.2743798  52.3367474  77.2266146  12.8029720  51.6146082
  77.3342194  12.6124205  53.1126041  86.6241951  24.4454290  57.5651855
  87.5488498  24.2397151  57.4276306  86.4557254  24.1970691  58.4741196
  79.5813514  10.6580849  61.7870542  79.2410334   9.8588662  62.1891222
  78.8752520  10.9582560  61.2147375  80.2329986   7.7430162  60.2397865
  81.0556055   7.2690640  60.1176755  80.4768049   8.5220645  60.7396551
  78.8738220  10.7718420  50.5360767  79.5946583  11.1499673  50.0324484
  78.2503524  11.4907297  50.6395745  83.0169343  11.4763569  51.4719099
  83.2332958  12.3588207  51.1707927  82.5363410  11.0849782  50.7424741
  77.7568565  14.4349282  58.0489844  77.6113145  14.7489585  58.9414125
  77.2793768  15.0534183  57.4960742  79.6164947  11.4251830  58.0970733
  79.6026516  10.5292924  57.7603031  80.3337376  11.4322494  58.7309019
  81.4691078  11.8589170  60.1423861  81.2108856  12.7806241  60.1408191
  80.9376119  11.4619605  60.8324325  86.4137267  24.9639958  52.9213946
  86.5874144  24.3986380  52.1687799  86.9066158  25.7640852  52.7393436
  72.2314227  16.9754627  60.9877505  71.6867695  17.7514435  61.1197779
  73.1093577  17.3225431  60.8296626  79.0201843  10.3066211  53.3658303
  79.1417755   9.3782857  53.5649191  78.7303886  10.3204896  52.4536619
  81.8893034   7.9921121  56.5025023  81.9114731   8.0560454  55.5477003
  82.3061093   7.1525630  56.6965529  92.2676658  17.7276380  54.5404246
  92.7107804  16.9783706  54.1423369  91.3903168  17.7186517  54.1577978
  87.4012439  24.2806722  50.0210844  88.0963344  24.9013415  50.2398159
  87.7435590  23.4302073  50.2963222  73.0180249  16.1024523  63.8807662
  72.2761985  16.2507158  64.4672292  72.6972993  16.3632789  63.0174411
  89.3003863  21.7306427  51.5498175  89.8255187  22.0693700  50.8247495
  89.2126215  20.7953443  51.3661310  80.9623911  25.6440501  63.6788052
  81.2711038  25.3989648  64.5510751  81.7599393  25.8487140  63.1906922
  80.9844523  27.7978411  55.9093428  80.5449514  27.3054789  56.6026285
  81.7352640  27.2551378  55.6685504  73.4636862  23.9889952  55.9118056
  74.2894882  23.6893723  55.5316700  73.1130914  23.2197574  56.3607845
  78.4318395  23.3416420  57.9815730  77.8098405  22.6787125  57.6817958
  79.1023262  23.3677552  57.2989378  71.6645467  21.9076278  56.8706990
  70.8277376  21.4798452  56.6890991  71.6369113  22.1008721  57.8077781
  78.5042923  11.8198208  67.5748236  78.5531078  12.6960331  67.1926006
  79.0465437  11.2775601  67.0019879  88.9897769  22.3639331  66.8549373
  88.1993312  22.3463470  66.3153873  88.7531123  22.9027625  67.6098410
  89.1095644  19.2131797  64.1682102  89.1593649  19.0481805  65.1097624
  89.0009567  18.3459057  63.7779982  77.9931902  21.8920343  51.4574191
  78.1420023  22.5755808  50.8040863  78.7998346  21.8725433  51.9723646
  86.3999406  15.1962726  65.4841408  87.3009269  15.0569190  65.1925406
  86.4747381  15.3617180  66.4239586  80.7342211  12.5729580  64.3294595
  79.8645521  12.8663146  64.0577183  80.9701692  13.1570025  65.0501858
  90.6113840  21.6328739  64.4124123  90.3198649  21.9958720  65.2487584
  89.9985972  20.9195747  64.2337455  91.8109523  19.1981619  56.9326693
  92.6456414  19.6371423  57.0964254  91.9468652  18.7220272  56.1134939
  88.8601029  16.7561354  62.8804181  89.3355150  16.9489000  62.0723033
  87.9366594  16.8120539  62.6347565  75.7484535  17.9185521  52.4635259
  75.5030577  17.0147851  52.6615470  75.9180450  17.9202671  51.5214737
  83.4381245   8.7909197  61.8460015  83.9563189   9.5270224  61.5206504
  83.0836378   9.0973190  62.6806774  75.0180183  13.6513878  49.9621421
  74.3249428  13.7258233  49.3061457  74.7731935  12.8874222  50.4842938
  83.6893839   5.2109480  57.3660912  83.9695593   4.5432669  57.9921338
  84.4744446   5.4038575  56.8535575  81.4927308  24.3868474  48.9285938
  80.9201275  25.0058661  48.4756410  82.0660102  24.9367835  49.4625860
  87.5602698  13.6327114  61.1132487  88.5120121  13.7325211  61.1344711
  87.3906148  12.8405382  61.6230571  85.5817077  10.7182697  61.2991888
  84.9867009  10.9987710  60.6038376  85.2966774  11.2076598  62.0708629
  84.7124568  24.6705624  50.0594520  85.6455241  24.6051185  50.2627396
  84.6247780  25.5061891  49.6009053  87.3412584  23.9871494  47.0198468
  87.2626216  23.6531358  47.9134226  88.1622251  24.4793262  47.0189940
  90.0390775  16.8533233  60.2274786  90.0067096  15.9149234  60.4134470
  90.6491399  16.9317270  59.4940611  81.8774106  15.7229286  46.2701990
  82.8233211  15.5935494  46.3390408  81.4988351  14.9843948  46.7471419
  90.1885264  13.6444277  60.2733070  89.6724313  12.8602733  60.0862998
  91.0725212  13.3162993  60.4379589  87.8495991   7.3885292  56.2328882
  87.6520812   7.0800381  57.1172214  88.4595696   8.1146931  56.3626812
  95.8567325  17.9149240  59.3680823  96.5870714  17.6534528  59.9288527
  95.2474271  17.1777962  59.4082891  93.9382622  16.0557103  59.9655274
  93.2115786  15.9213068  59.3571766  93.5229909  16.3633931  60.7711992
  81.7612799  19.7747033  67.7302647  82.6815808  19.9525632  67.9242694
  81.7262382  18.8303078  67.5782347  80.0617024  13.6479263  46.2056876
  79.1548479  13.3512375  46.2819589  80.3393005  13.3509081  45.3391162
  70.9794964  14.9685626  56.6555922  70.6597748  14.1150934  56.3630296
  70.4328392  15.1834204  57.4113889  74.7574871  17.6848067  60.3725429
  74.9760881  18.6165175  60.3913462  75.1700645  17.3256042  61.1580232
  81.6779089   8.1916152  52.3601117  80.8679818   7.8463237  52.7356363
  82.3663506   7.8823696  52.9488729  83.6069638   7.2694199  53.9825414
  84.1600676   7.6889653  54.6415437  83.8439724   6.3429947  54.0248370
  79.6302737  13.2581273  69.7628178  79.5299464  14.2075630  69.6940269
  79.4124279  12.9299512  68.8904248  78.8315808  10.5066198  46.3468855
  79.6934972  10.8321096  46.6064672  79.0166152   9.7197694  45.8341921
  70.8483224  18.5888538  58.6249044  70.1546695  18.1742490  58.1118998
  71.5956215  18.6309074  58.0282463  86.9848445   9.3794724  53.4904078
  86.4047114  10.0379528  53.1082130  86.7184377   8.5572069  53.0791495
  85.4352011   8.7799782  55.6925398  85.9351789   8.8916317  54.8839717
  86.0787619   8.4760835  56.3326207  79.4934007  16.6878412  68.5793239
  79.0101089  17.4878772  68.7857128  79.5794946  16.6986357  67.6260683
  72.7619966  18.5206791  56.5015059  72.7390655  18.6194479  55.5496942
  73.0720603  19.3671942  56.8232225  75.4207344  20.5782946  60.6161673
  76.3750598  20.5466889  60.5491605  75.2219868  20.1173570  61.4311899
  76.0106726  19.1484063  63.1832471  76.8299615  19.6428141  63.2067308
  76.2843534  18.2316031  63.1550038  85.7673323  11.5394815  52.5460426
  84.8799178  11.8244465  52.3280621  86.1827312  11.3788578  51.6987703
  89.1187859  11.5641336  56.2614765  89.8948249  12.0537788  56.5339382
  88.3935993  11.9899390  56.7186635  91.5560417  12.2768955  57.3188706
  92.1504908  12.0364691  56.6082014  91.6287001  11.5576086  57.9462242
  73.7757573  26.1202566  57.6331871  73.6412041  25.3602967  57.0669869
  73.3589635  26.8443466  57.1660660  84.9116536  21.3039490  46.6408446
  85.6152386  21.5089492  47.2566102  84.1879185  21.8716251  46.9057530
  85.7414346  17.0549351  52.7610716  85.6849548  17.5117902  51.9218349
  86.2942689  16.2940035  52.5833559  89.5519152  12.8439083  53.5860836
  89.2956087  12.4435718  54.4169043  88.9272020  13.5582877  53.4610975
  93.8631490  15.5835156  56.0932127  93.3031048  15.6528345  56.8663689
  93.2574994  15.4076141  55.3731623  76.9326699  27.0171883  57.8450313
  76.8159083  27.9617315  57.7429004  76.1119145  26.7145445  58.2336113
  86.8203233  21.7422019  48.6906906  87.6548837  21.3103217  48.5084381
  86.6587576  21.5704032  49.6183801  86.4749126  18.2454132  50.0563245
  86.4197929  18.0798403  49.1151690  85.8495181  18.9530165  50.2125435
  71.2641641  13.4822196  63.8824668  71.9100504  12.9721150  64.3711893
  71.0558792  14.2190878  64.4568093  83.7895033  20.5503044  69.3816808
  84.6586192  20.7243696  69.0203443  83.3101784  21.3697461  69.2592538
  79.7845251   7.7462241  49.6348564  79.7723921   8.6904081  49.7916835
  80.6768673   7.5632386  49.3408025  77.9581213  27.6700145  61.0606242
  78.8608460  27.7023755  61.3772737  77.7318583  26.7400596  61.0752578
  79.7134815  26.4231131  57.7216321  78.7630446  26.4232993  57.6080693
  80.0167301  25.6763866  57.2052355  83.5997371   4.3405018  53.8894501
  82.8329766   3.7863504  54.0351183  84.0108076   4.4126886  54.7508652
  75.6039132  10.6289813  67.9799682  76.4670593  10.2726618  68.1903007
  75.0304542  10.2903708  68.6675086  95.4487509  32.2591670  58.7862083
  96.0865919  32.1398417  58.0825423  95.3308351  33.2072514  58.8450035
  92.2577215  32.2119098  58.7223608  91.9195726  32.0960163  57.8344142
  93.1266983  31.8110263  58.7024614  88.1164031  34.0654574  54.7120499
  87.5528896  33.9744511  53.9436786  88.0016426  33.2454479  55.1922991
  92.7396998  33.3653950  64.6809813  92.7285639  32.9706748  63.8090317
  92.9017637  32.6320022  65.2743585  85.6628462  35.5605766  57.5504719
  86.4549754  35.2196591  57.1351018  85.9025113  35.6700741  58.4706872
  93.6963589  37.7325542  50.0234963  93.0451569  38.3179622  49.6368977
  94.4907952  38.2631737  50.0830001  87.6219216  34.8214679  50.4222098
  88.3950092  34.2743666  50.2834974  87.9744615  35.6858929  50.6336559
  89.4604259  36.1491061  63.6288997  89.1694125  37.0536692  63.5135663
  90.0961243  36.1907589  64.3433067  90.3860466  33.5267910  60.2190357
  90.9824038  33.3023932  59.5047320  90.4435437  32.7852655  60.8215805
  89.9585494  30.9807345  48.0540548  90.2111015  30.4588867  47.2924011
  89.0210053  30.8173491  48.1567231  95.0028777  29.9843124  55.8615291
  95.7891866  29.5662547  55.5105708  95.2667481  30.8889216  56.0296939
  95.1738854  35.4215974  50.5603948  94.5384687  35.4950600  51.2724852
  94.8436261  36.0109573  49.8823027 100.4037204  29.9218357  56.7648269
 101.1362376  29.3517574  56.9986099  99.6476560  29.5339957  57.2054775
  89.6781783  32.8835451  50.2564923  89.5618041  32.2080355  50.9246007
  89.7884043  32.3967825  49.4397076  92.0213324  32.3445598  53.9611612
  91.6571531  31.8176219  54.6724533  92.8780440  31.9544067  53.7878097
  97.9262625  23.6339931  61.2242878  97.5945949  24.5035342  61.0004093
  97.3308238  23.3176215  61.9036908  91.6618811  27.3735498  48.9572960
  91.8293213  28.2415734  49.3243431  91.4715980  27.5362780  48.0334250
  94.4194144  35.8352477  60.6238791  94.1194867  36.7377516  60.5154598
  94.0745204  35.5684660  61.4759944  87.8706626  32.2866274  56.6575495
  86.9457122  32.1542488  56.8653187  88.1191039  33.0660493  57.1545438
  97.8191288  28.3535017  58.3036228  96.9108165  28.2850426  58.0094989
  97.7678884  28.8306962  59.1318054  91.6408032  29.8293156  49.9419627
  91.5207657  30.2750206  50.7805108  90.9460620  30.1778473  49.3833165
  85.2315437  31.9299547  57.4919284  85.3607818  32.1834026  58.4058696
  84.5512888  32.5227255  57.1723939  89.4014924  42.5996797  53.5909759
  89.3238954  43.5504622  53.6698239  88.7976567  42.2542670  54.2484685
  91.8932154  29.7724663  66.2471125  91.1165488  30.3318583  66.2373990
  92.5322717  30.2581446  66.7685996  99.6852934  26.5551456  60.0814102
  99.0427315  26.8483989  59.4353897  99.1807863  26.4404376  60.8867299
  97.3393098  30.3014629  50.7699961  98.2510954  30.5342015  50.5947659
  96.8302745  30.8851673  50.2075040  90.1478526  32.5810116  65.8089092
  90.8893210  33.1195160  65.5323916  89.4415511  33.2076405  65.9660644
  95.6233866  34.7239257  64.4061254  96.0317222  34.2821667  63.6615886
  94.9011127  34.1491884  64.6595447  91.9764936  29.6611863  61.7794811
  92.8226131  30.0851277  61.9229460  91.9163573  29.0045488  62.4733374
  95.9462680  35.2840447  58.1613543  95.3171543  35.4486161  57.4589611
  95.5588342  35.6982057  58.9324507  99.8251912  36.2194885  55.5157907
  99.1402950  36.5993786  54.9654940  99.9095761  36.8290212  56.2489854
  95.1264381  27.3216232  63.4375984  94.8825313  28.0758292  62.9010260
  95.4024311  27.7001579  64.2723232  97.0802844  33.8654844  62.1153250
  97.2919739  34.5086604  61.4387631  97.0332592  33.0317161  61.6475180
  94.6829073  26.4772665  59.0189822  93.8213552  26.7753918  59.3106560
  94.7091507  26.6943064  58.0870855  91.4990642  35.0214855  55.4263628
  91.9628988  35.3002558  54.6368250  91.2347440  34.1198300  55.2436719
  88.3914723  34.5686337  58.3643391  88.9616080  34.9973605  57.7260876
  88.9822835  34.2868922  59.0627577  90.4359528  31.1438008  52.2353193
  91.1383572  31.5959051  52.7027119  90.1040157  30.5021827  52.8633086
  88.8839890  29.7349764  66.6104402  88.2538550  30.4166045  66.8439799
  88.7775978  29.6232846  65.6657541  84.1784862  29.4021560  57.5370327
  83.3883916  29.6579089  57.0610437  84.6696110  30.2169898  57.6422367
  98.1948672  36.7426799  60.2875607  99.0166115  36.3406987  60.0058289
  98.1911075  36.6395034  61.2391723  86.1299608  29.7666140  54.4953803
  85.3330771  29.8784834  55.0137299  85.9025200  30.1052792  53.6294694
  91.9605275  36.2910843  62.4436318  92.0249708  36.7531250  63.2794490
  91.2516199  35.6608208  62.5718628  82.4622565  29.6552051  59.9685317
  82.7130604  30.5399061  60.2342893  82.9982114  29.4756652  59.1960409
 106.2854665  33.0865548  56.6360579 105.5318373  32.5172946  56.4804583
 106.4202206  33.0528212  57.5831214  91.6753293  37.9578950  52.3115298
  91.5398968  38.8030486  52.7400146  92.2163105  38.1598228  51.5481232
  88.1620632  24.0370530  68.9729653  87.7687578  23.4836729  69.6477298
  88.9786773  24.3481109  69.3636171  85.1282690  35.4754388  52.8843223
  85.6407211  36.2697639  53.0348788  85.7805403  34.7780679  52.8176825
  86.9377575  38.5920145  54.9665976  87.1144203  39.5138109  54.7786960
  87.7334408  38.2778564  55.3960356  91.0788593  25.4528409  66.5649910
  91.8198307  26.0535562  66.4854372  91.3106516  24.7106047  66.0067953
  86.2229931  30.6384776  64.8428140  86.1083447  29.7370034  65.1435239
  85.3674449  30.8848473  64.4912956  93.3021769  38.5802517  66.4415640
  92.8585623  37.7938895  66.1236545  93.9638983  38.7681667  65.7759531
  88.0608890  40.1098318  60.9676319  88.6116315  39.9815382  60.1953313
  87.2220366  40.4093207  60.6171212  95.4003007  38.8605317  64.4697042
  95.3821483  39.6814198  63.9777311  96.3222927  38.7359392  64.6947183
  91.8576061  36.3749446  65.3120550  92.3904398  35.6137734  65.0819858
  91.3290142  36.0823098  66.0544704  95.0245756  21.4809512  60.8414192
  94.6810026  22.3711154  60.7653302  95.3924719  21.2911170  59.9783777
  83.0931607  33.8043043  53.6602794  83.9306829  34.2140051  53.4436502
  83.2709875  32.8642485  53.6302988  94.9896039  31.4718123  49.3486627
  94.4742663  32.2422728  49.5875014  94.7173348  30.7983259  49.9719688
  92.5743150  26.3167824  54.4071865  91.7184746  25.9274674  54.2277504
  92.9870102  26.3959785  53.5471651  94.1042297  23.8514167  58.8063425
  93.6007092  23.8144302  57.9931230  94.3972904  24.7606910  58.8660082
  90.3485183  23.9352897  57.8129607  91.2138179  23.7395706  57.4535496
  90.4162692  23.7063249  58.7398963  99.9630313  34.2250478  51.2839800
  99.1859756  33.8861637  50.8394962 100.6421794  34.2303101  50.6094765
  94.7782342  29.3445215  51.1746408  94.4732478  29.6591365  52.0256551
  95.7312784  29.4226635  51.2173741  93.2228774  35.5035439  52.8239362
  92.6950136  34.7688198  52.5112599  92.7216277  36.2810115  52.5779330
  98.2021620  33.6984459  57.9406408  97.5445295  34.3883721  58.0286537
  99.0062019  34.0880891  58.2840395  87.9547502  26.1655105  55.1845973
  88.5291254  25.9430286  54.4519166  88.5418484  26.2343799  55.9374575
  97.0127079  32.0528832  55.9910350  97.5258961  32.6858824  56.4932060
  97.6628303  31.4530027  55.6253710  88.2817089  28.1959566  49.2041859
  87.4454401  28.5334253  49.5251133  88.1421858  28.0608546  48.2668996
  90.2570169  23.0396354  53.9121043  89.6034582  22.7245371  53.2877658
  90.2150644  22.4172094  54.6380866  91.3681374  33.3215649  45.8274335
  90.4608436  33.0904902  46.0265484  91.8652406  32.5253268  46.0148317
  94.2749453  42.0313156  48.7471021  93.6011152  42.3344853  49.3555979
  94.6615275  42.8342236  48.3976478  93.4907910  29.5278287  58.2368691
  92.5730471  29.7493234  58.0790379  93.9068053  29.6024598  57.3780398
  94.2742958  30.9269703  53.3671371  95.0214776  31.4391100  53.0578493
  94.5434547  30.6053756  54.2275764  92.5469608  33.4228244  50.3498325
  91.6380827  33.1387277  50.4470795  92.5764692  33.8427322  49.4901632
  97.7788875  37.0334833  54.1189493  97.3251202  36.1925743  54.1754683
  97.1482842  37.6696232  54.4564273  96.7221795  27.9626819  55.3490160
  95.9844551  27.4504206  55.6800403  96.9748568  27.5227201  54.5373437
  96.2221814  38.8711330  55.0539311  96.5144789  39.4316387  54.3351676
  96.7320435  39.1639891  55.8092470  96.8233422  20.7403071  55.9431929
  97.1292299  19.8800435  55.6557844  97.5486027  21.3320692  55.7430923
  83.1157778  31.1433758  54.3313527  82.9182178  30.5503119  53.6064594
  82.5604442  30.8385968  55.0489466  91.0954502  31.0356864  56.4508120
  91.1503112  30.0830701  56.3750597  90.2845704  31.1916304  56.9349419
  92.2445696  34.9636987  47.6886404  91.8065125  34.2472846  47.2292041
  92.9856136  35.1913102  47.1271495  89.0346862  29.6533924  54.2098499
  88.2214727  29.9528095  54.6163691  89.5305856  29.2589613  54.9272982
  91.1855440  39.6491681  56.1432764  91.1431618  39.8752527  55.2141296
  92.1018138  39.4155056  56.2918565  94.6321073  30.1175749  63.0413393
  94.9870461  30.3447222  63.9007859  95.2793205  30.4494125  62.4190649
 100.3618810  33.2394185  53.7462722 100.2236709  33.4295780  52.8183911
 100.0055029  34.0013567  54.2030773  88.5260936  27.2252280  59.8259734
  89.1660316  27.0841039  59.1282698  87.6938467  26.9386793  59.4498336
 100.3888190  35.3070712  58.7573994 100.8224697  35.2146001  59.6057048
 101.1019771  35.2828212  58.1194010  89.3021240  36.5254710  55.9394727
  90.0961839  36.0305030  55.7377302  88.5912933  35.9972573  55.5762432
  94.1216085  38.9072806  60.2907094  94.1753107  39.4763742  61.0584810
  93.2530866  39.0774691  59.9261131  85.6104004  30.6697792  52.0154479
  84.6801592  30.6082247  52.2324442  85.7061476  30.1473745  51.2191121
  85.5289553  27.1952605  54.6032721  85.7896370  28.1097938  54.4941882
  86.3506725  26.7277047  54.7529334  87.0014478  28.6090362  61.7731546
  87.6737532  28.4007724  61.1244195  86.1744265  28.4112448  61.3336778
 101.2503739  35.3494412  61.2906879 101.4439630  36.2540223  61.5366154
 101.1504358  34.8901831  62.1245464  92.9040050  25.2352303  63.7897206
  92.2567965  25.9342252  63.6961683  93.6741066  25.6688447  64.1573455
  96.3118848  35.5001155  66.8647760  96.1604355  35.2711707  65.9477843
  96.3023528  36.4571756  66.8779105  93.0804185  33.0733068  61.8494026
  94.0096245  33.2244227  61.6762994  92.6595215  33.1617088  60.9942673
  91.8792516  37.0983732  59.6192564  91.7403602  36.7302516  60.4918502
  91.0907113  37.6131372  59.4476522  92.4740668  42.1992829  50.9618100
  92.6492424  41.7280872  51.7763723  91.7873456  42.8258595  51.1899361
  93.4297731  36.4765335  57.0081402  93.0947564  36.4366105  57.9039051
  92.9301677  35.8110051  56.5351812  87.4041975  31.8832965  62.5333983
  87.2661773  31.1513204  63.1345522  88.3146899  31.7941865  62.2518171
  96.3656923  33.8221369  47.2818461  95.7486094  33.0968197  47.1851514
  95.8973412  34.5830729  46.9385536  90.0324276  31.5952924  62.0217662
  90.7423895  30.9546116  61.9804281  89.9893584  31.8465819  62.9443843
  98.0211055  38.5320277  64.9424242  97.9623601  37.8479498  64.2754825
  98.4230573  39.2739267  64.4904868  88.7453210  28.5818142  63.8413302
  88.2090567  28.1308880  64.4934898  88.1569919  28.7164051  63.0983766
  87.0401754  45.3482191  57.7357961  87.2798352  45.9800715  58.4136979
  86.1970950  44.9970231  58.0223320  88.1555469  28.0406793  46.4039766
  87.2784935  27.9195594  46.0402012  88.6313222  27.2492872  46.1518654
  98.0228462  36.4959861  63.1738221  97.1355241  36.1585783  63.2964620
  98.5927013  35.7642893  63.4106987  79.6757609  32.8283953  56.4981273
  80.3628649  32.5145683  55.9102288  79.5205738  33.7325318  56.2248524
  84.4792331  27.7174150  60.9266296  84.3950520  27.1099819  60.1916706
  83.6575038  28.2083168  60.9275793  91.5529615  41.1561314  60.1399465
  91.4799787  41.9616285  60.6518769  91.1107009  41.3553280  59.3147486
  91.3419395  40.3933084  53.6502286  90.5586917  40.9354764  53.7440511
  92.0412140  40.9107063  54.0496527  94.6516045  26.2027713  56.2936491
  95.1484745  25.4497676  55.9737562  93.8803027  26.2392030  55.7279701
 102.5045803  31.9068079  57.9354783 102.4935679  32.7892794  57.5648716
 101.6363182  31.5539630  57.7409320  94.0128299  41.0548148  62.2957623
  94.7256271  41.6895613  62.2233525  93.5218328  41.1512014  61.4797625
  95.7345826  34.9599400  53.8674915  94.8002105  35.0800863  53.6979619
  95.9122494  34.0571867  53.6034925  91.2351014  28.3445096  56.0208176
  90.8648801  27.7916137  56.7089082  91.7310106  27.7403230  55.4683176
  99.1218377  30.8016720  54.4024949  99.5878829  31.6344711  54.3285252
  99.5725878  30.3361701  55.1070207  89.0640213  38.8042591  63.1163194
  89.7649672  39.4379074  63.2692588  88.5935328  39.1457323  62.3558833
  97.1894608  37.1460541  51.4011101  97.4654452  37.0317136  52.3104975
  96.3199107  36.7478026  51.3623274  97.0935040  23.1697307  58.4415850
  96.1798120  23.4001534  58.6098057  97.5228141  23.2535751  59.2929883
  96.8641498  31.3587199  60.9415744  96.2112949  31.6063106  60.2868197
  97.2421878  30.5451337  60.6078222  93.8248672  41.3946892  55.0443915
  94.0071067  40.5768548  55.5071667  94.6481658  41.6114584  54.6068805
  94.1590838  40.3215077  52.3058963  94.6878604  39.8107532  51.6929125
  94.4219057  40.0057607  53.1704496  92.9129072  32.1007010  67.4281781
  92.2369709  32.0001139  68.0984157  93.7356705  31.9446224  67.8917779
  84.6607931  38.3378946  60.0494297  85.2461367  37.5922634  60.1822201
  84.4632769  38.6482903  60.9330961  87.5146586  41.3730194  55.0656739
  86.8456961  41.8576321  54.5820779  87.3759455  41.6199414  55.9800118
  79.2525585  30.9084547  58.7698740  79.2909685  30.3748137  59.5635858
  78.7465878  30.3819752  58.1509717  91.6551854  43.4073937  61.6639397
  92.2070162  43.5705559  62.4288483  91.9958048  43.9978375  60.9919422
  86.6316348  25.7549087  62.2661282  86.6957674  26.6163918  61.8538680
  86.5683468  25.1423089  61.5333641  86.1068620  27.8272220  65.9134316
  86.7340659  27.4449297  66.5271841  85.2496539  27.6086421  66.2790009
  96.5062729  38.2335195  67.5188052  97.0502633  38.8465153  67.0243007
  95.9249574  38.7914773  68.0355065  82.8834163  29.6348649  51.8452671
  83.1787604  28.7259327  51.7919725  81.9822199  29.6136388  51.5233674
  94.7920242  41.3555913  58.6503080  94.6671381  40.5545653  58.1414025
  95.4499333  41.8502106  58.1617050  86.4128410  27.7104645  57.8280220
  85.6914996  28.3240613  57.6887693  87.2021666  28.2462410  57.7496866
  96.8555150  39.1564933  60.2782630  95.9085486  39.0370284  60.2060956
  97.2037923  38.2687431  60.3608891  89.2154723  25.0459072  64.1020872
  89.7389125  25.2921368  64.8647181  88.9967057  25.8779107  63.6824009
  84.6122004  27.3162746  51.9691996  84.2834711  26.4360125  51.7867102
  84.9661375  27.2610415  52.8568386  93.8601583  38.9517649  56.4786982
  93.7126546  38.0234356  56.6594552  94.6855077  38.9737740  55.9944057
  87.7263828  27.6035716  52.3367474  88.0659900  28.1321637  51.6146082
  88.1735948  27.9416122  53.1126041  97.4635705  39.7746208  57.5651855
  98.3882253  39.5689069  57.4276306  97.2951009  39.5262609  58.4741196
  90.4207268  25.9872767  61.7870542  90.0804089  25.1880580  62.1891222
  89.7146275  26.2874478  61.2147375  91.0723740  23.0722079  60.2397865
  91.8949810  22.5982557  60.1176755  91.3161804  23.8512563  60.7396551
  89.7131975  26.1010338  50.5360767  90.4340337  26.4791591  50.0324484
  89.0897279  26.8199215  50.6395745  93.8563098  26.8055487  51.4719099
  94.0726712  27.6880125  51.1707927  93.3757165  26.4141700  50.7424741
  88.5962319  29.7641200  58.0489844  88.4506900  30.0781503  58.9414125
  88.1187523  30.3826100  57.4960742  90.4558702  26.7543748  58.0970733
  90.4420271  25.8584841  57.7603031  91.1731130  26.7614412  58.7309019
  92.3084833  27.1881088  60.1423861  92.0502610  28.1098159  60.1408191
  91.7769873  26.7911523  60.8324325  97.2531021  40.2931875  52.9213946
  97.4267899  39.7278298  52.1687799  97.7459913  41.0932770  52.7393436
  83.0707981  32.3046544  60.9877505  82.5261449  33.0806352  61.1197779
  83.9487331  32.6517349  60.8296626  89.8595598  25.6358128  53.3658303
  89.9811509  24.7074774  53.5649191  89.5697640  25.6496814  52.4536619
  92.7286788  23.3213039  56.5025023  92.7508485  23.3852372  55.5477003
  93.1454847  22.4817547  56.6965529 103.1070413  33.0568298  54.5404246
 103.5501559  32.3075623  54.1423369 102.2296923  33.0478435  54.1577978
  98.2406194  39.6098640  50.0210844  98.9357099  40.2305332  50.2398159
  98.5829344  38.7593991  50.2963222  83.8574003  31.4316441  63.8807662
  83.1155739  31.5799076  64.4672292  83.5366747  31.6924706  63.0174411
 100.1397617  37.0598345  51.5498175 100.6648941  37.3985618  50.8247495
 100.0519970  36.1245360  51.3661310  91.8017666  40.9732419  63.6788052
  92.1104792  40.7281566  64.5510751  92.5993148  41.1779057  63.1906922
  91.8238278  43.1270328  55.9093428  91.3843268  42.6346707  56.6026285
  92.5746395  42.5843296  55.6685504  84.3030617  39.3181869  55.9118056
  85.1288637  39.0185641  55.5316700  83.9524669  38.5489492  56.3607845
  89.2712150  38.6708338  57.9815730  88.6492159  38.0079043  57.6817958
  89.9417017  38.6969469  57.2989378  82.5039222  37.2368196  56.8706990
  81.6671130  36.8090370  56.6890991  82.4762867  37.4300639  57.8077781
  89.3436677  27.1490126  67.5748236  89.3924833  28.0252248  67.1926006
  89.8859192  26.6067519  67.0019879  99.8291523  37.6931249  66.8549373
  99.0387067  37.6755388  66.3153873  99.5924878  38.2319542  67.6098410
  99.9489398  34.5423715  64.1682102  99.9987403  34.3773723  65.1097624
  99.8403321  33.6750974  63.7779982  88.8325657  37.2212261  51.4574191
  88.9813777  37.9047725  50.8040863  89.6392100  37.2017351  51.9723646
  97.2393161  30.5254643  65.4841408  98.1403023  30.3861108  65.1925406
  97.3141135  30.6909098  66.4239586  91.5735966  27.9021498  64.3294595
  90.7039275  28.1955064  64.0577183  91.8095446  28.4861943  65.0501858
 101.4507595  36.9620657  64.4124123 101.1592403  37.3250637  65.2487584
 100.8379726  36.2487665  64.2337455 102.6503277  34.5273536  56.9326693
 103.4850169  34.9663341  57.0964254 102.7862406  34.0512190  56.1134939
  99.6994783  32.0853271  62.8804181 100.1748905  32.2780918  62.0723033
  98.7760349  32.1412457  62.6347565  86.5878290  33.2477438  52.4635259
  86.3424332  32.3439768  52.6615470  86.7574204  33.2494589  51.5214737
  94.2775000  24.1201115  61.8460015  94.7956944  24.8562142  61.5206504
  93.9230132  24.4265108  62.6806774  85.8573937  28.9805796  49.9621421
  85.1643182  29.0550151  49.3061457  85.6125689  28.2166140  50.4842938
  94.5287594  20.5401397  57.3660912  94.8089348  19.8724586  57.9921338
  95.3138201  20.7330493  56.8535575  92.3321062  39.7160391  48.9285938
  91.7595029  40.3350578  48.4756410  92.9053856  40.2659753  49.4625860
  98.3996452  28.9619031  61.1132487  99.3513875  29.0617129  61.1344711
  98.2299903  28.1697300  61.6230571  96.4210832  26.0474615  61.2991888
  95.8260764  26.3279627  60.6038376  96.1360528  26.5368516  62.0708629
  95.5518322  39.9997541  50.0594520  96.4848995  39.9343103  50.2627396
  95.4641535  40.8353808  49.6009053  98.1806339  39.3163412  47.0198468
  98.1019970  38.9823275  47.9134226  99.0016006  39.8085180  47.0189940
 100.8784530  32.1825151  60.2274786 100.8460850  31.2441152  60.4134470
 101.4885154  32.2609188  59.4940611  92.7167861  31.0521204  46.2701990
  93.6626966  30.9227412  46.3390408  92.3382106  30.3135866  46.7471419
 101.0279018  28.9736195  60.2733070 100.5118067  28.1894651  60.0862998
 101.9118967  28.6454911  60.4379589  98.6889745  22.7177210  56.2328882
  98.4914567  22.4092298  57.1172214  99.2989451  23.4438849  56.3626812
 106.6961080  33.2441158  59.3680823 107.4264468  32.9826446  59.9288527
 106.0868025  32.5069880  59.4082891 104.7776377  31.3849021  59.9655274
 104.0509541  31.2504985  59.3571766 104.3623664  31.6925849  60.7711992
  92.6006553  35.1038950  67.7302647  93.5209563  35.2817549  67.9242694
  92.5656136  34.1594996  67.5782347  90.9010778  28.9771180  46.2056876
  89.9942233  28.6804293  46.2819589  91.1786759  28.6800999  45.3391162
  81.8188718  30.2977544  56.6555922  81.4991503  29.4442852  56.3630296
  81.2722147  30.5126122  57.4113889  85.5968626  33.0139985  60.3725429
  85.8154636  33.9457093  60.3913462  86.0094400  32.6547959  61.1580232
  92.5172844  23.5208070  52.3601117  91.7073572  23.1755155  52.7356363
  93.2057261  23.2115614  52.9488729  94.4463392  22.5986117  53.9825414
  94.9994431  23.0181570  54.6415437  94.6833478  21.6721865  54.0248370
  90.4696491  28.5873191  69.7628178  90.3693218  29.5367548  69.6940269
  90.2518033  28.2591430  68.8904248  89.6709563  25.8358116  46.3468855
  90.5328727  26.1613014  46.6064672  89.8559907  25.0489612  45.8341921
  81.6876978  33.9180455  58.6249044  80.9940450  33.5034408  58.1118998
  82.4349969  33.9600992  58.0282463  97.8242199  24.7086642  53.4904078
  97.2440868  25.3671446  53.1082130  97.5578132  23.8863987  53.0791495
  96.2745765  24.1091700  55.6925398  96.7745544  24.2208234  54.8839717
  96.9181373  23.8052753  56.3326207  90.3327761  32.0170329  68.5793239
  89.8494843  32.8170690  68.7857128  90.4188700  32.0278274  67.6260683
  83.6013721  33.8498709  56.5015059  83.5784409  33.9486396  55.5496942
  83.9114357  34.6963860  56.8232225  86.2601099  35.9074864  60.6161673
  87.2144352  35.8758806  60.5491605  86.0613622  35.4465488  61.4311899
  86.8500481  34.4775980  63.1832471  87.6693370  34.9720059  63.2067308
  87.1237289  33.5607948  63.1550038  96.6067077  26.8686733  52.5460426
  95.7192932  27.1536383  52.3280621  97.0221066  26.7080496  51.6987703
  99.9581613  26.8933253  56.2614765 100.7342003  27.3829706  56.5339382
  99.2329747  27.3191308  56.7186635 102.3954172  27.6060873  57.3188706
 102.9898663  27.3656609  56.6082014 102.4680756  26.8868003  57.9462242
  84.6151328  41.4494484  57.6331871  84.4805795  40.6894885  57.0669869
  84.1983390  42.1735384  57.1660660  95.7510291  36.6331407  46.6408446
  96.4546141  36.8381410  47.2566102  95.0272939  37.2008169  46.9057530
  96.5808101  32.3841268  52.7610716  96.5243302  32.8409820  51.9218349
  97.1336443  31.6231953  52.5833559 100.3912907  28.1731000  53.5860836
 100.1349841  27.7727636  54.4169043  99.7665775  28.8874794  53.4610975
 104.7025245  30.9127074  56.0932127 104.1424803  30.9820263  56.8663689
 104.0968748  30.7368058  55.3731623  87.7720453  42.3463801  57.8450313
  87.6552838  43.2909233  57.7429004  86.9512900  42.0437362  58.2336113
  97.6596988  37.0713936  48.6906906  98.4942592  36.6395135  48.5084381
  97.4981331  36.8995950  49.6183801  97.3142880  33.5746050  50.0563245
  97.2591684  33.4090321  49.1151690  96.6888935  34.2822083  50.2125435
  82.1035395  28.8114114  63.8824668  82.7494259  28.3013068  64.3711893
  81.8952546  29.5482796  64.4568093  94.6288787  35.8794962  69.3816808
  95.4979947  36.0535614  69.0203443  94.1495539  36.6989378  69.2592538
  90.6239006  23.0754159  49.6348564  90.6117675  24.0195999  49.7916835
  91.5162427  22.8924304  49.3408025  88.7974968  42.9992063  61.0606242
  89.7002214  43.0315673  61.3772737  88.5712338  42.0692514  61.0752578
  90.5528570  41.7523049  57.7216321  89.6024201  41.7524911  57.6080693
  90.8561056  41.0055784  57.2052355  94.4391125  19.6696935  53.8894501
  93.6723521  19.1155422  54.0351183  94.8501830  19.7418804  54.7508652
  86.4432886  25.9581731  67.9799682  87.3064348  25.6018536  68.1903007
  85.8698297  25.6195626  68.6675086 106.2881263  47.5883588  58.7862083
 106.9259673  47.4690335  58.0825423 106.1702106  48.5364431  58.8450035
 103.0970969  47.5411016  58.7223608 102.7589481  47.4252080  57.8344142
 103.9660738  47.1402181  58.7024614  98.9557785  49.3946492  54.7120499
  98.3922650  49.3036429  53.9436786  98.8410180  48.5746396  55.1922991
 103.5790752  48.6945867  64.6809813 103.5679393  48.2998666  63.8090317
 103.7411392  47.9611940  65.2743585  96.5022217  50.8897684  57.5504719
  97.2943509  50.5488508  57.1351018  96.7418867  50.9992659  58.4706872
 104.5357344  53.0617460  50.0234963 103.8845324  53.6471540  49.6368977
 105.3301707  53.5923655  50.0830001  98.4612971  50.1506597  50.4222098
  99.2343847  49.6035584  50.2834974  98.8138370  51.0150846  50.6336559
 100.2998013  51.4782979  63.6288997 100.0087879  52.3828610  63.5135663
 100.9354998  51.5199507  64.3433067 101.2254220  48.8559828  60.2190357
 101.8217793  48.6315850  59.5047320 101.2829192  48.1144573  60.8215805
 100.7979249  46.3099263  48.0540548 101.0504769  45.7880784  47.2924011
  99.8603808  46.1465408  48.1567231 105.8422532  45.3135041  55.8615291
 106.6285621  44.8954465  55.5105708 106.1061236  46.2181134  56.0296939
 106.0132609  50.7507892  50.5603948 105.3778442  50.8242518  51.2724852
 105.6830015  51.3401490  49.8823027 111.2430959  45.2510275  56.7648269
 111.9756131  44.6809491  56.9986099 110.4870314  44.8631875  57.2054775
 100.5175537  48.2127369  50.2564923 100.4011796  47.5372272  50.9246007
 100.6277797  47.7259743  49.4397076 102.8607078  47.6737516  53.9611612
 102.4965286  47.1468137  54.6724533 103.7174194  47.2835985  53.7878097
 108.7656379  38.9631849  61.2242878 108.4339704  39.8327260  61.0004093
 108.1701992  38.6468133  61.9036908 102.5012565  42.7027416  48.9572960
 102.6686968  43.5707652  49.3243431 102.3109734  42.8654697  48.0334250
 105.2587899  51.1644395  60.6238791 104.9588622  52.0669433  60.5154598
 104.9138958  50.8976578  61.4759944  98.7100380  47.6158191  56.6575495
  97.7850877  47.4834406  56.8653187  98.9584793  48.3952411  57.1545438
 108.6585042  43.6826935  58.3036228 107.7501920  43.6142343  58.0094989
 108.6072638  44.1598880  59.1318054 102.4801786  45.1585073  49.9419627
 102.3601411  45.6042124  50.7805108 101.7854375  45.5070391  49.3833165
  96.0709191  47.2591465  57.4919284  96.2001572  47.5125944  58.4058696
  95.3906642  47.8519173  57.1723939 100.2408678  57.9288715  53.5909759
 100.1632708  58.8796540  53.6698239  99.6370322  57.5834587  54.2484685
 102.7325908  45.1016580  66.2471125 101.9559242  45.6610501  66.2373990
 103.3716471  45.5873363  66.7685996 110.5246689  41.8843373  60.0814102
 109.8821069  42.1775906  59.4353897 110.0201617  41.7696294  60.8867299
 108.1786852  45.6306546  50.7699961 109.0904709  45.8633933  50.5947659
 107.6696499  46.2143591  50.2075040 100.9872280  47.9102034  65.8089092
 101.7286965  48.4487078  65.5323916 100.2809266  48.5368323  65.9660644
 106.4627620  50.0531174  64.4061254 106.8710976  49.6113585  63.6615886
 105.7404882  49.4783802  64.6595447 102.8158690  44.9903781  61.7794811
 103.6619885  45.4143195  61.9229460 102.7557328  44.3337405  62.4733374
 106.7856435  50.6132365  58.1613543 106.1565297  50.7778079  57.4589611
 106.3982097  51.0273974  58.9324507 110.6645667  51.5486803  55.5157907
 109.9796705  51.9285704  54.9654940 110.7489516  52.1582129  56.2489854
 105.9658135  42.6508149  63.4375984 105.7219067  43.4050210  62.9010260
 106.2418066  43.0293497  64.2723232 107.9196598  49.1946762  62.1153250
 108.1313493  49.8378522  61.4387631 107.8726346  48.3609078  61.6475180
 105.5222827  41.8064582  59.0189822 104.6607306  42.1045836  59.3106560
 105.5485262  42.0234981  58.0870855 102.3384397  50.3506773  55.4263628
 102.8022742  50.6294476  54.6368250 102.0741195  49.4490218  55.2436719
  99.2308478  49.8978255  58.3643391  99.8009835  50.3265523  57.7260876
  99.8216590  49.6160839  59.0627577 101.2753283  46.4729925  52.2353193
 101.9777326  46.9250969  52.7027119 100.9433911  45.8313744  52.8633086
  99.7233644  45.0641682  66.6104402  99.0932305  45.7457963  66.8439799
  99.6169732  44.9524764  65.6657541  95.0178617  44.7313478  57.5370327
  94.2277671  44.9871007  57.0610437  95.5089864  45.5461816  57.6422367
 109.0342426  52.0718717  60.2875607 109.8559870  51.6698904  60.0058289
 109.0304829  51.9686951  61.2391723  96.9693362  45.0958057  54.4953803
  96.1724525  45.2076751  55.0137299  96.7418954  45.4344709  53.6294694
 102.7999030  51.6202760  62.4436318 102.8643462  52.0823168  63.2794490
 102.0909954  50.9900125  62.5718628  93.3016320  44.9843968  59.9685317
  93.5524358  45.8690978  60.2342893  93.8375868  44.8048570  59.1960409
 117.1248419  48.4157466  56.6360579 116.3712128  47.8464864  56.4804583
 117.2595960  48.3820130  57.5831214 102.5147047  53.2870868  52.3115298
 102.3792722  54.1322404  52.7400146 103.0556860  53.4890146  51.5481232
  99.0014387  39.3662448  68.9729653  98.6081332  38.8128646  69.6477298
  99.8180527  39.6773026  69.3636171  95.9676445  50.8046306  52.8843223
  96.4800965  51.5989556  53.0348788  96.6199158  50.1072596  52.8176825
  97.7771329  53.9212062  54.9665976  97.9537958  54.8430027  54.7786960
  98.5728163  53.6070481  55.3960356 101.9182348  40.7820327  66.5649910
 102.6592061  41.3827480  66.4854372 102.1500271  40.0397965  66.0067953
 104.1415524  53.9094434  66.4415640 103.6979378  53.1230813  66.1236545
 104.8032737  54.0973585  65.7759531 106.2396762  54.1897234  64.4697042
 106.2215237  55.0106115  63.9777311 107.1616682  54.0651310  64.6947183
 102.6969816  51.7041364  65.3120550 103.2298153  50.9429652  65.0819858
 102.1683897  51.4115016  66.0544704 105.8639511  36.8101430  60.8414192
 105.5203780  37.7003072  60.7653302 106.2318473  36.6203087  59.9783777
  93.9325361  49.1334960  53.6602794  94.7700583  49.5431969  53.4436502
  94.1103629  48.1934402  53.6302988 105.8289794  46.8010041  49.3486627
 105.3136417  47.5714646  49.5875014 105.5567102  46.1275177  49.9719688
 103.4136905  41.6459742  54.4071865 102.5578501  41.2566592  54.2277504
 103.8263856  41.7251703  53.5471651 104.9436051  39.1806085  58.8063425
 104.4400847  39.1436220  57.9931230 105.2366658  40.0898828  58.8660082
 101.1878937  39.2644815  57.8129607 102.0531934  39.0687623  57.4535496
 101.2556446  39.0355166  58.7398963 110.8024068  49.5542396  51.2839800
 110.0253510  49.2153555  50.8394962 111.4815549  49.5595019  50.6094765
 105.6176097  44.6737133  51.1746408 105.3126232  44.9883282  52.0256551
 106.5706539  44.7518553  51.2173741 104.0622529  50.8327356  52.8239362
 103.5343890  50.0980116  52.5112599 103.5610031  51.6102033  52.5779330
 109.0415375  49.0276377  57.9406408 108.3839049  49.7175638  58.0286537
 109.8455774  49.4172809  58.2840395  98.7941256  41.4947023  55.1845973
  99.3685008  41.2722204  54.4519166  99.3812239  41.5635717  55.9374575
 107.8520833  47.3820750  55.9910350 108.3652715  48.0150741  56.4932060
 108.5022057  46.7821945  55.6253710  99.1210843  43.5251484  49.2041859
  98.2848156  43.8626170  49.5251133  98.9815613  43.3900463  48.2668996
 101.0963924  38.3688272  53.9121043 100.4428336  38.0537289  53.2877658
 101.0544398  37.7464012  54.6380866 102.2075129  48.6507567  45.8274335
 101.3002191  48.4196820  46.0265484 102.7046161  47.8545186  46.0148317
 105.1143208  57.3605074  48.7471021 104.4404906  57.6636771  49.3555979
 105.5009030  58.1634154  48.3976478 104.3301664  44.8570205  58.2368691
 103.4124226  45.0785152  58.0790379 104.7461808  44.9316516  57.3780398
 105.1136712  46.2561621  53.3671371 105.8608531  46.7683018  53.0578493
 105.3828302  45.9345673  54.2275764 103.3863362  48.7520161  50.3498325
 102.4774581  48.4679194  50.4470795 103.4158446  49.1719240  49.4901632
 108.6182630  52.3626751  54.1189493 108.1644957  51.5217661  54.1754683
 107.9876596  52.9988149  54.4564273 107.5615549  43.2918737  55.3490160
 106.8238306  42.7796123  55.6800403 107.8142323  42.8519119  54.5373437
 107.0615569  54.2003248  55.0539311 107.3538543  54.7608305  54.3351676
 107.5714189  54.4931809  55.8092470 107.6627177  36.0694989  55.9431929
 107.9686053  35.2092352  55.6557844 108.3879781  36.6612609  55.7430923
  93.9551533  46.4725676  54.3313527  93.7575932  45.8795036  53.6064594
  93.3998197  46.1677886  55.0489466 101.9348256  46.3648782  56.4508120
 101.9896866  45.4122618  56.3750597 101.1239458  46.5208221  56.9349419
 103.0839450  50.2928905  47.6886404 102.6458880  49.5764764  47.2292041
 103.8249891  50.5205020  47.1271495  99.8740616  44.9825842  54.2098499
  99.0608482  45.2820012  54.6163691 100.3699610  44.5881531  54.9272982
 102.0249194  54.9783599  56.1432764 101.9825373  55.2044445  55.2141296
 102.9411893  54.7446973  56.2918565 105.4714828  45.4467666  63.0413393
 105.8264216  45.6739139  63.9007859 106.1186959  45.7786043  62.4190649
 111.2012565  48.5686102  53.7462722 111.0630463  48.7587698  52.8183911
 110.8448784  49.3305485  54.2030773  99.3654691  42.5544197  59.8259734
 100.0054070  42.4132956  59.1282698  98.5332221  42.2678711  59.4498336
 111.2281944  50.6362629  58.7573994 111.6618451  50.5437918  59.6057048
 111.9413525  50.6120130  58.1194010 100.1414995  51.8546628  55.9394727
 100.9355593  51.3596948  55.7377302  99.4306687  51.3264491  55.5762432
 104.9609839  54.2364723  60.2907094 105.0146862  54.8055660  61.0584810
 104.0924621  54.4066608  59.9261131  96.4497758  45.9989710  52.0154479
  95.5195346  45.9374165  52.2324442  96.5455230  45.4765662  51.2191121
  96.3683307  42.5244522  54.6032721  96.6290125  43.4389856  54.4941882
  97.1900480  42.0568965  54.7529334  97.8408233  43.9382280  61.7731546
  98.5131286  43.7299642  61.1244195  97.0138019  43.7404366  61.3336778
 112.0897494  50.6786330  61.2906879 112.2833384  51.5832140  61.5366154
 111.9898112  50.2193749  62.1245464 103.7433805  40.5644220  63.7897206
 103.0961720  41.2634170  63.6961683 104.5134820  40.9980364  64.1573455
 107.1512603  50.8293073  66.8647760 106.9998109  50.6003624  65.9477843
 107.1417282  51.7863674  66.8779105 103.9197939  48.4024985  61.8494026
 104.8489999  48.5536145  61.6762994 103.4988969  48.4909006  60.9942673
 102.7186271  52.4275650  59.6192564 102.5797357  52.0594434  60.4918502
 101.9300867  52.9423289  59.4476522 103.3134423  57.5284746  50.9618100
 103.4886178  57.0572789  51.7763723 102.6267211  58.1550512  51.1899361
 104.2691486  51.8057252  57.0081402 103.9341319  51.7658022  57.9039051
 103.7695432  51.1401968  56.5351812  98.2435730  47.2124882  62.5333983
  98.1055528  46.4805121  63.1345522  99.1540653  47.1233783  62.2518171
 107.2050678  49.1513287  47.2818461 106.5879848  48.4260115  47.1851514
 106.7367166  49.9122647  46.9385536 100.8718031  46.9244842  62.0217662
 101.5817649  46.2838034  61.9804281 100.8287339  47.1757737  62.9443843
 108.8604809  53.8612195  64.9424242 108.8017355  53.1771415  64.2754825
 109.2624328  54.6031185  64.4904868  99.5846965  43.9110060  63.8413302
  99.0484322  43.4600798  64.4934898  98.9963673  44.0455969  63.0983766
  97.8795508  60.6774109  57.7357961  98.1192106  61.3092633  58.4136979
  97.0364705  60.3262149  58.0223320  98.9949224  43.3698711  46.4039766
  98.1178690  43.2487512  46.0402012  99.4706977  42.5784789  46.1518654
 108.8622217  51.8251779  63.1738221 107.9748995  51.4877701  63.2964620
 109.4320768  51.0934810  63.4106987  90.5151364  48.1575871  56.4981273
  91.2022404  47.8437601  55.9102288  90.3599492  49.0617235  56.2248524
  95.3186086  43.0466067  60.9266296  95.2344275  42.4391737  60.1916706
  94.4968792  43.5375086  60.9275793 102.3923370  56.4853231  60.1399465
 102.3193541  57.2908203  60.6518769 101.9500763  56.6845197  59.3147486
 102.1813150  55.7225001  53.6502286 101.3980671  56.2646682  53.7440511
 102.8805895  56.2398981  54.0496527 105.4909800  41.5319631  56.2936491
 105.9878499  40.7789593  55.9737562 104.7196781  41.5683948  55.7279701
 113.3439557  47.2359996  57.9354783 113.3329433  48.1184712  57.5648716
 112.4756937  46.8831547  57.7409320 104.8522053  56.3840065  62.2957623
 105.5650026  57.0187530  62.2233525 104.3612082  56.4803931  61.4797625
 106.5739580  50.2891318  53.8674915 105.6395859  50.4092781  53.6979619
 106.7516249  49.3863785  53.6034925 102.0744768  43.6737014  56.0208176
 101.7042556  43.1208054  56.7089082 102.5703861  43.0695147  55.4683176
 109.9612132  46.1308637  54.4024949 110.4272584  46.9636629  54.3285252
 110.4119632  45.6653619  55.1070207  99.9033967  54.1334509  63.1163194
 100.6043426  54.7670992  63.2692588  99.4329082  54.4749240  62.3558833
 108.0288363  52.4752459  51.4011101 108.3048207  52.3609053  52.3104975
 107.1592862  52.0769944  51.3623274 107.9328794  38.4989224  58.4415850
 107.0191874  38.7293451  58.6098057 108.3621896  38.5827668  59.2929883
 107.7035253  46.6879116  60.9415744 107.0506703  46.9355024  60.2868197
 108.0815633  45.8743255  60.6078222 104.6642427  56.7238810  55.0443915
 104.8464821  55.9060465  55.5071667 105.4875413  56.9406502  54.6068805
 104.9984592  55.6506995  52.3058963 105.5272359  55.1399449  51.6929125
 105.2612812  55.3349525  53.1704496 103.7522826  47.4298927  67.4281781
 103.0763463  47.3293057  68.0984157 104.5750460  47.2738141  67.8917779
  98.3540340  56.7022111  55.0656739  97.6850716  57.1868239  54.5820779
  98.2153210  56.9491332  55.9800118  90.0919340  46.2376464  58.7698740
  90.1303439  45.7040055  59.5635858  89.5859633  45.7111670  58.1509717
 102.4945609  58.7365855  61.6639397 103.0463917  58.8997476  62.4288483
 102.8351802  59.3270293  60.9919422  97.4710102  41.0841005  62.2661282
  97.5351429  41.9455836  61.8538680  97.4077222  40.4715006  61.5333641
  96.9462375  43.1564137  65.9134316  97.5734413  42.7741215  66.5271841
  96.0890293  42.9378339  66.2790009 107.3456483  53.5627112  67.5188052
 107.8896387  54.1757071  67.0243007 106.7643328  54.1206691  68.0355065
  93.7227917  44.9640566  51.8452671  94.0181358  44.0551245  51.7919725
  92.8215953  44.9428306  51.5233674 105.6313996  56.6847830  58.6503080
 105.5065136  55.8837570  58.1414025 106.2893087  57.1794024  58.1617050
  97.2522164  43.0396563  57.8280220  96.5308750  43.6532531  57.6887693
  98.0415420  43.5754328  57.7496866 107.6948905  54.4856851  60.2782630
 106.7479240  54.3662202  60.2060956 108.0431678  53.5979349  60.3608891
 100.0548478  40.3750989  64.1020872 100.5782880  40.6213286  64.8647181
  99.8360811  41.2071024  63.6824009  95.4515759  42.6454664  51.9691996
  95.1228465  41.7652043  51.7867102  95.8055130  42.5902333  52.8568386
 104.6995338  54.2809567  56.4786982 104.5520300  53.3526274  56.6594552
 105.5248831  54.3029657  55.9944057  98.5657582  42.9327634  52.3367474
  98.9053655  43.4613555  51.6146082  99.0129703  43.2708040  53.1126041
 108.3029460  55.1038125  57.5651855 109.2276007  54.8980987  57.4276306
 108.1344763  54.8554527  58.4741196 101.2601023  41.3164685  61.7870542
 100.9197843  40.5172498  62.1891222 100.5540029  41.6166395  61.2147375
 101.9117495  38.4013997  60.2397865 102.7343564  37.9274475  60.1176755
 102.1555558  39.1804481  60.7396551 100.5525729  41.4302255  50.5360767
 101.2734092  41.8083508  50.0324484  99.9291033  42.1491132  50.6395745
 104.6956852  42.1347404  51.4719099 104.9120467  43.0172042  51.1707927
 104.2150919  41.7433618  50.7424741  99.4356074  45.0933118  58.0489844
  99.2900654  45.4073421  58.9414125  98.9581277  45.7118018  57.4960742
 101.2952456  42.0835666  58.0970733 101.2814025  41.1876759  57.7603031
 102.0124885  42.0906329  58.7309019 103.1478587  42.5173006  60.1423861
 102.8896365  43.4390076  60.1408191 102.6163628  42.1203440  60.8324325
 108.0924776  55.6223793  52.9213946 108.2661653  55.0570215  52.1687799
 108.5853667  56.4224688  52.7393436  93.9101736  47.6338462  60.9877505
  93.3655204  48.4098270  61.1197779  94.7881086  47.9809266  60.8296626
 100.6989352  40.9650046  53.3658303 100.8205264  40.0366692  53.5649191
 100.4091395  40.9788732  52.4536619 103.5680543  38.6504956  56.5025023
 103.5902240  38.7144289  55.5477003 103.9848602  37.8109465  56.6965529
 113.9464167  48.3860216  54.5404246 114.3895313  47.6367541  54.1423369
 113.0690677  48.3770352  54.1577978 109.0799948  54.9390557  50.0210844
 109.7750853  55.5597250  50.2398159 109.4223099  54.0885909  50.2963222
 110.9791371  52.3890263  51.5498175 111.5042696  52.7277536  50.8247495
 110.8913724  51.4537278  51.3661310 102.6411420  56.3024336  63.6788052
 102.9498547  56.0573483  64.5510751 103.4386902  56.5070975  63.1906922
 102.6632032  58.4562246  55.9093428 102.2237023  57.9638625  56.6026285
 103.4140149  57.9135214  55.6685504  95.1424371  54.6473787  55.9118056
  95.9682391  54.3477559  55.5316700  94.7918423  53.8781409  56.3607845
 100.1105904  54.0000255  57.9815730  99.4885914  53.3370960  57.6817958
 100.7810771  54.0261387  57.2989378  93.3432976  52.5660113  56.8706990
  92.5064885  52.1382288  56.6890991  93.3156622  52.7592557  57.8077781
 100.1830432  42.4782043  67.5748236 100.2318587  43.3544166  67.1926006
 100.7252946  41.9359436  67.0019879 110.6685278  53.0223166  66.8549373
 109.8780821  53.0047305  66.3153873 110.4318632  53.5611460  67.6098410
 110.7883153  49.8715633  64.1682102 110.8381158  49.7065640  65.1097624
 110.6797076  49.0042892  63.7779982  99.6719411  52.5504179  51.4574191
  99.8207532  53.2339643  50.8040863 100.4785855  52.5309269  51.9723646
 108.0786915  45.8546561  65.4841408 108.9796778  45.7153026  65.1925406
 108.1534890  46.0201016  66.4239586 102.4129720  43.2313416  64.3294595
 101.5433030  43.5246982  64.0577183 102.6489201  43.8153861  65.0501858
 112.2901349  52.2912574  64.4124123 111.9986158  52.6542555  65.2487584
 111.6773481  51.5779583  64.2337455 113.4897032  49.8565454  56.9326693
 114.3243923  50.2955258  57.0964254 113.6256161  49.3804107  56.1134939
 110.5388538  47.4145189  62.8804181 111.0142659  47.6072835  62.0723033
 109.6154103  47.4704375  62.6347565  97.4272044  48.5769356  52.4635259
  97.1818086  47.6731686  52.6615470  97.5967959  48.5786507  51.5214737
 105.1168754  39.4493033  61.8460015 105.6350698  40.1854059  61.5206504
 104.7623887  39.7557026  62.6806774  96.6967692  44.3097714  49.9621421
  96.0036937  44.3842069  49.3061457  96.4519444  43.5458057  50.4842938
 105.3681348  35.8693315  57.3660912 105.6483102  35.2016504  57.9921338
 106.1531955  36.0622411  56.8535575 103.1714817  55.0452309  48.9285938
 102.5988784  55.6642496  48.4756410 103.7447611  55.5951671  49.4625860
 109.2390207  44.2910949  61.1132487 110.1907630  44.3909047  61.1344711
 109.0693657  43.4989218  61.6230571 107.2604586  41.3766532  61.2991888
 106.6654518  41.6571545  60.6038376 106.9754283  41.8660433  62.0708629
 106.3912077  55.3289459  50.0594520 107.3242750  55.2635021  50.2627396
 106.3035289  56.1645726  49.6009053 109.0200093  54.6455329  47.0198468
 108.9413725  54.3115193  47.9134226 109.8409760  55.1377097  47.0189940
 111.7178284  47.5117069  60.2274786 111.6854605  46.5733069  60.4134470
 112.3278908  47.5901105  59.4940611 103.5561615  46.3813122  46.2701990
 104.5020720  46.2519330  46.3390408 103.1775860  45.6427784  46.7471419
 111.8672773  44.3028112  60.2733070 111.3511822  43.5186569  60.0862998
 112.7512721  43.9746829  60.4379589 109.5283500  38.0469128  56.2328882
 109.3308321  37.7384216  57.1172214 110.1383205  38.7730767  56.3626812
 117.5354834  48.5733076  59.3680823 118.2658223  48.3118364  59.9288527
 116.9261780  47.8361798  59.4082891 115.6170131  46.7140938  59.9655274
 114.8903295  46.5796903  59.3571766 115.2017418  47.0217767  60.7711992
 103.4400308  50.4330868  67.7302647 104.3603317  50.6109467  67.9242694
 103.4049891  49.4886913  67.5782347 101.7404532  44.3063098  46.2056876
 100.8335988  44.0096211  46.2819589 102.0180513  44.0092916  45.3391162
  92.6582473  45.6269462  56.6555922  92.3385257  44.7734770  56.3630296
  92.1115901  45.8418040  57.4113889  96.4362380  48.3431903  60.3725429
  96.6548390  49.2749010  60.3913462  96.8488154  47.9839877  61.1580232
 103.3566598  38.8499988  52.3601117 102.5467327  38.5047073  52.7356363
 104.0451015  38.5407532  52.9488729 105.2857146  37.9278035  53.9825414
 105.8388185  38.3473488  54.6415437 105.5227233  37.0013783  54.0248370
 101.3090246  43.9165108  69.7628178 101.2086973  44.8659465  69.6940269
 101.0911788  43.5883347  68.8904248 100.5103317  41.1650033  46.3468855
 101.3722481  41.4904932  46.6064672 100.6953661  40.3781529  45.8341921
  92.5270733  49.2472373  58.6249044  91.8334204  48.8326326  58.1118998
  93.2743724  49.2892910  58.0282463 108.6635954  40.0378560  53.4904078
 108.0834623  40.6963364  53.1082130 108.3971886  39.2155904  53.0791495
 107.1139520  39.4383618  55.6925398 107.6139298  39.5500152  54.8839717
 107.7575128  39.1344670  56.3326207 101.1721516  47.3462247  68.5793239
 100.6888597  48.1462607  68.7857128 101.2582455  47.3570192  67.6260683
  94.4407475  49.1790627  56.5015059  94.4178164  49.2778314  55.5496942
  94.7508112  50.0255778  56.8232225  97.6894235  49.8067898  63.1832471
  98.5087124  50.3011977  63.2067308  97.9631043  48.8899866  63.1550038
 107.4460832  42.1978650  52.5460426 106.5586687  42.4828301  52.3280621
 107.8614821  42.0372414  51.6987703 110.7975368  42.2225171  56.2614765
 111.5735758  42.7121624  56.5339382 110.0723502  42.6483225  56.7186635
 113.2347926  42.9352790  57.3188706 113.8292417  42.6948526  56.6082014
 113.3074510  42.2159921  57.9462242 106.5904045  51.9623325  46.6408446
 107.2939895  52.1673327  47.2566102 105.8666694  52.5300087  46.9057530
 107.4201855  47.7133186  52.7610716 107.3637057  48.1701738  51.9218349
 107.9730198  46.9523871  52.5833559 111.2306661  43.5022918  53.5860836
 110.9743595  43.1019554  54.4169043 110.6059529  44.2166712  53.4610975
 115.5418999  46.2418991  56.0932127 114.9818557  46.3112181  56.8663689
 114.9362502  46.0659976  55.3731623  98.6114208  57.6755718  57.8450313
  98.4946592  58.6201151  57.7429004  97.7906654  57.3729280  58.2336113
 108.4990742  52.4005854  48.6906906 109.3336346  51.9687053  48.5084381
 108.3375085  52.2287868  49.6183801 108.1536635  48.9037967  50.0563245
 108.0985438  48.7382239  49.1151690 107.5282690  49.6114000  50.2125435
  92.9429150  44.1406032  63.8824668  93.5888013  43.6304986  64.3711893
  92.7346301  44.8774713  64.4568093 105.4682542  51.2086879  69.3816808
 106.3373701  51.3827532  69.0203443 104.9889293  52.0281296  69.2592538
 101.4632760  38.4046076  49.6348564 101.4511430  39.3487916  49.7916835
 102.3556182  38.2216222  49.3408025  99.6368722  58.3283980  61.0606242
 100.5395969  58.3607591  61.3772737  99.4106092  57.3984431  61.0752578
 101.3922324  57.0814967  57.7216321 100.4417955  57.0816828  57.6080693
 101.6954810  56.3347701  57.2052355 105.2784880  34.9988853  53.8894501
 104.5117275  34.4447340  54.0351183 105.6895585  35.0710722  54.7508652
  97.2826641  41.2873649  67.9799682  98.1458102  40.9310454  68.1903007
  96.7092051  40.9487544  68.6675086 117.1275018  62.9175505  58.7862083
 117.7653428  62.7982253  58.0825423 117.0095860  63.8656349  58.8450035
 113.9364724  62.8702933  58.7223608 113.5983235  62.7543998  57.8344142
 114.8054492  62.4694098  58.7024614 114.4184507  64.0237785  64.6809813
 114.4073148  63.6290583  63.8090317 114.5805146  63.2903858  65.2743585
 109.3006725  65.4798515  50.4222098 110.0737601  64.9327502  50.2834974
 109.6532124  66.3442764  50.6336559 112.0647975  64.1851745  60.2190357
 112.6611547  63.9607768  59.5047320 112.1222946  63.4436491  60.8215805
 111.6373003  61.6391181  48.0540548 111.8898524  61.1172702  47.2924011
 110.6997562  61.4757326  48.1567231 116.6816286  60.6426959  55.8615291
 117.4679375  60.2246382  55.5105708 116.9454990  61.5473051  56.0296939
 122.0824713  60.5802192  56.7648269 122.8149885  60.0101409  56.9986099
 121.3264069  60.1923793  57.2054775 111.3569292  63.5419287  50.2564923
 111.2405550  62.8664190  50.9246007 111.4671552  63.0551661  49.4397076
 113.7000833  63.0029434  53.9611612 113.3359040  62.4760055  54.6724533
 114.5567949  62.6127903  53.7878097 119.6050134  54.2923766  61.2242878
 119.2733458  55.1619177  61.0004093 119.0095747  53.9760050  61.9036908
 113.3406320  58.0319333  48.9572960 113.5080722  58.8999570  49.3243431
 113.1503489  58.1946615  48.0334250 116.0981653  66.4936312  60.6238791
 115.7982376  67.3961351  60.5154598 115.7532713  66.2268496  61.4759944
 119.4978797  59.0118853  58.3036228 118.5895674  58.9434261  58.0094989
 119.4466393  59.4890797  59.1318054 113.3195541  60.4876991  49.9419627
 113.1995166  60.9334042  50.7805108 112.6248129  60.8362309  49.3833165
 113.5719663  60.4308498  66.2471125 112.7952997  60.9902418  66.2373990
 114.2110226  60.9165281  66.7685996 121.3640443  57.2135291  60.0814102
 120.7214823  57.5067824  59.4353897 120.8595372  57.0988211  60.8867299
 111.8266035  63.2393951  65.8089092 112.5680719  63.7778995  65.5323916
 111.1203020  63.8660240  65.9660644 117.3021375  65.3823092  64.4061254
 117.7104731  64.9405502  63.6615886 116.5798636  64.8075719  64.6595447
 113.6552445  60.3195699  61.7794811 114.5013640  60.7435112  61.9229460
 113.5951082  59.6629323  62.4733374 116.8051890  57.9800067  63.4375984
 116.5612822  58.7342128  62.9010260 117.0811820  58.3585415  64.2723232
 118.7590353  64.5238679  62.1153250 118.9707248  65.1670439  61.4387631
 118.7120101  63.6900996  61.6475180 116.3616582  57.1356500  59.0189822
 115.5001061  57.4337754  59.3106560 116.3879016  57.3526899  58.0870855
 113.1778151  65.6798691  55.4263628 113.6416497  65.9586394  54.6368250
 112.9134949  64.7782135  55.2436719 112.1147037  61.8021843  52.2353193
 112.8171080  62.2542887  52.7027119 111.7827666  61.1605662  52.8633086
 110.5627399  60.3933600  66.6104402 109.9326059  61.0749880  66.8439799
 110.4563487  60.2816681  65.6657541 105.8572371  60.0605396  57.5370327
 105.0671425  60.3162924  57.0610437 106.3483618  60.8753734  57.6422367
 119.8736181  67.4010635  60.2875607 120.6953624  66.9990822  60.0058289
 119.8698584  67.2978869  61.2391723 107.8087116  60.4249975  54.4953803
 107.0118280  60.5368669  55.0137299 107.5812709  60.7636627  53.6294694
 104.1410074  60.3135886  59.9685317 104.3918113  61.1982896  60.2342893
 104.6769622  60.1340488  59.1960409 127.9642174  63.7449383  56.6360579
 127.2105882  63.1756781  56.4804583 128.0989715  63.7112048  57.5831214
 109.8408141  54.6954365  68.9729653 109.4475087  54.1420564  69.6477298
 110.6574282  55.0064944  69.3636171 112.7576102  56.1112245  66.5649910
 113.4985816  56.7119398  66.4854372 112.9894025  55.3689882  66.0067953
 107.9017440  61.2968612  64.8428140 107.7870956  60.3953869  65.1435239
 107.0461958  61.5432309  64.4912956 114.9809278  69.2386352  66.4415640
 114.5373132  68.4522731  66.1236545 115.6426492  69.4265503  65.7759531
 117.0790516  69.5189152  64.4697042 117.0608992  70.3398033  63.9777311
 118.0010436  69.3943227  64.6947183 113.5363570  67.0333282  65.3120550
 114.0691907  66.2721570  65.0819858 113.0077651  66.7406933  66.0544704
 116.7033265  52.1393348  60.8414192 116.3597535  53.0294989  60.7653302
 117.0712228  51.9495005  59.9783777 114.2530659  56.9751659  54.4071865
 113.3972255  56.5858510  54.2277504 114.6657611  57.0543620  53.5471651
 115.7829806  54.5098003  58.8063425 115.2794601  54.4728138  57.9931230
 116.0760413  55.4190745  58.8660082 112.0272692  54.5936732  57.8129607
 112.8925688  54.3979541  57.4535496 112.0950201  54.3647084  58.7398963
 116.4569851  60.0029051  51.1746408 116.1519987  60.3175200  52.0256551
 117.4100293  60.0810471  51.2173741 109.6335011  56.8238940  55.1845973
 110.2078763  56.6014122  54.4519166 110.2205993  56.8927635  55.9374575
 109.9604598  58.8543401  49.2041859 109.1241910  59.1918088  49.5251133
 109.8209367  58.7192381  48.2668996 111.9357678  53.6980189  53.9121043
 111.2822091  53.3829206  53.2877658 111.8938153  53.0755930  54.6380866
 113.0468883  63.9799484  45.8274335 112.1395945  63.7488738  46.0265484
 113.5439915  63.1837104  46.0148317 115.9536962  72.6896991  48.7471021
 115.2798661  72.9928688  49.3555979 116.3402784  73.4926072  48.3976478
 115.1695419  60.1862123  58.2368691 114.2517980  60.4077070  58.0790379
 115.5855562  60.2608433  57.3780398 115.9530467  61.5853538  53.3671371
 116.7002285  62.0974936  53.0578493 116.2222056  61.2637591  54.2275764
 114.2257117  64.0812079  50.3498325 113.3168336  63.7971112  50.4470795
 114.2552201  64.5011158  49.4901632 118.4009304  58.6210655  55.3490160
 117.6632060  58.1088041  55.6800403 118.6536077  58.1811036  54.5373437
 118.5020931  51.3986907  55.9431929 118.8079808  50.5384270  55.6557844
 119.2273536  51.9904527  55.7430923 104.7945287  61.8017593  54.3313527
 104.5969687  61.2086954  53.6064594 104.2391951  61.4969803  55.0489466
 112.7742011  61.6940700  56.4508120 112.8290621  60.7414536  56.3750597
 111.9633213  61.8500139  56.9349419 113.9233205  65.6220823  47.6886404
 113.4852634  64.9056682  47.2292041 114.6643645  65.8496938  47.1271495
 110.7134371  60.3117760  54.2098499 109.9002236  60.6111930  54.6163691
 111.2093365  59.9173448  54.9272982 116.3108582  60.7759584  63.0413393
 116.6657970  61.0031057  63.9007859 116.9580714  61.1077961  62.4190649
 110.2048445  57.8836115  59.8259734 110.8447825  57.7424874  59.1282698
 109.3725976  57.5970628  59.4498336 107.2891513  61.3281627  52.0154479
 106.3589101  61.2666083  52.2324442 107.3848985  60.8057580  51.2191121
 107.2077062  57.8536440  54.6032721 107.4683879  58.7681773  54.4941882
 108.0294234  57.3860883  54.7529334 108.6801987  59.2674197  61.7731546
 109.3525041  59.0591559  61.1244195 107.8531774  59.0696283  61.3336778
 122.9291248  66.0078248  61.2906879 123.1227139  66.9124058  61.5366154
 122.8291867  65.5485667  62.1245464 114.5827559  55.8936138  63.7897206
 113.9355474  56.5926088  63.6961683 115.3528575  56.3272282  64.1573455
 117.9906357  66.1584990  66.8647760 117.8391864  65.9295542  65.9477843
 117.9811037  67.1155592  66.8779105 114.7591694  63.7316903  61.8494026
 115.6883754  63.8828063  61.6762994 114.3382724  63.8200924  60.9942673
 115.1085240  67.1349170  57.0081402 114.7735073  67.0949940  57.9039051
 114.6089186  66.4693886  56.5351812 109.0829484  62.5416800  62.5333983
 108.9449282  61.8097039  63.1345522 109.9934408  62.4525700  62.2518171
 111.7111785  62.2536759  62.0217662 112.4211404  61.6129952  61.9804281
 111.6681093  62.5049654  62.9443843 119.6998564  69.1904113  64.9424242
 119.6411110  68.5063333  64.2754825 120.1018082  69.9323103  64.4904868
 110.4240719  59.2401977  63.8413302 109.8878076  58.7892716  64.4934898
 109.8357428  59.3747886  63.0983766 109.8342978  58.6990629  46.4039766
 108.9572444  58.5779430  46.0402012 110.3100731  57.9076707  46.1518654
 119.7015971  67.1543697  63.1738221 118.8142750  66.8169619  63.2964620
 120.2714522  66.4226728  63.4106987 106.1579840  58.3757985  60.9266296
 106.0738029  57.7683655  60.1916706 105.3362547  58.8667003  60.9275793
 116.3303554  56.8611549  56.2936491 116.8272254  56.1081511  55.9737562
 115.5590536  56.8975865  55.7279701 124.1833312  62.5651914  57.9354783
 124.1723188  63.4476630  57.5648716 123.3150691  62.2123465  57.7409320
 112.9138523  59.0028932  56.0208176 112.5436310  58.4499972  56.7089082
 113.4097615  58.3987065  55.4683176 118.7722549  53.8281142  58.4415850
 117.8585629  54.0585369  58.6098057 119.2015650  53.9119586  59.2929883
 118.5429007  62.0171034  60.9415744 117.8900458  62.2646942  60.2868197
 118.9209387  61.2035172  60.6078222 114.5916580  62.7590845  67.4281781
 113.9157218  62.6584974  68.0984157 115.4144214  62.6030059  67.8917779
 100.9313094  61.5668382  58.7698740 100.9697194  61.0331973  59.5635858
 100.4253387  61.0403587  58.1509717 108.3103857  56.4132922  62.2661282
 108.3745183  57.2747753  61.8538680 108.2470977  55.8006924  61.5333641
 107.7856129  58.4856055  65.9134316 108.4128168  58.1033132  66.5271841
 106.9284048  58.2670257  66.2790009 118.1850238  68.8919030  67.5188052
 118.7290142  69.5048988  67.0243007 117.6037083  69.4498608  68.0355065
 104.5621672  60.2932484  51.8452671 104.8575113  59.3843162  51.7919725
 103.6609708  60.2720223  51.5233674 108.0915919  58.3688481  57.8280220
 107.3702505  58.9824448  57.6887693 108.8809175  58.9046245  57.7496866
 110.8942232  55.7042907  64.1020872 111.4176634  55.9505204  64.8647181
 110.6754566  56.5362942  63.6824009 106.2909513  57.9746582  51.9691996
 105.9622220  57.0943961  51.7867102 106.6448884  57.9194250  52.8568386
 109.4051337  58.2619551  52.3367474 109.7447409  58.7905473  51.6146082
 109.8523457  58.5999958  53.1126041 112.0994777  56.6456602  61.7870542
 111.7591598  55.8464415  62.1891222 111.3933784  56.9458313  61.2147375
 112.7511249  53.7305915  60.2397865 113.5737319  53.2566393  60.1176755
 112.9949313  54.5096398  60.7396551 111.3919484  56.7594173  50.5360767
 112.1127846  57.1375426  50.0324484 110.7684788  57.4783050  50.6395745
 115.5350607  57.4639322  51.4719099 115.7514221  58.3463960  51.1707927
 115.0544674  57.0725535  50.7424741 110.2749828  60.4225035  58.0489844
 110.1294409  60.7365338  58.9414125 109.7975032  61.0409936  57.4960742
 112.1346211  57.4127583  58.0970733 112.1207780  56.5168677  57.7603031
 112.8518639  57.4198247  58.7309019 113.9872342  57.8464923  60.1423861
 113.7290119  58.7681994  60.1408191 113.4557382  57.4495358  60.8324325
 111.5383107  56.2941964  53.3658303 111.6599018  55.3658610  53.5649191
 111.2485149  56.3080649  52.4536619 114.4074297  53.9796874  56.5025023
 114.4295994  54.0436207  55.5477003 114.8242356  53.1401383  56.6965529
 124.7857922  63.7152134  54.5404246 125.2289068  62.9659459  54.1423369
 123.9084432  63.7062270  54.1577978 105.5361512  62.0900276  63.8807662
 104.7943248  62.2382911  64.4672292 105.2154256  62.3508542  63.0174411
 111.0224186  57.8073961  67.5748236 111.0712342  58.6836084  67.1926006
 111.5646701  57.2651354  67.0019879 121.5079032  68.3515084  66.8549373
 120.7174576  68.3339223  66.3153873 121.2712387  68.8903378  67.6098410
 121.6276907  65.2007551  64.1682102 121.6774912  65.0357558  65.1097624
 121.5190830  64.3334810  63.7779982 118.9180669  61.1838479  65.4841408
 119.8190532  61.0444943  65.1925406 118.9928644  61.3492933  66.4239586
 113.2523475  58.5605333  64.3294595 112.3826784  58.8538899  64.0577183
 113.4882955  59.1445778  65.0501858 123.1295104  67.6204492  64.4124123
 122.8379912  67.9834473  65.2487584 122.5167235  66.9071500  64.2337455
 121.3782292  62.7437107  62.8804181 121.8536414  62.9364753  62.0723033
 120.4547858  62.7996292  62.6347565 108.2665799  63.9061274  52.4635259
 108.0211841  63.0023604  52.6615470 108.4361713  63.9078424  51.5214737
 115.9562509  54.7784950  61.8460015 116.4744453  55.5145977  61.5206504
 115.6017641  55.0848944  62.6806774 107.5361446  59.6389631  49.9621421
 106.8430691  59.7133986  49.3061457 107.2913198  58.8749975  50.4842938
 116.2075103  51.1985233  57.3660912 116.4876857  50.5308422  57.9921338
 116.9925710  51.3914328  56.8535575 114.0108571  70.3744227  48.9285938
 113.4382538  70.9934414  48.4756410 114.5841365  70.9243588  49.4625860
 120.0783961  59.6202867  61.1132487 121.0301384  59.7200964  61.1344711
 119.9087412  58.8281135  61.6230571 118.0998341  56.7058450  61.2991888
 117.5048273  56.9863463  60.6038376 117.8148037  57.1952351  62.0708629
 122.5572039  62.8408986  60.2274786 122.5248359  61.9024987  60.4134470
 123.1672663  62.9193023  59.4940611 114.3955370  61.7105039  46.2701990
 115.3414475  61.5811248  46.3390408 114.0169615  60.9719701  46.7471419
 122.7066527  59.6320030  60.2733070 122.1905576  58.8478487  60.0862998
 123.5906476  59.3038746  60.4379589 120.3677254  53.3761045  56.2328882
 120.1702075  53.0676134  57.1172214 120.9776960  54.1022684  56.3626812
 128.3748589  63.9024993  59.3680823 129.1051977  63.6410281  59.9288527
 127.7655534  63.1653715  59.4082891 126.4563886  62.0432856  59.9655274
 125.7297050  61.9088821  59.3571766 126.0411173  62.3509684  60.7711992
 114.2794062  65.7622786  67.7302647 115.1997072  65.9401385  67.9242694
 114.2443645  64.8178831  67.5782347 112.5798287  59.6355016  46.2056876
 111.6729742  59.3388129  46.2819589 112.8574268  59.3384834  45.3391162
 103.4976227  60.9561379  56.6555922 103.1779012  60.1026687  56.3630296
 102.9509656  61.1709957  57.4113889 114.1960353  54.1791906  52.3601117
 113.3861081  53.8338990  52.7356363 114.8844770  53.8699449  52.9488729
 116.1250901  53.2569952  53.9825414 116.6781940  53.6765406  54.6415437
 116.3620987  52.3305700  54.0248370 112.1484000  59.2457026  69.7628178
 112.0480727  60.1951383  69.6940269 111.9305542  58.9175265  68.8904248
 111.3497072  56.4941951  46.3468855 112.2116236  56.8196849  46.6064672
 111.5347416  55.7073447  45.8341921 119.5029708  55.3670477  53.4904078
 118.9228377  56.0255282  53.1082130 119.2365641  54.5447822  53.0791495
 117.9533274  54.7675535  55.6925398 118.4533053  54.8792070  54.8839717
 118.5968882  54.4636588  56.3326207 112.0115270  62.6754165  68.5793239
 111.5282352  63.4754525  68.7857128 112.0976209  62.6862110  67.6260683
 118.2854586  57.5270568  52.5460426 117.3980441  57.8120218  52.3280621
 118.7008575  57.3664331  51.6987703 121.6369122  57.5517089  56.2614765
 122.4129512  58.0413541  56.5339382 120.9117256  57.9775143  56.7186635
 124.0741681  58.2644708  57.3188706 124.6686172  58.0240444  56.6082014
 124.1468265  57.5451839  57.9462242 122.0700416  58.8314836  53.5860836
 121.8137350  58.4311471  54.4169043 121.4453284  59.5458630  53.4610975
 126.3812754  61.5710909  56.0932127 125.8212312  61.6404098  56.8663689
 125.7756257  61.3951894  55.3731623 103.7822904  59.4697949  63.8824668
 104.4281768  58.9596903  64.3711893 103.5740055  60.2066631  64.4568093
 116.3076296  66.5378797  69.3816808 117.1767456  66.7119449  69.0203443
 115.8283048  67.3573214  69.2592538 112.3026515  53.7337994  49.6348564
 112.2905184  54.6779834  49.7916835 113.1949936  53.5508139  49.3408025
 116.1178634  50.3280771  53.8894501 115.3511030  49.7739257  54.0351183
 116.5289339  50.4002639  54.7508652 108.1220395  56.6165566  67.9799682
 108.9851857  56.2602371  68.1903007 107.5485806  56.2779461  68.6675086
 126.2144853  83.7201295  50.0234963 125.5632833  84.3055375  49.6368977
 127.0089216  84.2507490  50.0830001 127.6920118  81.4091727  50.5603948
 127.0565951  81.4826354  51.2724852 127.3617524  81.9985326  49.8823027
 132.9218468  75.9094110  56.7648269 133.6543640  75.3393327  56.9986099
 132.1657823  75.5215710  57.2054775 130.4443888  69.6215684  61.2242878
 130.1127213  70.4911095  61.0004093 129.8489501  69.3051968  61.9036908
 132.2034198  72.5427209  60.0814102 131.5608578  72.8359742  59.4353897
 131.6989126  72.4280129  60.8867299 129.8574361  76.2890382  50.7699961
 130.7692218  76.5217769  50.5947659 129.3484008  76.8727426  50.2075040
 132.3433176  82.2070638  55.5157907 131.6584214  82.5869539  54.9654940
 132.4277025  82.8165965  56.2489854 138.8035928  79.0741301  56.6360579
 138.0499637  78.5048699  56.4804583 138.9383469  79.0403965  57.5831214
 120.6801896  70.0246283  68.9729653 120.2868841  69.4712482  69.6477298
 121.4968036  70.3356862  69.3636171 127.5427020  67.4685265  60.8414192
 127.1991289  68.3586907  60.7653302 127.9105982  67.2786923  59.9783777
 127.5077303  77.4593876  49.3486627 126.9923926  78.2298481  49.5875014
 127.2354611  76.7859012  49.9719688 127.2963606  75.3320968  51.1746408
 126.9913741  75.6467118  52.0256551 128.2494048  75.4102388  51.2173741
 130.7202884  79.6860212  57.9406408 130.0626558  80.3759474  58.0286537
 131.5243283  80.0756644  58.2840395 123.8862638  79.3091402  45.8274335
 122.9789699  79.0780655  46.0265484 124.3833670  78.5129021  46.0148317
 126.7930717  88.0188909  48.7471021 126.1192415  88.3220606  49.3555979
 127.1796539  88.8217990  48.3976478 129.3414685  66.7278824  55.9431929
 129.6473562  65.8676188  55.6557844 130.0667290  67.3196445  55.7430923
 124.7626959  80.9512741  47.6886404 124.3246389  80.2348599  47.2292041
 125.5037400  81.1788855  47.1271495 132.8800074  79.2269938  53.7462722
 132.7417972  79.4171534  52.8183911 132.5236293  79.9889320  54.2030773
 132.9069453  81.2946465  58.7573994 133.3405960  81.2021754  59.6057048
 133.6201034  81.2703965  58.1194010 133.7685003  81.3370165  61.2906879
 133.9620893  82.2415976  61.5366154 133.6685621  80.8777584  62.1245464
 124.9921932  88.1868582  50.9618100 125.1673687  87.7156625  51.7763723
 124.3054720  88.8134348  51.1899361 128.8838187  79.8097122  47.2818461
 128.2667357  79.0843950  47.1851514 128.4154675  80.5706482  46.9385536
 135.0227066  77.8943832  57.9354783 135.0116942  78.7768547  57.5648716
 134.1544446  77.5415383  57.7409320 129.6116303  69.1573060  58.4415850
 128.6979383  69.3877287  58.6098057 130.0409405  69.2411504  59.2929883
 129.3822762  77.3462952  60.9415744 128.7294212  77.5938859  60.2868197
 129.7603142  76.5327090  60.6078222 129.9816969  85.7621961  57.5651855
 130.9063516  85.5564822  57.4276306 129.8132272  85.5138362  58.4741196
 135.6251676  79.0444051  54.5404246 136.0682822  78.2951376  54.1423369
 134.7478186  79.0354188  54.1577978 130.7587457  85.5974393  50.0210844
 131.4538362  86.2181085  50.2398159 131.1010607  84.7469744  50.2963222
 132.6578880  83.0474098  51.5498175 133.1830205  83.3861371  50.8247495
 132.5701233  82.1121114  51.3661310 135.1684541  80.5149290  56.9326693
 136.0031432  80.9539094  57.0964254 135.3043670  80.0387943  56.1134939
 132.2176047  78.0729024  62.8804181 132.6930168  78.2656671  62.0723033
 131.2941612  78.1288210  62.6347565 127.0468857  66.5277150  57.3660912
 127.3270611  65.8600340  57.9921338 127.8319464  66.7206246  56.8535575
 124.8502326  85.7036144  48.9285938 124.2776293  86.3226331  48.4756410
 125.4235119  86.2535506  49.4625860 130.9177716  74.9494784  61.1132487
 131.8695139  75.0492882  61.1344711 130.7481166  74.1573053  61.6230571
 128.0699586  85.9873294  50.0594520 129.0030259  85.9218856  50.2627396
 127.9822798  86.8229561  49.6009053 130.6987602  85.3039165  47.0198468
 130.6201234  84.9699028  47.9134226 131.5197269  85.7960933  47.0189940
 133.3965793  78.1700904  60.2274786 133.3642114  77.2316905  60.4134470
 134.0066417  78.2484941  59.4940611 125.2349124  77.0396957  46.2701990
 126.1808229  76.9103165  46.3390408 124.8563369  76.3011619  46.7471419
 133.5460282  74.9611948  60.2733070 133.0299331  74.1770404  60.0862998
 134.4300230  74.6330664  60.4379589 131.2071009  68.7052963  56.2328882
 131.0095830  68.3968051  57.1172214 131.8170714  69.4314602  56.3626812
 139.2142343  79.2316911  59.3680823 139.9445732  78.9702199  59.9288527
 138.6049289  78.4945633  59.4082891 137.2957640  77.3724774  59.9655274
 136.5690804  77.2380738  59.3571766 136.8804927  77.6801602  60.7711992
 122.9877755  74.5748944  69.7628178 122.8874482  75.5243301  69.6940269
 122.7699297  74.2467183  68.8904248 130.3423463  70.6962395  53.4904078
 129.7622132  71.3547199  53.1082130 130.0759395  69.8739740  53.0791495
 129.1248341  72.8562486  52.5460426 128.2374196  73.1412136  52.3280621
 129.5402330  72.6956249  51.6987703 132.4762877  72.8809007  56.2614765
 133.2523267  73.3705459  56.5339382 131.7511011  73.3067061  56.7186635
 134.9135435  73.5936626  57.3188706 135.5079926  73.3532362  56.6082014
 134.9862019  72.8743756  57.9462242 128.2691554  82.6207160  46.6408446
 128.9727404  82.8257163  47.2566102 127.5454203  83.1883922  46.9057530
 129.0989364  78.3717021  52.7610716 129.0424566  78.8285573  51.9218349
 129.6517707  77.6107706  52.5833559 132.9094170  74.1606753  53.5860836
 132.6531104  73.7603389  54.4169043 132.2847038  74.8750547  53.4610975
 137.2206508  76.9002827  56.0932127 136.6606066  76.9696016  56.8663689
 136.6150011  76.7243811  55.3731623 130.1778251  83.0589689  48.6906906
 131.0123855  82.6270888  48.5084381 130.0162594  82.8871703  49.6183801
 129.8324144  79.5621803  50.0563245 129.7772947  79.3966074  49.1151690
 129.2070199  80.2697836  50.2125435 126.9572389  65.6572688  53.8894501
 126.1904784  65.1031175  54.0351183 127.3683094  65.7294557  54.7508652
 138.8062527  93.5759341  58.7862083 139.4440936  93.4566088  58.0825423
 138.6883369  94.5240184  58.8450035 135.6152233  93.5286769  58.7223608
 135.2770744  93.4127833  57.8344142 136.4842001  93.1277934  58.7024614
 131.4739049  95.3822245  54.7120499 130.9103914  95.2912182  53.9436786
 131.3591444  94.5622150  55.1922991 136.0972016  94.6821620  64.6809813
 136.0860657  94.2874419  63.8090317 136.2592655  93.9487693  65.2743585
 129.0203480  96.8773437  57.5504719 129.8124772  96.5364261  57.1351018
 129.2600131  96.9868412  58.4706872 137.0538607  99.0493213  50.0234963
 136.4026587  99.6347293  49.6368977 137.8482970  99.5799408  50.0830001
 130.9794234  96.1382350  50.4222098 131.7525110  95.5911337  50.2834974
 131.3319633  97.0026599  50.6336559 132.8179277  97.4658732  63.6288997
 132.5269143  98.3704363  63.5135663 133.4536261  97.5075260  64.3433067
 133.7435484  94.8435581  60.2190357 134.3399056  94.6191603  59.5047320
 133.8010455  94.1020326  60.8215805 133.3160512  92.2975016  48.0540548
 133.5686033  91.7756537  47.2924011 132.3785071  92.1341161  48.1567231
 138.3603795  91.3010794  55.8615291 139.1466884  90.8830218  55.5105708
 138.6242499  92.2056887  56.0296939 138.5313872  96.7383645  50.5603948
 137.8959705  96.8118271  51.2724852 138.2011279  97.3277244  49.8823027
 133.0356801  94.2003122  50.2564923 132.9193059  93.5248025  50.9246007
 133.1459061  93.7135496  49.4397076 135.3788342  93.6613269  53.9611612
 135.0146549  93.1343890  54.6724533 136.2355458  93.2711738  53.7878097
 135.0193829  88.6903169  48.9572960 135.1868231  89.5583405  49.3243431
 134.8290998  88.8530450  48.0334250 137.7769162  97.1520148  60.6238791
 137.4769885  98.0545186  60.5154598 137.4320222  96.8852331  61.4759944
 131.2281644  93.6033945  56.6575495 130.3032140  93.4710159  56.8653187
 131.4766057  94.3828164  57.1545438 141.1766306  89.6702688  58.3036228
 140.2683183  89.6018096  58.0094989 141.1253902  90.1474633  59.1318054
 134.9983050  91.1460826  49.9419627 134.8782675  91.5917877  50.7805108
 134.3035638  91.4946144  49.3833165 128.5890455  93.2467218  57.4919284
 128.7182836  93.5001697  58.4058696 127.9087906  93.8394926  57.1723939
 132.7589942 103.9164468  53.5909759 132.6813972 104.8672293  53.6698239
 132.1551585 103.5710341  54.2484685 135.2507172  91.0892333  66.2471125
 134.4740506  91.6486254  66.2373990 135.8897735  91.5749116  66.7685996
 133.5053544  93.8977787  65.8089092 134.2468228  94.4362831  65.5323916
 132.7990529  94.5244076  65.9660644 138.9808884  96.0406927  64.4061254
 139.3892240  95.5989338  63.6615886 138.2586145  95.4659555  64.6595447
 135.3339954  90.9779534  61.7794811 136.1801149  91.4018948  61.9229460
 135.2738591  90.3213158  62.4733374 139.3037698  96.6008118  58.1613543
 138.6746561  96.7653832  57.4589611 138.9163360  97.0149727  58.9324507
 138.4839399  88.6383902  63.4375984 138.2400331  89.3925963  62.9010260
 138.7599329  89.0169250  64.2723232 140.4377862  95.1822515  62.1153250
 140.6494757  95.8254275  61.4387631 140.3907610  94.3484831  61.6475180
 138.0404091  87.7940335  59.0189822 137.1788570  88.0921589  59.3106560
 138.0666525  88.0110734  58.0870855 134.8565660  96.3382526  55.4263628
 135.3204006  96.6170229  54.6368250 134.5922458  95.4365971  55.2436719
 131.7489741  95.8854008  58.3643391 132.3191098  96.3141276  57.7260876
 132.3397853  95.6036592  59.0627577 133.7934546  92.4605678  52.2353193
 134.4958589  92.9126722  52.7027119 133.4615175  91.8189497  52.8633086
 129.4874625  91.0833810  54.4953803 128.6905789  91.1952505  55.0137299
 129.2600218  91.4220462  53.6294694 135.3180293  97.6078513  62.4436318
 135.3824726  98.0698921  63.2794490 134.6091217  96.9775878  62.5718628
 135.0328311  99.2746621  52.3115298 134.8973986 100.1198157  52.7400146
 135.5738123  99.4765899  51.5481232 128.4857708  96.7922059  52.8843223
 128.9982229  97.5865309  53.0348788 129.1380421  96.0948349  52.8176825
 130.2952593  99.9087815  54.9665976 130.4719221 100.8305780  54.7786960
 131.0909426  99.5946235  55.3960356 136.6596787  99.8970187  66.4415640
 136.2160641  99.1106566  66.1236545 137.3214001 100.0849338  65.7759531
 131.4183908 101.4265989  60.9676319 131.9691333 101.2983052  60.1953313
 130.5795384 101.7260878  60.6171212 138.7578025 100.1772987  64.4697042
 138.7396501 100.9981868  63.9777311 139.6797945 100.0527063  64.6947183
 135.2151079  97.6917117  65.3120550 135.7479416  96.9305405  65.0819858
 134.6865160  97.3990769  66.0544704 138.3820774  82.7977183  60.8414192
 138.0385044  83.6878825  60.7653302 138.7499737  82.6078841  59.9783777
 126.4506625  95.1210713  53.6602794 127.2881847  95.5307722  53.4436502
 126.6284893  94.1810155  53.6302988 138.3471057  92.7885794  49.3486627
 137.8317680  93.5590399  49.5875014 138.0748365  92.1150930  49.9719688
 135.9318168  87.6335495  54.4071865 135.0759764  87.2442345  54.2277504
 136.3445120  87.7127456  53.5471651 137.4617315  85.1681838  58.8063425
 136.9582110  85.1311973  57.9931230 137.7547922  86.0774581  58.8660082
 133.7060201  85.2520568  57.8129607 134.5713197  85.0563376  57.4535496
 133.7737710  85.0230920  58.7398963 138.1357360  90.6612886  51.1746408
 137.8307496  90.9759035  52.0256551 139.0887802  90.7394306  51.2173741
 136.5803792  96.8203109  52.8239362 136.0525154  96.0855869  52.5112599
 136.0791295  97.5977786  52.5779330 131.3122520  87.4822776  55.1845973
 131.8866272  87.2597957  54.4519166 131.8993502  87.5511470  55.9374575
 140.3702097  93.3696503  55.9910350 140.8833979  94.0026494  56.4932060
 141.0203321  92.7697698  55.6253710 131.6392107  89.5127237  49.2041859
 130.8029419  89.8501923  49.5251133 131.4996876  89.3776216  48.2668996
 133.6145187  84.3564025  53.9121043 132.9609600  84.0413042  53.2877658
 133.5725662  83.7339765  54.6380866 134.7256392  94.6383320  45.8274335
 133.8183454  94.4072573  46.0265484 135.2227424  93.8420939  46.0148317
 137.6324471 103.3480827  48.7471021 136.9586170 103.6512524  49.3555979
 138.0190293 104.1509907  48.3976478 136.8482928  90.8445958  58.2368691
 135.9305489  91.0660905  58.0790379 137.2643071  90.9192269  57.3780398
 137.6317976  92.2437374  53.3671371 138.3789794  92.7558771  53.0578493
 137.9009565  91.9221427  54.2275764 135.9044626  94.7395915  50.3498325
 134.9955845  94.4554947  50.4470795 135.9339709  95.1594993  49.4901632
 141.1363893  98.3502504  54.1189493 140.6826220  97.5093414  54.1754683
 140.5057860  98.9863902  54.4564273 140.0796813  89.2794490  55.3490160
 139.3419569  88.7671876  55.6800403 140.3323586  88.8394872  54.5373437
 139.5796832 100.1879001  55.0539311 139.8719807 100.7484058  54.3351676
 140.0895453 100.4807562  55.8092470 140.1808440  82.0570742  55.9431929
 140.4867317  81.1968105  55.6557844 140.9061045  82.6488362  55.7430923
 126.4732796  92.4601429  54.3313527 126.2757196  91.8670789  53.6064594
 125.9179460  92.1553639  55.0489466 134.4529520  92.3524535  56.4508120
 134.5078130  91.3998372  56.3750597 133.6420722  92.5083974  56.9349419
 135.6020713  96.2804658  47.6886404 135.1640143  95.5640517  47.2292041
 136.3431154  96.5080773  47.1271495 132.3921880  90.9701595  54.2098499
 131.5789745  91.2695765  54.6163691 132.8880874  90.5757284  54.9272982
 134.5430458 100.9659352  56.1432764 134.5006636 101.1920198  55.2141296
 135.4593156 100.7322726  56.2918565 137.9896091  91.4343419  63.0413393
 138.3445479  91.6614892  63.9007859 138.6368223  91.7661796  62.4190649
 131.8835954  88.5419950  59.8259734 132.5235334  88.4008709  59.1282698
 131.0513485  88.2554464  59.4498336 132.6596258  97.8422381  55.9394727
 133.4536857  97.3472701  55.7377302 131.9487951  97.3140244  55.5762432
 137.4791103 100.2240476  60.2907094 137.5328125 100.7931413  61.0584810
 136.6105884 100.3942361  59.9261131 128.9679022  91.9865463  52.0154479
 128.0376610  91.9249918  52.2324442 129.0636494  91.4641415  51.2191121
 128.8864571  88.5120275  54.6032721 129.1471388  89.4265609  54.4941882
 129.7081743  88.0444718  54.7529334 136.2615068  86.5519973  63.7897206
 135.6142983  87.2509923  63.6961683 137.0316084  86.9856117  64.1573455
 139.6693866  96.8168826  66.8647760 139.5179373  96.5879377  65.9477843
 139.6598546  97.7739427  66.8779105 136.4379203  94.3900738  61.8494026
 137.3671263  94.5411898  61.6762994 136.0170233  94.4784759  60.9942673
 135.2367534  98.4151403  59.6192564 135.0978620  98.0470187  60.4918502
 134.4482131  98.9299042  59.4476522 135.8315686 103.5160499  50.9618100
 136.0067442 103.0448542  51.7763723 135.1448474 104.1426265  51.1899361
 136.7872749  97.7933005  57.0081402 136.4522582  97.7533775  57.9039051
 136.2876695  97.1277721  56.5351812 130.7616993  93.2000636  62.5333983
 130.6236791  92.4680874  63.1345522 131.6721917  93.1109536  62.2518171
 139.7231941  95.1389040  47.2818461 139.1061112  94.4135868  47.1851514
 139.2548430  95.8998400  46.9385536 133.3899294  92.9120595  62.0217662
 134.0998913  92.2713787  61.9804281 133.3468602  93.1633490  62.9443843
 130.3976772 106.6649862  57.7357961 130.6373370 107.2968386  58.4136979
 129.5545968 106.3137902  58.0223320 131.5130487  89.3574464  46.4039766
 130.6359953  89.2363265  46.0402012 131.9888240  88.5660542  46.1518654
 123.0332627  94.1451624  56.4981273 123.7203667  93.8313354  55.9102288
 122.8780756  95.0492989  56.2248524 134.9104633 102.4728984  60.1399465
 134.8374805 103.2783956  60.6518769 134.4682027 102.6720950  59.3147486
 134.6994413 101.7100754  53.6502286 133.9161935 102.2522435  53.7440511
 135.3987158 102.2274734  54.0496527 138.0091063  87.5195384  56.2936491
 138.5059763  86.7665346  55.9737562 137.2378045  87.5559701  55.7279701
 137.3703317 102.3715818  62.2957623 138.0831289 103.0063283  62.2233525
 136.8793346 102.4679684  61.4797625 139.0920844  96.2767071  53.8674915
 138.1577123  96.3968534  53.6979619 139.2697512  95.3739538  53.6034925
 134.5926032  89.6612767  56.0208176 134.2223819  89.1083807  56.7089082
 135.0885124  89.0570900  55.4683176 132.4215230 100.1210262  63.1163194
 133.1224690 100.7546745  63.2692588 131.9510345 100.4624994  62.3558833
 140.5469626  98.4628212  51.4011101 140.8229470  98.3484806  52.3104975
 139.6774125  98.0645697  51.3623274 140.4510058  84.4864977  58.4415850
 139.5373138  84.7169204  58.6098057 140.8803159  84.5703422  59.2929883
 140.2216516  92.6754869  60.9415744 139.5687967  92.9230777  60.2868197
 140.5996896  91.8619008  60.6078222 137.1823690 102.7114563  55.0443915
 137.3646085 101.8936219  55.5071667 138.0056676 102.9282255  54.6068805
 137.5165856 101.6382748  52.3058963 138.0453622 101.1275202  51.6929125
 137.7794075 101.3225278  53.1704496 136.2704089  93.4174680  67.4281781
 135.5944726  93.3168810  68.0984157 137.0931723  93.2613894  67.8917779
 128.0182949  99.6546617  60.0494297 128.6036385  98.9090305  60.1822201
 127.8207787  99.9650574  60.9330961 130.8721604 102.6897864  55.0656739
 130.2031979 103.1743992  54.5820779 130.7334473 102.9367085  55.9800118
 122.6100603  92.2252217  58.7698740 122.6484703  91.6915808  59.5635858
 122.1040896  91.6987423  58.1509717 135.0126872 104.7241608  61.6639397
 135.5645180 104.8873229  62.4288483 135.3533066 105.3146046  60.9919422
 139.8637747  99.5502865  67.5188052 140.4077651 100.1632824  67.0243007
 139.2824592 100.1082444  68.0355065 126.2409181  90.9516319  51.8452671
 126.5362622  90.0426998  51.7919725 125.3397217  90.9304059  51.5233674
 138.1495260 102.6723583  58.6503080 138.0246399 101.8713323  58.1414025
 138.8074351 103.1669777  58.1617050 140.2130168 100.4732604  60.2782630
 139.2660504 100.3537955  60.2060956 140.5612941  99.5855102  60.3608891
 127.9697022  88.6330417  51.9691996 127.6409729  87.7527796  51.7867102
 128.3236393  88.5778086  52.8568386 137.2176601 100.2685320  56.4786982
 137.0701564  99.3402027  56.6594552 138.0430095 100.2905410  55.9944057
 131.0838846  88.9203387  52.3367474 131.4234918  89.4489308  51.6146082
 131.5310966  89.2583793  53.1126041 134.4298758  84.3889750  60.2397865
 135.2524828  83.9150228  60.1176755 134.6736822  85.1680234  60.7396551
 133.0706993  87.4178008  50.5360767 133.7915355  87.7959261  50.0324484
 132.4472297  88.1366885  50.6395745 137.2138116  88.1223157  51.4719099
 137.4301730  89.0047795  51.1707927 136.7332183  87.7309371  50.7424741
 131.9537337  91.0808871  58.0489844 131.8081918  91.3949174  58.9414125
 131.4762541  91.6993771  57.4960742 133.8133720  88.0711419  58.0970733
 133.7995289  87.1752512  57.7603031 134.5306148  88.0782082  58.7309019
 135.6659851  88.5048759  60.1423861 135.4077628  89.4265829  60.1408191
 135.1344891  88.1079193  60.8324325 140.6106039 101.6099546  52.9213946
 140.7842917 101.0445968  52.1687799 141.1034931 102.4100441  52.7393436
 126.4282999  93.6214215  60.9877505 125.8836467  94.3974023  61.1197779
 127.3062349  93.9685019  60.8296626 133.2170616  86.9525799  53.3658303
 133.3386527  86.0242445  53.5649191 132.9272658  86.9664485  52.4536619
 136.0861806  84.6380709  56.5025023 136.1083503  84.7020042  55.5477003
 136.5029865  83.7985218  56.6965529 135.1592684 102.2900090  63.6788052
 135.4679810 102.0449236  64.5510751 135.9568166 102.4946728  63.1906922
 135.1813296 104.4437999  55.9093428 134.7418286 103.9514378  56.6026285
 135.9321413 103.9010967  55.6685504 127.6605635 100.6349540  55.9118056
 128.4863655 100.3353312  55.5316700 127.3099687  99.8657162  56.3607845
 132.6287168  99.9876008  57.9815730 132.0067177  99.3246713  57.6817958
 133.2992035 100.0137140  57.2989378 125.8614240  98.5535866  56.8706990
 125.0246148  98.1258041  56.6890991 125.8337885  98.7468310  57.8077781
 132.1900675  98.5379932  51.4574191 132.3388795  99.2215396  50.8040863
 132.9967118  98.5185022  51.9723646 134.9310984  89.2189169  64.3294595
 134.0614293  89.5122735  64.0577183 135.1670464  89.8029614  65.0501858
 129.9453308  94.5645109  52.4635259 129.6999350  93.6607439  52.6615470
 130.1149222  94.5662260  51.5214737 137.6350018  85.4368786  61.8460015
 138.1531962  86.1729813  61.5206504 137.2805150  85.7432779  62.6806774
 129.2148955  90.2973467  49.9621421 128.5218200  90.3717822  49.3061457
 128.9700707  89.5333810  50.4842938 137.8862612  81.8569068  57.3660912
 138.1664366  81.1892257  57.9921338 138.6713219  82.0498164  56.8535575
 135.6896080 101.0328062  48.9285938 135.1170047 101.6518249  48.4756410
 136.2628874 101.5827424  49.4625860 139.7785850  87.3642285  61.2991888
 139.1835782  87.6447298  60.6038376 139.4935546  87.8536186  62.0708629
 138.9093340 101.3165212  50.0594520 139.8424013 101.2510774  50.2627396
 138.8216553 102.1521479  49.6009053 136.0742879  92.3688875  46.2701990
 137.0201984  92.2395083  46.3390408 135.6957124  91.6303537  46.7471419
 135.9581571  96.4206621  67.7302647 136.8784581  96.5985220  67.9242694
 135.9231154  95.4762666  67.5782347 134.2585796  90.2938851  46.2056876
 133.3517251  89.9971964  46.2819589 134.5361777  89.9968669  45.3391162
 128.9543644  94.3307656  60.3725429 129.1729654  95.2624763  60.3913462
 129.3669418  93.9715630  61.1580232 135.8747862  84.8375741  52.3601117
 135.0648590  84.4922826  52.7356363 136.5632279  84.5283285  52.9488729
 137.8038410  83.9153788  53.9825414 138.3569449  84.3349241  54.6415437
 138.0408496  82.9889536  54.0248370 133.8271509  89.9040861  69.7628178
 133.7268236  90.8535218  69.6940269 133.6093051  89.5759100  68.8904248
 133.0284581  87.1525786  46.3468855 133.8903745  87.4780685  46.6064672
 133.2134925  86.3657282  45.8341921 125.0451996  95.2348126  58.6249044
 124.3515468  94.8202079  58.1118998 125.7924987  95.2768663  58.0282463
 141.1817217  86.0254313  53.4904078 140.6015886  86.6839117  53.1082130
 140.9153150  85.2031657  53.0791495 139.6320783  85.4259371  55.6925398
 140.1320562  85.5375905  54.8839717 140.2756391  85.1220423  56.3326207
 133.6902779  93.3338000  68.5793239 133.2069861  94.1338360  68.7857128
 133.7763718  93.3445945  67.6260683 126.9588739  95.1666380  56.5015059
 126.9359427  95.2654067  55.5496942 127.2689375  96.0131531  56.8232225
 129.6176117  97.2242535  60.6161673 130.5719370  97.1926477  60.5491605
 129.4188640  96.7633159  61.4311899 130.2075499  95.7943651  63.1832471
 131.0268388  96.2887730  63.2067308 130.4812307  94.8775619  63.1550038
 139.9642095  88.1854403  52.5460426 139.0767950  88.4704054  52.3280621
 140.3796084  88.0248167  51.6987703 127.9726346 102.7662154  57.6331871
 127.8380813 102.0062555  57.0669869 127.5558408 103.4903054  57.1660660
 139.1085309  97.9499078  46.6408446 139.8121159  98.1549080  47.2566102
 138.3847957  98.5175840  46.9057530 139.9383119  93.7008939  52.7610716
 139.8818320  94.1577491  51.9218349 140.4911461  92.9399624  52.5833559
 131.1295471 103.6631471  57.8450313 131.0127856 104.6076904  57.7429004
 130.3087918 103.3605033  58.2336113 140.6717898  94.8913720  50.0563245
 140.6166702  94.7257992  49.1151690 140.0463953  95.5989753  50.2125435
 137.9863805  97.1962632  69.3816808 138.8554965  97.3703285  69.0203443
 137.5070557  98.0157049  69.2592538 133.9814024  84.3921829  49.6348564
 133.9692693  85.3363669  49.7916835 134.8737445  84.2091975  49.3408025
 132.1549986 104.3159733  61.0606242 133.0577232 104.3483344  61.3772737
 131.9287356 103.3860184  61.0752578 133.9103588 103.0690720  57.7216321
 132.9599219 103.0692581  57.6080693 134.2136074 102.3223454  57.2052355
 137.7966143  80.9864606  53.8894501 137.0298539  80.4323093  54.0351183
 138.2076848  81.0586475  54.7508652 139.8597235 112.2065354  57.5504719
 140.6518527 111.8656179  57.1351018 140.0993885 112.3160329  58.4706872
 139.4284209 108.5759136  57.4919284 139.5576590 108.8293615  58.4058696
 138.7481660 109.1686844  57.1723939 138.3753635 106.0481149  57.5370327
 137.5852689 106.3038677  57.0610437 138.8664882 106.8629487  57.6422367
 140.3268380 106.4125728  54.4953803 139.5299543 106.5244422  55.0137299
 140.0993972 106.7512380  53.6294694 136.6591338 106.3011639  59.9685317
 136.9099376 107.1858649  60.2342893 137.1950886 106.1216241  59.1960409
 139.3251463 112.1213977  52.8843223 139.8375983 112.9157227  53.0348788
 139.9774175 111.4240267  52.8176825 140.4198704 107.2844365  64.8428140
 140.3052219 106.3829622  65.1435239 139.5643222 107.5308062  64.4912956
 137.2900379 110.4502631  53.6602794 138.1275601 110.8599639  53.4436502
 137.4678647 109.5102073  53.6302988 137.3126551 107.7893346  54.3313527
 137.1150950 107.1962707  53.6064594 136.7573215 107.4845557  55.0489466
 139.8072776 107.3157380  52.0154479 138.8770364 107.2541836  52.2324442
 139.9030248 106.7933333  51.2191121 139.7258325 103.8412193  54.6032721
 139.9865143 104.7557526  54.4941882 140.5475498 103.3736636  54.7529334
 133.8726382 109.4743542  56.4981273 134.5597421 109.1605272  55.9102288
 133.7174510 110.3784906  56.2248524 138.6761104 104.3633738  60.9266296
 138.5919293 103.7559408  60.1916706 137.8543810 104.8542756  60.9275793
 138.8576703 114.9838535  60.0494297 139.4430140 114.2382223  60.1822201
 138.6601541 115.2942491  60.9330961 133.4494358 107.5544135  58.7698740
 133.4878457 107.0207726  59.5635858 132.9434651 107.0279340  58.1509717
 140.8285120 102.4008675  62.2661282 140.8926447 103.2623506  61.8538680
 140.7652240 101.7882677  61.5333641 140.3037393 104.4731808  65.9134316
 140.9309431 104.0908885  66.5271841 139.4465311 104.2546010  66.2790009
 137.0802935 106.2808237  51.8452671 137.3756376 105.3718915  51.7919725
 136.1790971 106.2595976  51.5233674 138.8090777 103.9622335  51.9691996
 138.4803483 103.0819714  51.7867102 139.1630148 103.9070003  52.8568386
 137.2676754 108.9506133  60.9877505 136.7230222 109.7265941  61.1197779
 138.1456104 109.2976937  60.8296626 138.0542776 108.0776029  63.8807662
 137.3124512 108.2258664  64.4672292 137.7335520 108.3384295  63.0174411
 138.4999389 115.9641458  55.9118056 139.3257409 115.6645230  55.5316700
 138.1493441 115.1949080  56.3607845 136.7007994 113.8827784  56.8706990
 135.8639903 113.4549958  56.6890991 136.6731640 114.0760227  57.8077781
 140.7847062 109.8937027  52.4635259 140.5393104 108.9899357  52.6615470
 140.9542977 109.8954177  51.5214737 140.0542710 105.6265384  49.9621421
 139.3611955 105.7009739  49.3061457 139.8094462 104.8625728  50.4842938
 136.0157491 106.9437132  56.6555922 135.6960275 106.0902440  56.3630296
 135.4690919 107.1585710  57.4113889 139.7937398 109.6599573  60.3725429
 140.0123408 110.5916681  60.3913462 140.2063172 109.3007548  61.1580232
 135.8845751 110.5640044  58.6249044 135.1909222 110.1493997  58.1118998
 136.6318742 110.6060580  58.0282463 137.7982493 110.4958298  56.5015059
 137.7753181 110.5945985  55.5496942 138.1083130 111.3423448  56.8232225
 138.8120100 118.0954072  57.6331871 138.6774568 117.3354473  57.0669869
 138.3952162 118.8194972  57.1660660 136.3004168 105.4573702  63.8824668
 136.9463031 104.9472656  64.3711893 136.0921319 106.1942384  64.4568093
  78.5621171   4.2767002  40.3155065  78.4845200   5.2274827  40.3943546
  77.9582814   3.9312875  40.9729991  80.8359540  -0.3650845  39.0360605
  80.7005214   0.4800691  39.4645453  81.3769352  -0.1631567  38.2726539
  76.0983822   0.2690350  41.6911283  76.2750450   1.1908314  41.5032267
  76.8940655  -0.0451231  42.1205663  77.2215137   1.7868523  47.6921625
  77.7722562   1.6585587  46.9198619  76.3826613   2.0863412  47.3416518
  83.4355700   3.7083361  35.4716328  82.7617399   4.0115058  36.0801286
  83.8221522   4.5112441  35.1221785  80.3461686   1.3261886  42.8678071
  80.3037865   1.5522732  41.9386603  81.2624385   1.0925261  43.0163872
  83.2822332   0.5843011  47.0152401  83.3359354   1.1533947  47.7830117
  82.4137113   0.7544896  46.6506438  81.6346915   3.8763033  37.6863407
  81.8098671   3.4051077  38.5009030  80.9479703   4.5028800  37.9144668
  76.2008000   7.0252396  44.4603267  76.4404599   7.6570920  45.1382286
  75.3577197   6.6740436  44.7468626  80.7135862   2.8331519  46.8644771
  80.6406034   3.6386490  47.3764076  80.2713255   3.0323485  46.0392793
  80.5025642   2.0703289  40.3747593  79.7193164   2.6124969  40.4685817
  81.2018387   2.5877268  40.7741834  83.1734546   2.7318353  49.0202930
  83.8862518   3.3665818  48.9478831  82.6824574   2.8282219  48.2042932
  78.2246459   0.4812796  49.8408501  78.9255919   1.1149279  49.9937895
  77.7541574   0.8227528  49.0804140  82.9854919   3.0717097  41.7689221
  83.1677314   2.2538753  42.2316974  83.8087905   3.2884789  41.3314111
  83.3197085   1.9985282  39.0304270  83.8484851   1.4877737  38.4174432
  83.5825304   1.6827812  39.8949803  73.8214177   0.0149151  46.7739603
  74.4067614  -0.7307161  46.9067508  73.6239016   0.3253108  47.6576267
  76.6752833   3.0500399  41.7902046  76.0063208   3.5346526  41.3066086
  76.5365702   3.2969619  42.7045424  80.8158101   5.0844142  48.3884704
  81.3676409   5.2475764  49.1533789  81.1564295   5.6748580  47.7164729
  83.9526488   3.0326118  45.3748386  83.8277628   2.2315858  44.8659332
  84.6105580   3.5272311  44.8862356  80.9623912   2.6502624  50.4033358
  81.2711039   2.4051770  51.2756058  81.7599394   2.8549262  49.9152229
  80.9844525   4.8040533  42.6338735  80.5449515   4.3116912  43.3271592
  81.7352641   4.2613501  42.3930810  73.4636864   0.9952074  42.6363363
  74.2894883   0.6955846  42.2562007  73.1130915   0.2259697  43.0853152
  78.4318397   0.3478542  44.7061037  77.8098406  -0.3150753  44.4063264
  79.1023264   0.3739674  44.0234684  71.6645469  -1.0861599  43.5952297
  70.8277377  -1.5139425  43.4136298  71.6369114  -0.8929156  44.5323088
  77.9931904  -1.1017534  38.1819497  78.1420024  -0.4182070  37.5286170
  78.7998347  -1.1212444  38.6968953  81.4927309   1.3930596  35.6531245
  80.9201276   2.0120783  35.2001716  82.0660103   1.9429958  36.1871167
  84.7124569   1.6767746  36.7839827  85.6455242   1.6113308  36.9872702
  84.6247782   2.5124013  36.3254360  73.7757574   3.1264689  44.3577177
  73.6412042   2.3665089  43.7915176  73.3589637   3.8505588  43.8905966
  76.9326700   4.0234006  44.5695620  76.8159084   4.9679438  44.4674310
  76.1119146   3.7207567  44.9581419  77.9581214   4.6762267  47.7851549
  78.8608461   4.7085878  48.1018044  77.7318584   3.7462718  47.7997884
  79.7134816   3.4293254  44.4461627  78.7630447   3.4295116  44.3325999
  80.0167303   2.6825989  43.9297662  95.4487510   9.2653792  45.5107390
  96.0865920   9.1460540  44.8070730  95.3308353  10.2134636  45.5695342
  92.2577216   9.2181221  45.4468914  91.9195728   9.1022285  44.5589449
  93.1266984   8.8172386  45.4269920  88.1164032  11.0716697  41.4365805
  87.5528897  10.9806634  40.6682093  88.0016427  10.2516601  41.9168298
  92.7396999  10.3716072  51.4055120  92.7285640   9.9768871  50.5335623
  92.9017639   9.6382145  51.9988891  85.6628464  12.5667889  44.2750026
  86.4549756  12.2258713  43.8596325  85.9025114  12.6762864  45.1952179
  93.6963591  14.7387665  36.7480270  93.0451570  15.3241745  36.3614284
  94.4907953  15.2693860  36.8075308  87.6219218  11.8276802  37.1467404
  88.3950094  11.2805789  37.0080280  87.9744617  12.6921051  37.3581866
  89.4604260  13.1553184  50.3534304  89.1694126  14.0598815  50.2380970
  90.0961245  13.1969712  51.0678373  90.3860467  10.5330033  46.9435663
  90.9824039  10.3086055  46.2292626  90.4435439   9.7914778  47.5461111
  89.9585496   7.9869468  34.7785854  90.2111016   7.4650989  34.0169317
  89.0210055   7.8235613  34.8812538  95.0028778   6.9905246  42.5860598
  95.7891868   6.5724669  42.2351015  95.2667483   7.8951338  42.7542246
  95.1738856  12.4278097  37.2849254  94.5384689  12.5012723  37.9970159
  94.8436262  13.0171695  36.6068334  89.6781784   9.8897574  36.9810229
  89.5618042   9.2142477  37.6491314  89.7884044   9.4029948  36.1642382
  92.0213325   9.3507721  40.6856919  91.6571532   8.8238342  41.3969840
  92.8780441   8.9606190  40.5123404  91.6618812   4.3797621  35.6818267
  91.8293215   5.2477857  36.0488738  91.4715981   4.5424902  34.7579556
  94.4194145  12.8414600  47.3484097  94.1194868  13.7439638  47.2399905
  94.0745205  12.5746783  48.2005250  87.8706627   9.2928396  43.3820802
  86.9457123   9.1604611  43.5898494  88.1191040  10.0722616  43.8790744
  91.6408033   6.8355278  36.6664934  91.5207658   7.2812329  37.5050414
  90.9460621   7.1840596  36.1078472  85.2315438   8.9361670  44.2164591
  85.3607819   9.1896149  45.1304003  84.5512889   9.5289378  43.8969246
  89.4014925  19.6058920  40.3155065  89.3238955  20.5566745  40.3943546
  88.7976569  19.2604792  40.9729991  91.8932155   6.7786785  52.9716432
  91.1165489   7.3380705  52.9619297  92.5322718   7.2643568  53.4931302
  97.3393099   7.3076751  37.4945268  98.2510955   7.5404138  37.3192966
  96.8302746   7.8913796  36.9320347  90.1478527   9.5872239  52.5334399
  90.8893212  10.1257283  52.2569223  89.4415513  10.2138527  52.6905951
  95.6233867  11.7301379  51.1306561  96.0317223  11.2883790  50.3861193
  94.9011128  11.1554007  51.3840753  91.9764937   6.6673986  48.5040117
  92.8226132   7.0913399  48.6474766  91.9163575   6.0107610  49.1978681
  95.9462682  12.2902570  44.8858849  95.3171544  12.4548284  44.1834917
  95.5588344  12.7044179  45.6569813  99.8251913  13.2257008  42.2403213
  99.1402952  13.6055909  41.6900246  99.9095763  13.8352334  42.9735161
  97.0802845  10.8716967  48.8398557  97.2919740  11.5148727  48.1632938
  97.0332593  10.0379283  48.3720487  91.4990643  12.0276978  42.1508935
  91.9628989  12.3064681  41.3613557  91.2347441  11.1260422  41.9682025
  88.3914724  11.5748459  45.0888698  88.9616082  12.0035728  44.4506182
  88.9822836  11.2931044  45.7872883  90.4359529   8.1500130  38.9598500
  91.1383573   8.6021174  39.4272426  90.1040158   7.5083949  39.5878393
  88.8839891   6.7411887  53.3349709  88.2538552   7.4228168  53.5685106
  88.7775979   6.6294968  52.3902847  84.1784863   6.4083683  44.2615633
  83.3883917   6.6641211  43.7855744  84.6696111   7.2232021  44.3667674
  98.1948673  13.7488922  47.0120914  99.0166117  13.3469109  46.7303596
  98.1911076  13.6457156  47.9637030  86.1299609   6.7728262  41.2199110
  85.3330772   6.8846956  41.7382606  85.9025201   7.1114914  40.3540000
  91.9605276  13.2972965  49.1681625  92.0249709  13.7593373  50.0039796
  91.2516200  12.6670330  49.2963934  82.4622566   6.6614173  46.6930624
  82.7130605   7.5461183  46.9588200  82.9982115   6.4818775  45.9205716
 106.2854666  10.0927671  43.3605886 105.5318374   9.5235069  43.2049890
 106.4202207  10.0590335  44.3076520  91.6753294  14.9641073  39.0360605
  91.5398969  15.8092609  39.4645453  92.2163107  15.1660351  38.2726539
  85.1282691  12.4816511  39.6088530  85.6407212  13.2759761  39.7594095
  85.7805404  11.7842801  39.5422131  86.9377576  15.5982267  41.6911283
  87.1144204  16.5200232  41.5032267  87.7334410  15.2840686  42.1205663
  86.2229933   7.6446899  51.5673446  86.1083448   6.7432156  51.8680545
  85.3674450   7.8910596  51.2158263  93.3021770  15.5864639  53.1660947
  92.8585625  14.8001018  52.8481851  93.9638984  15.7743790  52.5004838
  88.0608892  17.1160441  47.6921625  88.6116317  16.9877504  46.9198619
  87.2220368  17.4155330  47.3416518  95.4003009  15.8667439  51.1942348
  95.3821484  16.6876320  50.7022617  96.3222929  15.7421515  51.4192489
  91.8576063  13.3811569  52.0365857  92.3904399  12.6199857  51.8065165
  91.3290144  13.0885221  52.7790011  83.0931608  10.8105165  40.3848100
  83.9306830  11.2202174  40.1681808  83.2709876   9.8704607  40.3548294
  94.9896040   8.4780246  36.0731933  94.4742664   9.2484850  36.3120321
  94.7173349   7.8045382  36.6964995  99.9630314  11.2312601  38.0085107
  99.1859757  10.8923760  37.5640269 100.6421795  11.2365224  37.3340072
  94.7782344   6.3507338  37.8991715  94.4732479   6.6653487  38.7501858
  95.7312786   6.4288758  37.9419048  93.2228775  12.5097561  39.5484669
  92.6950137  11.7750321  39.2357906  92.7216278  13.2872238  39.3024637
  98.2021621  10.7046582  44.6651715  97.5445296  11.3945843  44.7531844
  99.0062021  11.0943014  45.0085701  87.9547503   3.1717228  41.9091280
  88.5291255   2.9492409  41.1764473  88.5418485   3.2405922  42.6619881
  97.0127080   9.0590954  42.7155657  97.5258962   9.6920946  43.2177366
  97.6628304   8.4592150  42.3499017  88.2817090   5.2021689  35.9287165
  87.4454402   5.5396375  36.2496440  88.1421860   5.0670668  34.9914302
  91.3681376  10.3277772  32.5519642  90.4608437  10.0967025  32.7510791
  91.8652408   9.5315391  32.7393623  94.2749454  19.0375279  35.4716328
  93.6011153  19.3406975  36.0801286  94.6615276  19.8404359  35.1221785
  93.4907911   6.5340410  44.9613997  92.5730472   6.7555357  44.8035685
  93.9068055   6.6086720  44.1025705  94.2742959   7.9331826  40.0916677
  95.0214778   8.4453223  39.7823799  94.5434548   7.6115878  40.9521071
  92.5469609  10.4290366  37.0743632  91.6380828  10.1449399  37.1716101
  92.5764693  10.8489445  36.2146939  97.7788876  14.0396956  40.8434799
  97.3251203  13.1987866  40.8999990  97.1482843  14.6758354  41.1809579
  96.2221816  15.8773453  41.7784617  96.5144790  16.4378510  41.0596983
  96.7320436  16.1702014  42.5337777  83.1157779   8.1495881  41.0558834
  82.9182179   7.5565241  40.3309901  82.5604443   7.8448091  41.7734773
  91.0954503   8.0418987  43.1753427  91.1503113   7.0892823  43.0995904
  90.2845705   8.1978426  43.6594726  92.2445697  11.9699110  34.4131710
  91.8065127  11.2534969  33.9537348  92.9856138  12.1975225  33.8516802
  89.0346863   6.6596047  40.9343806  88.2214728   6.9590217  41.3408998
  89.5305857   6.2651736  41.6518288  91.1855441  16.6553804  42.8678071
  91.1431620  16.8814650  41.9386603  92.1018140  16.4217178  43.0163872
  94.6321075   7.1237871  49.7658700  94.9870462   7.3509344  50.6253166
  95.2793206   7.4556248  49.1435955 100.3618812  10.2456307  40.4708029
 100.2236710  10.4357903  39.5429218 100.0055030  11.0075690  40.9276080
  88.5260938   4.2314402  46.5505041  89.1660317   4.0903161  45.8528004
  87.6938468   3.9448916  46.1743643 100.3888191  12.3132834  45.4819300
 100.8224698  12.2208123  46.3302354 101.1019772  12.2890335  44.8439316
  89.3021242  13.5316833  42.6640033  90.0961840  13.0367153  42.4622608
  88.5912934  13.0034696  42.3007739  94.1216086  15.9134928  47.0152401
  94.1753108  16.4825865  47.7830117  93.2530867  16.0836813  46.6506438
  85.6104005   7.6759914  38.7399786  84.6801593   7.6144370  38.9569748
  85.7061477   7.1535867  37.9436427  85.5289554   4.2014727  41.3278028
  85.7896371   5.1160061  41.2187188  86.3506726   3.7339170  41.4774641
  87.0014479   5.6152484  48.4976852  87.6737533   5.4069847  47.8489501
  86.1744266   5.4174570  48.0582085 101.2503741  12.3556535  48.0152186
 101.4439631  13.2602345  48.2611461 101.1504359  11.8963954  48.8490771
  96.3118849  12.5063278  53.5893066  96.1604356  12.2773829  52.6723150
  96.3023529  13.4633879  53.6024411  93.0804186  10.0795190  48.5739333
  94.0096246  10.2306350  48.4008300  92.6595216  10.1679211  47.7187979
  91.8792518  14.1045855  46.3437870  91.7403603  13.7364639  47.2163809
  91.0907114  14.6193494  46.1721828  92.4740670  19.2054951  37.6863407
  92.6492425  18.7342994  38.5009030  91.7873458  19.8320717  37.9144668
  93.4297733  13.4827457  43.7326708  93.0947565  13.4428227  44.6284358
  92.9301678  12.8172173  43.2597118  87.4041977   8.8895087  49.2579289
  87.2661775   8.1575326  49.8590828  88.3146900   8.8003988  48.9763477
  96.3656924  10.8283492  34.0063768  95.7486095  10.1030320  33.9096821
  95.8973413  11.5892852  33.6630842  90.0324277   8.6015047  48.7462969
  90.7423896   7.9608239  48.7049587  89.9893586   8.8527942  49.6689150
  98.0211056  15.5382400  51.6669548  97.9623602  14.8541620  51.0000131
  98.4230574  16.2801390  51.2150174  88.7453211   5.5880265  50.5658609
  88.2090568   5.1371003  51.2180205  88.1569920   5.7226173  49.8229073
  87.0401755  22.3544314  44.4603267  87.2798353  22.9862838  45.1382286
  86.1970951  22.0032354  44.7468626  88.1555470   5.0468916  33.1285072
  87.2784937   4.9257717  32.7647319  88.6313223   4.2554994  32.8763961
  98.0228463  13.5021984  49.8983528  97.1355242  13.1647906  50.0209927
  98.5927014  12.7705015  50.1352293  79.6757610   9.8346076  43.2226579
  80.3628650   9.5207806  42.6347595  79.5205739  10.7387440  42.9493831
  84.4792333   4.7236272  47.6511603  84.3950521   4.1161942  46.9162013
  83.6575039   5.2145291  47.6521099  91.5529617  18.1623436  46.8644771
  91.4799788  18.9678408  47.3764076  91.1107010  18.3615402  46.0392793
  91.3419396  17.3995206  40.3747593  90.5586918  17.9416887  40.4685817
  92.0412142  17.9169186  40.7741834 102.5045804   8.9130201  44.6600090
 102.4935680   9.7954917  44.2894023 101.6363183   8.5601752  44.4654627
  94.0128300  18.0610270  49.0202930  94.7256272  18.6957735  48.9478831
  93.5218329  18.1574136  48.2042932  95.7345827  11.9661523  40.5920221
  94.8002106  12.0862986  40.4224926  95.9122496  11.0633990  40.3280231
  91.2351015   5.3507219  42.7453483  90.8648803   4.7978259  43.4334388
  91.7310108   4.7465352  42.1928483  99.1218378   7.8078842  41.1270256
  99.5878831   8.6406834  41.0530558  99.5725879   7.3423824  41.8315514
  89.0640214  15.8104714  49.8408501  89.7649673  16.4441197  49.9937895
  88.5935329  16.1519445  49.0804140  97.1894610  14.1522664  38.1256408
  97.4654454  14.0379258  39.0350282  96.3199108  13.7540148  38.0868581
  96.8641500   8.3649321  47.6661051  96.2112950   8.6125229  47.0113504
  97.2421880   7.5513459  47.3323528  93.8248674  18.4009014  41.7689221
  94.0071068  17.5830670  42.2316974  94.6481660  18.6176707  41.3314111
  94.1590839  17.3277200  39.0304270  94.6878606  16.8169654  38.4174432
  94.4219059  17.0119730  39.8949803  92.9129073   9.1069132  54.1527088
  92.2369710   9.0063262  54.8229463  93.7356707   8.9508346  54.6163085
  84.6607932  15.3441069  46.7739603  85.2461369  14.5984757  46.9067508
  84.4632770  15.6545026  47.6576267  87.5146587  18.3792316  41.7902046
  86.8456962  18.8638444  41.3066086  87.3759457  18.6261537  42.7045424
  79.2525587   7.9146669  45.4944046  79.2909686   7.3810260  46.2881165
  78.7465879   7.3881875  44.8755024  91.6551856  20.4136060  48.3884704
  92.2070164  20.5767681  49.1533789  91.9958049  21.0040498  47.7164729
  86.6316349   2.7611210  48.9906589  86.6957675   3.6226041  48.5783986
  86.5683469   2.1485211  48.2578947  86.1068621   4.8334342  52.6379623
  86.7340660   4.4511419  53.2517147  85.2496540   4.6148544  53.0035316
  96.5062730  15.2397317  54.2433358  97.0502634  15.8527276  53.7488313
  95.9249575  15.7976896  54.7600371  82.8834164   6.6410771  38.5697978
  83.1787605   5.7321450  38.5165032  81.9822200   6.6198511  38.2478980
  94.7920243  18.3618035  45.3748386  94.6671382  17.5607775  44.8659332
  95.4499334  18.8564229  44.8862356  86.4128411   4.7166768  44.5525526
  85.6914997   5.3302736  44.4133000  87.2021667   5.2524533  44.4742172
  96.8555151  16.1627055  47.0027936  95.9085487  16.0432407  46.9306263
  97.2037924  15.2749553  47.0854198  84.6122006   4.3224869  38.6937303
  84.2834712   3.4422248  38.5112409  84.9661376   4.2672538  39.5813692
  93.8601585  15.9579772  43.2032289  93.7126547  15.0296479  43.3839859
  94.6855078  15.9799862  42.7189364  87.7263829   4.6097839  39.0612781
  88.0659901   5.1383760  38.3391389  88.1735949   4.9478245  39.8371347
  97.4635706  16.7808330  44.2897161  98.3882254  16.5751192  44.1521612
  97.2951010  16.5324732  45.1986503  89.7131976   3.1072460  37.2606073
  90.4340339   3.4853713  36.7569790  89.0897280   3.8261337  37.3641051
  88.5962320   6.7703323  44.7735150  88.4506901   7.0843626  45.6659432
  88.1187524   7.3888223  44.2206049  92.3084834   4.1943211  46.8669167
  92.0502612   5.1160281  46.8653498  91.7769874   3.7973645  47.5569631
  97.2531023  17.2993998  39.6459253  97.4267900  16.7340420  38.8933105
  97.7459914  18.0994893  39.4638743  83.0707982   9.3108667  47.7122812
  82.5261451  10.0868475  47.8443086  83.9487332   9.6579471  47.5541933
 103.1070414  10.0630421  41.2649552 103.5501560   9.3137746  40.8668676
 102.2296924  10.0540557  40.8823284  98.2406195  16.6160762  36.7456151
  98.9357100  17.2367455  36.9643466  98.5829345  15.7656113  37.0208529
  83.8574004   8.4378563  50.6052968  83.1155740   8.5861199  51.1917599
  83.5366749   8.6986829  49.7419718 100.1397618  14.0660468  38.2743482
 100.6648942  14.4047741  37.5492802 100.0519971  13.1307483  38.0906616
  91.8017667  17.9794541  50.4033358  92.1104793  17.7343688  51.2756058
  92.5993149  18.1841180  49.9152229  91.8238279  20.1332451  42.6338735
  91.3843269  19.6408830  43.3271592  92.5746396  19.5905419  42.3930810
  84.3030618  16.3243992  42.6363363  85.1288638  16.0247764  42.2562007
  83.9524670  15.5551614  43.0853152  89.2712151  15.6770460  44.7061037
  88.6492160  15.0141165  44.4063264  89.9417018  15.7031592  44.0234684
  82.5039223  14.2430318  43.5952297  81.6671131  13.8152493  43.4136298
  82.4762868  14.4362762  44.5323088  89.3436679   4.1552248  54.2993543
  89.3924834   5.0314371  53.9171312  89.8859193   3.6129641  53.7265186
  99.8291524  14.6993371  53.5794680  99.0387068  14.6817510  53.0399179
  99.5924879  15.2381665  54.3343716  99.9489399  11.5485838  50.8927408
  99.9987404  11.3835845  51.8342931  99.8403323  10.6813097  50.5025289
  88.8325658  14.2274383  38.1819497  88.9813778  14.9109848  37.5286170
  89.6392102  14.2079474  38.6968953  97.2393162   7.5316766  52.2086715
  98.1403025   7.3923231  51.9170713  97.3141136   7.6971221  53.1484892
  91.5735967   4.9083621  51.0539901  90.7039277   5.2017187  50.7822490
  91.8095447   5.4924066  51.7747165 101.4507596  13.9682779  51.1369430
 101.1592405  14.3312760  51.9732891 100.8379727  13.2549788  50.9582762
 102.6503279  11.5335659  43.6572000 103.4850170  11.9725463  43.8209560
 102.7862407  11.0574312  42.8380246  99.6994784   9.0915394  49.6049488
 100.1748906   9.2843040  48.7968339  98.7760350   9.1474580  49.3592871
  86.5878291  10.2539561  39.1880566  86.3424333   9.3501891  39.3860776
  86.7574206  10.2556712  38.2460044  85.8573939   5.9867919  36.6866728
  85.1643184   6.0612274  36.0306764  85.6125690   5.2228262  37.2088244
  92.3321064  16.7222514  35.6531245  91.7595031  17.3412701  35.2001716
  92.9053857  17.2721876  36.1871167  95.5518323  17.0059664  36.7839827
  96.4848997  16.9405226  36.9872702  95.4641536  17.8415931  36.3254360
  98.1806340  16.3225534  33.7443774  98.1019972  15.9885398  34.6379532
  99.0016007  16.8147302  33.7435247 100.8784531   9.1887274  46.9520093
 100.8460851   8.2503274  47.1379777 101.4885155   9.2671310  46.2185918
  92.7167862   8.0583327  32.9947297  93.6626967   7.9289535  33.0635715
  92.3382107   7.3197989  33.4716725 106.6961081  10.2503281  46.0926130
 107.4264470   9.9888569  46.6533833 106.0868027   9.5132002  46.1328198
 104.7776378   8.3911143  46.6900581 104.0509542   8.2567108  46.0817073
 104.3623665   8.6987972  47.4957299  92.6006555  12.1101073  54.4547954
  93.5209564  12.2879672  54.6488001  92.5656138  11.1657118  54.3027653
  90.9010779   5.9833303  32.9302182  89.9942235   5.6866416  33.0064896
  91.1786760   5.6863121  32.0636469  81.8188720   7.3039666  43.3801229
  81.4991504   6.4504975  43.0875603  81.2722148   7.5188245  44.1359196
  85.5968627  10.0202107  47.0970735  85.8154637  10.9519215  47.1158769
  86.0094401   9.6610082  47.8825539  90.4696492   5.5935313  56.4873484
  90.3693219   6.5429670  56.4185575  90.2518035   5.2653552  55.6149554
  81.6876980  10.9242578  45.3494350  80.9940451  10.5096531  44.8364305
  82.4349971  10.9663114  44.7527769  90.3327763   9.0232452  55.3038546
  89.8494844   9.8232812  55.5102435  90.4188702   9.0340397  54.3505990
  83.6013722  10.8560832  43.2260365  83.5784410  10.9548519  42.2742248
  83.9114359  11.7025983  43.5477531  86.2601100  12.9136987  47.3406980
  87.2144354  12.8820929  47.2736911  86.0613624  12.4527610  48.1557206
  86.8500482  11.4838103  49.9077777  87.6693371  11.9782181  49.9312615
  87.1237290  10.5670071  49.8795345  84.6151329  18.4556606  44.3577177
  84.4805797  17.6957007  43.7915176  84.1983391  19.1797506  43.8905966
  95.7510292  13.6393530  33.3653753  96.4546142  13.8443532  33.9811408
  95.0272941  14.2070292  33.6302836  96.5808102   9.3903391  39.4856023
  96.5243304   9.8471942  38.6463655  97.1336445   8.6294076  39.3078866
  87.7720455  19.3525923  44.5695620  87.6552839  20.2971356  44.4674310
  86.9512901  19.0499485  44.9581419  97.6596989  14.0776059  35.4152213
  98.4942593  13.6457257  35.2329688  97.4981332  13.9058073  36.3429107
  97.3142881  10.5808172  36.7808552  97.2591685  10.4152444  35.8396996
  96.6888937  11.2884205  36.9370742  82.1035396   5.8176237  50.6069974
  82.7494260   5.3075191  51.0957200  81.8952548   6.5544918  51.1813400
  94.6288789  12.8857084  56.1062115  95.4979948  13.0597736  55.7448750
  94.1495540  13.7051501  55.9837844  88.7974969  20.0054185  47.7851549
  89.7002216  20.0377795  48.1018044  88.5712339  19.0754636  47.7997884
  90.5528571  18.7585172  44.4461627  89.6024202  18.7587033  44.3325999
  90.8561057  18.0117906  43.9297662  86.4432887   2.9643854  54.7044989
  87.3064349   2.6080659  54.9148313  85.8698298   2.6257749  55.3920393
 106.2881264  24.5945710  45.5107390 106.9259674  24.4752457  44.8070730
 106.1702107  25.5426554  45.5695342 103.0970971  24.5473138  45.4468914
 102.7589482  24.4314203  44.5589449 103.9660739  24.1464303  45.4269920
  98.9557786  26.4008615  41.4365805  98.3922651  26.3098552  40.6682093
  98.8410181  25.5808519  41.9168298 103.5790754  25.7007990  51.4055120
 103.5679394  25.3060788  50.5335623 103.7411393  24.9674063  51.9988891
  96.5022218  27.8959806  44.2750026  97.2943510  27.5550631  43.8596325
  96.7418868  28.0054781  45.1952179 104.5357345  30.0679582  36.7480270
 103.8845325  30.6533663  36.3614284 105.3301708  30.5985777  36.8075308
  98.4612972  27.1568719  37.1467404  99.2343848  26.6097707  37.0080280
  98.8138371  28.0212969  37.3581866 100.2998015  28.4845102  50.3534304
 100.0087881  29.3890733  50.2380970 100.9354999  28.5261629  51.0678373
 101.2254222  25.8621950  46.9435663 101.8217794  25.6377973  46.2292626
 101.2829193  25.1206696  47.5461111 100.7979250  23.3161386  34.7785854
 101.0504771  22.7942907  34.0169317  99.8603809  23.1527531  34.8812538
 105.8422533  22.3197164  42.5860598 106.6285622  21.9016587  42.2351015
 106.1061237  23.2243256  42.7542246 106.0132610  27.7570014  37.2849254
 105.3778443  27.8304641  37.9970159 105.6830017  28.3463613  36.6068334
 111.2430960  22.2572397  43.4893576 111.9756132  21.6871614  43.7231406
 110.4870316  21.8693998  43.9300082 100.5175539  25.2189492  36.9810229
 100.4011797  24.5434395  37.6491314 100.6277799  24.7321865  36.1642382
 102.8607080  24.6799639  40.6856919 102.4965287  24.1530260  41.3969840
 103.7174196  24.2898108  40.5123404 108.7656380  15.9693971  47.9488185
 108.4339705  16.8389382  47.7249400 108.1701994  15.6530255  48.6282215
 102.5012567  19.7089538  35.6818267 102.6686969  20.5769775  36.0488738
 102.3109736  19.8716820  34.7579556 105.2587900  28.1706517  47.3484097
 104.9588623  29.0731556  47.2399905 104.9138959  27.9038700  48.2005250
  98.7100381  24.6220314  43.3820802  97.7850878  24.4896528  43.5898494
  98.9584795  25.4014533  43.8790744 108.6585044  20.6889057  45.0281535
 107.7501921  20.6204466  44.7340296 108.6072639  21.1661002  45.8563360
 102.4801788  22.1647196  36.6664934 102.3601413  22.6104247  37.5050414
 101.7854376  22.5132514  36.1078472  96.0709192  24.2653588  44.2164591
  96.2001574  24.5188067  45.1304003  95.3906644  24.8581296  43.8969246
 100.2408680  34.9350838  40.3155065 100.1632709  35.8858663  40.3943546
  99.6370323  34.5896710  40.9729991 102.7325909  22.1078703  52.9716432
 101.9559243  22.6672623  52.9619297 103.3716472  22.5935486  53.4931302
 110.5246690  18.8905496  46.8059409 109.8821070  19.1838029  46.1599203
 110.0201619  18.7758416  47.6112605 108.1786854  22.6368669  37.4945268
 109.0904710  22.8696056  37.3192966 107.6696501  23.2205713  36.9320347
 100.9872282  24.9164156  52.5334399 101.7286966  25.4549200  52.2569223
 100.2809267  25.5430445  52.6905951 106.4627621  27.0593297  51.1306561
 106.8710977  26.6175707  50.3861193 105.7404883  26.4845924  51.3840753
 102.8158691  21.9965904  48.5040117 103.6619887  22.4205317  48.6474766
 102.7557329  21.3399528  49.1978681 106.7856436  27.6194487  44.8858849
 106.1565298  27.7840202  44.1834917 106.3982098  28.0336097  45.6569813
 110.6645668  28.5548925  42.2403213 109.9796706  28.9347827  41.6900246
 110.7489517  29.1644252  42.9735161 105.9658137  19.6570272  50.1621291
 105.7219069  20.4112333  49.6255567 106.2418067  20.0355620  50.9968538
 107.9196599  26.2008884  48.8398557 108.1313495  26.8440644  48.1632938
 107.8726348  25.3671201  48.3720487 105.5222828  18.8126705  45.7435129
 104.6607307  19.1107959  46.0351866 105.5485263  19.0297104  44.8116161
 102.3384398  27.3568896  42.1508935 102.8022743  27.6356599  41.3613557
 102.0741196  26.4552340  41.9682025  99.2308479  26.9040377  45.0888698
  99.8009836  27.3327645  44.4506182  99.8216591  26.6222962  45.7872883
 101.2753284  23.4792048  38.9598500 101.9777327  23.9313092  39.4272426
 100.9433912  22.8375867  39.5878393  99.7233645  22.0703805  53.3349709
  99.0932306  22.7520085  53.5685106  99.6169733  21.9586886  52.3902847
  95.0178618  21.7375601  44.2615633  94.2277672  21.9933129  43.7855744
  95.5089865  22.5523938  44.3667674 109.0342427  29.0780840  47.0120914
 109.8559871  28.6761027  46.7303596 109.0304830  28.9749074  47.9637030
  96.9693363  22.1020180  41.2199110  96.1724527  22.2138874  41.7382606
  96.7418955  22.4406832  40.3540000 102.7999031  28.6264883  49.1681625
 102.8643463  29.0885290  50.0039796 102.0909955  27.9962248  49.2963934
  93.3016321  21.9906091  46.6930624  93.5524359  22.8753101  46.9588200
  93.8375869  21.8110693  45.9205716 117.1248420  25.4219588  43.3605886
 116.3712129  24.8526986  43.2049890 117.2595962  25.3882253  44.3076520
 102.5147049  30.2932991  39.0360605 102.3792723  31.1384526  39.4645453
 103.0556861  30.4952268  38.2726539  99.0014388  16.3724570  55.6974960
  98.6081334  15.8190769  56.3722604  99.8180529  16.6835149  56.0881478
  95.9676446  27.8108429  39.6088530  96.4800967  28.6051679  39.7594095
  96.6199159  27.1134719  39.5422131  97.7771331  30.9274185  41.6911283
  97.9537959  31.8492150  41.5032267  98.5728164  30.6132604  42.1205663
 101.9182349  17.7882449  53.2895217 102.6592063  18.3889603  53.2099679
 102.1500272  17.0460087  52.7313259  97.0623687  22.9738817  51.5673446
  96.9477202  22.0724074  51.8680545  96.2068205  23.2202514  51.2158263
 104.1415525  30.9156557  53.1660947 103.6979379  30.1292936  52.8481851
 104.8032739  31.1035708  52.5004838  98.9002646  32.4452359  47.6921625
  99.4510071  32.3169422  46.9198619  98.0614122  32.7447248  47.3416518
 106.2396763  31.1959357  51.1942348 106.2215238  32.0168238  50.7022617
 107.1616683  31.0713432  51.4192489 102.6969817  28.7103486  52.0365857
 103.2298154  27.9491775  51.8065165 102.1683898  28.4177138  52.7790011
 105.8639512  13.8163552  47.5659498 105.5203782  14.7065194  47.4898609
 106.2318475  13.6265210  46.7029083  93.9325363  26.1397083  40.3848100
  94.7700585  26.5494091  40.1681808  94.1103630  25.1996525  40.3548294
 105.8289795  23.8072164  36.0731933 105.3136418  24.5776768  36.3120321
 105.5567103  23.1337300  36.6964995 103.4136906  18.6521864  41.1317172
 102.5578502  18.2628715  40.9522811 103.8263858  18.7313825  40.2716957
 104.9436053  16.1868208  45.5308732 104.4400848  16.1498343  44.7176537
 105.2366659  17.0960950  45.5905388 101.1878938  16.2706937  44.5374913
 102.0531935  16.0749746  44.1780803 101.2556447  16.0417289  45.4644270
 110.8024069  26.5604518  38.0085107 110.0253512  26.2215678  37.5640269
 111.4815550  26.5657141  37.3340072 105.6176098  21.6799256  37.8991715
 105.3126234  21.9945405  38.7501858 106.5706540  21.7580676  37.9419048
 104.0622530  27.8389479  39.5484669 103.5343891  27.1042239  39.2357906
 103.5610033  28.6164155  39.3024637 109.0415376  26.0338499  44.6651715
 108.3839050  26.7237761  44.7531844 109.8455775  26.4234931  45.0085701
  98.7941257  18.5009145  41.9091280  99.3685009  18.2784327  41.1764473
  99.3812240  18.5697840  42.6619881 107.8520835  24.3882872  42.7155657
 108.3652716  25.0212864  43.2177366 108.5022059  23.7884068  42.3499017
  99.1210845  20.5313606  35.9287165  98.2848157  20.8688293  36.2496440
  98.9815614  20.3962586  34.9914302 101.0963925  15.3750394  40.6366350
 100.4428338  15.0599411  40.0122964 101.0544399  14.7526135  41.3626172
 102.2075130  25.6569689  32.5519642 101.3002192  25.4258943  32.7510791
 102.7046162  24.8607308  32.7393623 105.1143209  34.3667196  35.4716328
 104.4404908  34.6698893  36.0801286 105.5009031  35.1696277  35.1221785
 104.3301666  21.8632328  44.9613997 103.4124227  22.0847275  44.8035685
 104.7461809  21.9378638  44.1025705 105.1136713  23.2623743  40.0916677
 105.8608532  23.7745141  39.7823799 105.3828303  22.9407796  40.9521071
 103.3863363  25.7582284  37.0743632 102.4774583  25.4741317  37.1716101
 103.4158447  26.1781363  36.2146939 108.6182631  29.3688874  40.8434799
 108.1644958  28.5279783  40.8999990 107.9876598  30.0050272  41.1809579
 107.5615550  20.2980860  42.0735467 106.8238307  19.7858246  42.4045709
 107.8142324  19.8581241  41.2618744 107.0615570  31.2065370  41.7784617
 107.3538545  31.7670427  41.0596983 107.5714191  31.4993931  42.5337777
 107.6627178  13.0757112  42.6677236 107.9686055  12.2154475  42.3803151
 108.3879783  13.6674732  42.4676230  93.9551534  23.4787798  41.0558834
  93.7575934  22.8857159  40.3309901  93.3998198  23.1740008  41.7734773
 101.9348258  23.3710905  43.1753427 101.9896867  22.4184741  43.0995904
 101.1239460  23.5270344  43.6594726 103.0839451  27.2991028  34.4131710
 102.6458881  26.5826887  33.9537348 103.8249892  27.5267143  33.8516802
  99.8740617  21.9887964  40.9343806  99.0608483  22.2882135  41.3408998
 100.3699612  21.5943653  41.6518288 102.0249195  31.9845721  42.8678071
 101.9825374  32.2106568  41.9386603 102.9411894  31.7509096  43.0163872
 105.4714829  22.4529789  49.7658700 105.8264217  22.6801262  50.6253166
 106.1186960  22.7848166  49.1435955 111.2012566  25.5748225  40.4708029
 111.0630465  25.7649821  39.5429218 110.8448785  26.3367608  40.9276080
  99.3654692  19.5606320  46.5505041 100.0054072  19.4195079  45.8528004
  98.5332223  19.2740833  46.1743643 111.2281946  27.6424752  45.4819300
 111.6618452  27.5500041  46.3302354 111.9413526  27.6182252  44.8439316
 100.1414996  28.8608750  42.6640033 100.9355595  28.3659071  42.4622608
  99.4306688  28.3326614  42.3007739 104.9609841  31.2426846  47.0152401
 105.0146863  31.8117782  47.7830117 104.0924622  31.4128731  46.6506438
  96.4497760  23.0051832  38.7399786  95.5195348  22.9436288  38.9569748
  96.5455232  22.4827785  37.9436427  96.3683309  19.5306645  41.3278028
  96.6290126  20.4451978  41.2187188  97.1900481  19.0631088  41.4774641
  97.8408234  20.9444402  48.4976852  98.5131287  20.7361764  47.8489501
  97.0138020  20.7466488  48.0582085 112.0897495  27.6848452  48.0152186
 112.2833385  28.5894263  48.2611461 111.9898113  27.2255872  48.8490771
 103.7433806  17.5706343  50.5142513 103.0961721  18.2696293  50.4206990
 104.5134821  18.0042487  50.8818761 107.1512604  27.8355195  53.5893066
 106.9998110  27.6065747  52.6723150 107.1417283  28.7925797  53.6024411
 103.9197940  25.4087108  48.5739333 104.8490000  25.5598268  48.4008300
 103.4988970  25.4971129  47.7187979 102.7186272  29.4337772  46.3437870
 102.5797358  29.0656557  47.2163809 101.9300868  29.9485412  46.1721828
 103.3134424  34.5346869  37.6863407 103.4886180  34.0634912  38.5009030
 102.6267212  35.1612635  37.9144668 104.2691487  28.8119375  43.7326708
 103.9341320  28.7720145  44.6284358 103.7695433  28.1464091  43.2597118
  98.2435731  24.2187005  49.2579289  98.1055529  23.4867244  49.8590828
  99.1540655  24.1295905  48.9763477 107.2050679  26.1575409  34.0063768
 106.5879850  25.4322238  33.9096821 106.7367167  26.9184770  33.6630842
 100.8718032  23.9306964  48.7462969 101.5817650  23.2900157  48.7049587
 100.8287340  24.1819859  49.6689150 108.8604811  30.8674318  51.6669548
 108.8017357  30.1833538  51.0000131 109.2624329  31.6093308  51.2150174
  99.5846966  20.9172182  50.5658609  99.0484323  20.4662921  51.2180205
  98.9963674  21.0518091  49.8229073  97.8795509  37.6836232  44.4603267
  98.1192108  38.3154756  45.1382286  97.0364706  37.3324272  44.7468626
  98.9949225  20.3760834  33.1285072  98.1178691  20.2549634  32.7647319
  99.4706978  19.5846912  32.8763961 108.8622218  28.8313902  49.8983528
 107.9748997  28.4939823  50.0209927 109.4320769  28.0996933  50.1352293
  90.5151365  25.1637993  43.2226579  91.2022405  24.8499723  42.6347595
  90.3599494  26.0679358  42.9493831  95.3186087  20.0528190  47.6511603
  95.2344276  19.4453860  46.9162013  94.4968793  20.5437208  47.6521099
 102.3923371  33.4915354  46.8644771 102.3193543  34.2970326  47.3764076
 101.9500764  33.6907320  46.0392793 102.1813151  32.7287124  40.3747593
 101.3980673  33.2708804  40.4685817 102.8805896  33.2461104  40.7741834
 105.4909801  18.5381754  43.0181798 105.9878500  17.7851716  42.6982868
 104.7196782  18.5746070  42.4525007 113.3439558  24.2422119  44.6600090
 113.3329435  25.1246834  44.2894023 112.4756938  23.8893670  44.4654627
 104.8522055  33.3902188  49.0202930 105.5650027  34.0249653  48.9478831
 104.3612083  33.4866054  48.2042932 106.5739582  27.2953441  40.5920221
 105.6395860  27.4154903  40.4224926 106.7516250  26.3925908  40.3280231
 102.0744770  20.6799137  42.7453483 101.7042557  20.1270177  43.4334388
 102.5703862  20.0757270  42.1928483 109.9612133  23.1370760  41.1270256
 110.4272585  23.9698752  41.0530558 110.4119633  22.6715742  41.8315514
  99.9033968  31.1396632  49.8408501 100.6043428  31.7733114  49.9937895
  99.4329083  31.4811363  49.0804140 108.0288364  29.4814581  38.1256408
 108.3048208  29.3671176  39.0350282 107.1592863  29.0832066  38.0868581
 107.9328796  15.5051347  45.1661157 107.0191876  15.7355574  45.3343364
 108.3621897  15.5889791  46.0175189 107.7035254  23.6941239  47.6661051
 107.0506704  23.9417146  47.0113504 108.0815634  22.8805377  47.3323528
 104.6642428  33.7300932  41.7689221 104.8464823  32.9122588  42.2316974
 105.4875414  33.9468624  41.3314111 104.9984594  32.6569117  39.0304270
 105.5272360  32.1461572  38.4174432 105.2612813  32.3411647  39.8949803
 103.7522827  24.4361050  54.1527088 103.0763464  24.3355179  54.8229463
 104.5750461  24.2800264  54.6163085  95.5001686  30.6732987  46.7739603
  96.0855123  29.9276674  46.9067508  95.3026525  30.9836943  47.6576267
  98.3540342  33.7084234  41.7902046  97.6850717  34.1930362  41.3066086
  98.2153211  33.9553454  42.7045424  90.0919341  23.2438587  45.4944046
  90.1303441  22.7102177  46.2881165  89.5859634  22.7173792  44.8755024
 102.4945610  35.7427977  48.3884704 103.0463918  35.9059599  49.1533789
 102.8351804  36.3332415  47.7164729  97.4710103  18.0903127  48.9906589
  97.5351430  18.9517958  48.5783986  97.4077224  17.4777129  48.2578947
  96.9462376  20.1626260  52.6379623  97.5734415  19.7803337  53.2517147
  96.0890295  19.9440462  53.0035316 107.3456484  30.5689235  54.2433358
 107.8896388  31.1819193  53.7488313 106.7643329  31.1268813  54.7600371
  93.7227919  21.9702689  38.5697978  94.0181360  21.0613367  38.5165032
  92.8215954  21.9490428  38.2478980 105.6313997  33.6909953  45.3748386
 105.5065137  32.8899693  44.8659332 106.2893089  34.1856146  44.8862356
  97.2522166  20.0458686  44.5525526  96.5308751  20.6594653  44.4133000
  98.0415421  20.5816450  44.4742172 107.6948906  31.4918973  47.0027936
 106.7479241  31.3724324  46.9306263 108.0431679  30.6041471  47.0854198
 100.0548479  17.3813112  50.8266178 100.5782881  17.6275409  51.5892488
  99.8360812  18.2133147  50.4069316  95.4515760  19.6516787  38.6937303
  95.1228466  18.7714166  38.5112409  95.8055131  19.5964455  39.5813692
 104.6995339  31.2871689  43.2032289 104.5520302  30.3588397  43.3839859
 105.5248833  31.3091780  42.7189364  98.5657583  19.9389756  39.0612781
  98.9053656  20.4675678  38.3391389  99.0129704  20.2770163  39.8371347
 108.3029461  32.1100248  44.2897161 109.2276008  31.9043109  44.1521612
 108.1344764  31.8616649  45.1986503 101.2601024  18.3226807  48.5115849
 100.9197845  17.5234620  48.9136529 100.5540030  18.6228518  47.9392682
 101.9117496  15.4076120  46.9643172 102.7343565  14.9336598  46.8422062
 102.1555560  16.1866603  47.4641858 100.5525731  18.4364378  37.2606073
 101.2734093  18.8145631  36.7569790  99.9291035  19.1553255  37.3641051
 104.6956853  19.1409527  38.1964406 104.9120468  20.0234165  37.8953234
 104.2150921  18.7495740  37.4670048  99.4356075  22.0995240  44.7735150
  99.2900656  22.4135543  45.6659432  98.9581278  22.7180141  44.2206049
 101.2952458  19.0897788  44.8216040 101.2814026  18.1938881  44.4848338
 102.0124886  19.0968452  45.4554326 103.1478588  19.5235128  46.8669167
 102.8896366  20.4452199  46.8653498 102.6163629  19.1265563  47.5569631
 108.0924777  32.6285915  39.6459253 108.2661655  32.0632338  38.8933105
 108.5853668  33.4286810  39.4638743  93.9101737  24.6400585  47.7122812
  93.3655205  25.4160393  47.8443086  94.7881087  24.9871389  47.5541933
 100.6989354  17.9712168  40.0903610 100.8205265  17.0428815  40.2894498
 100.4091396  17.9850854  39.1781925 103.5680544  15.6567079  43.2270330
 103.5902241  15.7206412  42.2722309 103.9848603  14.8171588  43.4210836
 113.9464168  25.3922338  41.2649552 114.3895314  24.6429664  40.8668676
 113.0690679  25.3832475  40.8823284 109.0799950  31.9452680  36.7456151
 109.7750854  32.5659373  36.9643466 109.4223100  31.0948031  37.0208529
  94.6967759  23.7670481  50.6052968  93.9549495  23.9153116  51.1917599
  94.3760503  24.0278746  49.7419718 110.9791373  29.3952385  38.2743482
 111.5042697  29.7339658  37.5492802 110.8913725  28.4599401  38.0906616
 102.6411421  33.3086459  50.4033358 102.9498548  33.0635606  51.2756058
 103.4386903  33.5133098  49.9152229 102.6632034  35.4624369  42.6338735
 102.2237024  34.9700747  43.3271592 103.4140150  34.9197336  42.3930810
  95.1424372  31.6535910  42.6363363  95.9682392  31.3539681  42.2562007
  94.7918424  30.8843532  43.0853152 100.1105906  31.0062378  44.7061037
  99.4885915  30.3433083  44.4063264 100.7810773  31.0323510  44.0234684
  93.3432978  29.5722236  43.5952297  92.5064886  29.1444410  43.4136298
  93.3156623  29.7654679  44.5323088 100.1830433  19.4844166  54.2993543
 100.2318589  20.3606289  53.9171312 100.7252947  18.9421559  53.7265186
 110.6685279  30.0285289  53.5794680 109.8780823  30.0109428  53.0399179
 110.4318633  30.5673583  54.3343716 110.7883154  26.8777755  50.8927408
 110.8381159  26.7127763  51.8342931 110.6797077  26.0105014  50.5025289
  99.6719413  29.5566301  38.1819497  99.8207533  30.2401766  37.5286170
 100.4785856  29.5371391  38.6968953 108.0786916  22.8608683  52.2086715
 108.9796779  22.7215148  51.9170713 108.1534891  23.0263138  53.1484892
 102.4129722  20.2375538  51.0539901 101.5433031  20.5309104  50.7822490
 102.6489202  20.8215983  51.7747165 112.2901351  29.2974697  51.1369430
 111.9986159  29.6604678  51.9732891 111.6773482  28.5841705  50.9582762
 113.4897033  26.8627577  43.6572000 114.3243924  27.3017381  43.8209560
 113.6256162  26.3866230  42.8380246 110.5388539  24.4207312  49.6049488
 111.0142661  24.6134958  48.7968339 109.6154104  24.4766497  49.3592871
  97.4272046  25.5831479  39.1880566  97.1818087  24.6793809  39.3860776
  97.5967960  25.5848629  38.2460044 105.1168755  16.4555155  48.5705322
 105.6350699  17.1916182  48.2451810 104.7623888  16.7619148  49.4052081
  96.6967693  21.3159836  36.6866728  96.0036938  21.3904191  36.0306764
  96.4519445  20.5520180  37.2088244 105.3681350  12.8755438  44.0906218
 105.6483103  12.2078627  44.7166645 106.1531957  13.0684533  43.5780882
 103.1714818  32.0514432  35.6531245 102.5988785  32.6704619  35.2001716
 103.7447612  32.6013793  36.1871167 109.2390208  21.2973072  47.8377793
 110.1907631  21.3971169  47.8590017 109.0693658  20.5051340  48.3475878
 107.2604587  18.3828655  48.0237194 106.6654520  18.6633668  47.3283683
 106.9754284  18.8722556  48.7953935 106.3912078  32.3351582  36.7839827
 107.3242751  32.2697143  36.9872702 106.3035291  33.1707849  36.3254360
 109.0200095  31.6517452  33.7443774 108.9413726  31.3177316  34.6379532
 109.8409761  32.1439220  33.7435247 111.7178286  24.5179191  46.9520093
 111.6854606  23.5795192  47.1379777 112.3278909  24.5963228  46.2185918
 103.5561617  23.3875244  32.9947297 104.5020721  23.2581452  33.0635715
 103.1775862  22.6489906  33.4716725 111.8672774  21.3090235  46.9978376
 111.3511823  20.5248691  46.8108305 112.7512723  20.9808951  47.1624896
 109.5283501  15.0531250  42.9574189 109.3308322  14.7446339  43.8417521
 110.1383207  15.7792889  43.0872119 117.5354836  25.5795198  46.0926130
 118.2658224  25.3180486  46.6533833 116.9261781  24.8423920  46.1328198
 115.6170133  23.7203061  46.6900581 114.8903296  23.5859026  46.0817073
 115.2017420  24.0279889  47.4957299 103.4400309  27.4392990  54.4547954
 104.3603319  27.6171589  54.6488001 103.4049892  26.4949036  54.3027653
 101.7404534  21.3125221  32.9302182 100.8335989  21.0158333  33.0064896
 102.0180515  21.0155039  32.0636469  92.6582474  22.6331584  43.3801229
  92.3385258  21.7796892  43.0875603  92.1115902  22.8480162  44.1359196
  96.4362382  25.3494025  47.0970735  96.6548391  26.2811133  47.1158769
  96.8488155  24.9902000  47.8825539 103.3566599  15.8562110  39.0846424
 102.5467328  15.5109195  39.4601670 104.0451016  15.5469654  39.6734035
 105.2857148  14.9340157  40.7070720 105.8388186  15.3535611  41.3660743
 105.5227234  14.0075905  40.7493676 101.3090247  20.9227231  56.4873484
 101.2086974  21.8721588  56.4185575 101.0911789  20.5945470  55.6149554
 100.5103318  18.1712156  33.0714162 101.3722482  18.4967054  33.3309979
 100.6953663  17.3843652  32.5587227  92.5270734  26.2534496  45.3494350
  91.8334206  25.8388448  44.8364305  93.2743725  26.2955032  44.7527769
 108.6635955  17.0440682  40.2149385 108.0834624  17.7025486  39.8327437
 108.3971888  16.2218027  39.8036802 107.1139521  16.4445740  42.4170705
 107.6139300  16.5562275  41.6085024 107.7575129  16.1406793  43.0571513
 101.1721517  24.3524370  55.3038546 100.6888599  25.1524730  55.5102435
 101.2582456  24.3632315  54.3505990  94.4407477  26.1852749  43.2260365
  94.4178165  26.2840437  42.2742248  94.7508113  27.0317900  43.5477531
  97.0994855  28.2428904  47.3406980  98.0538108  28.2112847  47.2736911
  96.9007378  27.7819528  48.1557206  97.6894237  26.8130020  49.9077777
  98.5087126  27.3074099  49.9312615  97.9631044  25.8961989  49.8795345
 107.4460833  19.2040773  39.2705733 106.5586688  19.4890423  39.0525928
 107.8614822  19.0434536  38.4233010 110.7975369  19.2287294  42.9860072
 111.5735759  19.7183746  43.2584689 110.0723503  19.6545348  43.4431942
 113.2347928  19.9414913  44.0434013 113.8292418  19.7010649  43.3327321
 113.3074511  19.2222044  44.6707549  95.4545083  33.7848524  44.3577177
  95.3199551  33.0248925  43.7915176  95.0377146  34.5089424  43.8905966
 106.5904046  28.9685447  33.3653753 107.2939896  29.1735450  33.9811408
 105.8666695  29.5362209  33.6302836 107.4201857  24.7195309  39.4856023
 107.3637058  25.1763860  38.6463655 107.9730199  23.9585993  39.3078866
 111.2306663  20.5085041  40.3106142 110.9743597  20.1081676  41.1414350
 110.6059531  21.2228835  40.1856282 115.5419000  23.2481114  42.8177434
 114.9818558  23.3174303  43.5908996 114.9362504  23.0722098  42.0976930
  98.6114209  34.6817841  44.5695620  98.4946593  35.6263273  44.4674310
  97.7906655  34.3791402  44.9581419 108.4990744  29.4067977  35.4152213
 109.3336348  28.9749175  35.2329688 108.3375087  29.2349990  36.3429107
 108.1536636  25.9100090  36.7808552 108.0985440  25.7444361  35.8396996
 107.5282691  26.6176123  36.9370742  92.9429151  21.1468154  50.6069974
  93.5888015  20.6367108  51.0957200  92.7346302  21.8836836  51.1813400
 105.4682543  28.2149002  56.1062115 106.3373703  28.3889654  55.7448750
 104.9889295  29.0343419  55.9837844 101.4632761  15.4108199  36.3593871
 101.4511431  16.3550039  36.5162141 102.3556183  15.2278344  36.0653332
  99.6368723  35.3346103  47.7851549 100.5395970  35.3669713  48.1018044
  99.4106093  34.4046554  47.7997884 101.3922325  34.0877089  44.4461627
 100.4417956  34.0878951  44.3325999 101.6954811  33.3409824  43.9297662
 105.2784881  12.0050976  40.6139807 104.5117277  11.4509462  40.7596490
 105.6895586  12.0772844  41.4753959  97.2826642  18.2935771  54.7044989
  98.1458103  17.9372576  54.9148313  96.7092053  17.9549666  55.3920393
 117.1275019  39.9237628  45.5107390 117.7653429  39.8044375  44.8070730
 117.0095862  40.8718472  45.5695342 113.9364725  39.8765056  45.4468914
 113.5983237  39.7606121  44.5589449 114.8054493  39.4756221  45.4269920
 109.7951541  41.7300532  41.4365805 109.2316406  41.6390469  40.6682093
 109.6803936  40.9100437  41.9168298 114.4184508  41.0299908  51.4055120
 114.4073149  40.6352706  50.5335623 114.5805148  40.2965980  51.9988891
 107.3415973  43.2251724  44.2750026 108.1337265  42.8842549  43.8596325
 107.5812623  43.3346699  45.1952179 115.3751100  45.3971500  36.7480270
 114.7239079  45.9825580  36.3614284 116.1695462  45.9277695  36.8075308
 109.3006727  42.4860637  37.1467404 110.0737603  41.9389624  37.0080280
 109.6532126  43.3504886  37.3581866 111.1391769  43.8137019  50.3534304
 110.8481635  44.7182650  50.2380970 111.7748754  43.8553547  51.0678373
 112.0647976  41.1913868  46.9435663 112.6611548  40.9669890  46.2292626
 112.1222948  40.4498613  47.5461111 111.6373004  38.6453303  34.7785854
 111.8898525  38.1234825  34.0169317 110.6997564  38.4819449  34.8812538
 116.6816287  37.6489082  42.5860598 117.4679377  37.2308505  42.2351015
 116.9454992  38.5535174  42.7542246 116.8526365  43.0861932  37.2849254
 116.2172198  43.1596558  37.9970159 116.5223771  43.6755531  36.6068334
 122.0824714  37.5864315  43.4893576 122.8149886  37.0163532  43.7231406
 121.3264070  37.1985915  43.9300082 111.3569293  40.5481409  36.9810229
 111.2405551  39.8726313  37.6491314 111.4671553  40.0613783  36.1642382
 113.7000834  40.0091556  40.6856919 113.3359041  39.4822177  41.3969840
 114.5567950  39.6190025  40.5123404 119.6050135  31.2985889  47.9488185
 119.2733460  32.1681300  47.7249400 119.0095748  30.9822173  48.6282215
 113.3406321  35.0381456  35.6818267 113.5080723  35.9061692  36.0488738
 113.1503490  35.2008738  34.7579556 116.0981654  43.4998435  47.3484097
 115.7982377  44.4023474  47.2399905 115.7532714  43.2330618  48.2005250
 109.5494136  39.9512232  43.3820802 108.6244632  39.8188446  43.5898494
 109.7978549  40.7306451  43.8790744 119.4978798  36.0180975  45.0281535
 118.5895675  35.9496384  44.7340296 119.4466394  36.4952920  45.8563360
 113.3195542  37.4939114  36.6664934 113.1995167  37.9396164  37.5050414
 112.6248130  37.8424431  36.1078472 106.9102947  39.5945505  44.2164591
 107.0395328  39.8479984  45.1304003 106.2300398  40.1873213  43.8969246
 111.0802434  50.2642755  40.3155065 111.0026464  51.2150580  40.3943546
 110.4764078  49.9188628  40.9729991 113.5719664  37.4370621  52.9716432
 112.7952998  37.9964541  52.9619297 114.2110227  37.9227404  53.4931302
 121.3640445  34.2197414  46.8059409 120.7214825  34.5129947  46.1599203
 120.8595373  34.1050334  47.6112605 119.0180608  37.9660587  37.4945268
 119.9298464  38.1987973  37.3192966 118.5090255  38.5497631  36.9320347
 111.8266036  40.2456074  52.5334399 112.5680721  40.7841118  52.2569223
 111.1203022  40.8722363  52.6905951 117.3021376  42.3885215  51.1306561
 117.7104732  41.9467625  50.3861193 116.5798637  41.8137842  51.3840753
 113.6552446  37.3257821  48.5040117 114.5013641  37.7497235  48.6474766
 113.5951084  36.6691446  49.1978681 117.6250190  42.9486405  44.8858849
 116.9959053  43.1132119  44.1834917 117.2375853  43.3628015  45.6569813
 121.5039422  43.8840843  42.2403213 120.8190461  44.2639744  41.6900246
 121.5883272  44.4936170  42.9735161 116.8051891  34.9862190  50.1621291
 116.5612823  35.7404250  49.6255567 117.0811822  35.3647537  50.9968538
 118.7590354  41.5300802  48.8398557 118.9707249  42.1732562  48.1632938
 118.7120102  40.6963119  48.3720487 116.3616583  34.1418623  45.7435129
 115.5001062  34.4399876  46.0351866 116.3879018  34.3589022  44.8116161
 113.1778152  42.6860813  42.1508935 113.6416498  42.9648516  41.3613557
 112.9134950  41.7844258  41.9682025 110.0702233  42.2332295  45.0888698
 110.6403590  42.6619563  44.4506182 110.6610345  41.9514879  45.7872883
 112.1147038  38.8083966  38.9598500 112.8171082  39.2605009  39.4272426
 111.7827667  38.1667784  39.5878393 110.5627400  37.3995722  53.3349709
 109.9326061  38.0812003  53.5685106 110.4563488  37.2878804  52.3902847
 105.8572372  37.0667518  44.2615633 105.0671426  37.3225047  43.7855744
 106.3483620  37.8815856  44.3667674 119.8736182  44.4072757  47.0120914
 120.6953626  44.0052945  46.7303596 119.8698585  44.3040992  47.9637030
 107.8087118  37.4312098  41.2199110 107.0118281  37.5430792  41.7382606
 107.5812710  37.7698750  40.3540000 113.6392785  43.9556801  49.1681625
 113.7037218  44.4177208  50.0039796 112.9303709  43.3254166  49.2963934
 104.1410075  37.3198009  46.6930624 104.3918114  38.2045019  46.9588200
 104.6769624  37.1402610  45.9205716 127.9642175  40.7511506  43.3605886
 127.2105883  40.1818904  43.2049890 128.0989716  40.7174170  44.3076520
 113.3540803  45.6224908  39.0360605 113.2186478  46.4676444  39.4645453
 113.8950616  45.8244186  38.2726539 109.8408143  31.7016488  55.6974960
 109.4475088  31.1482687  56.3722604 110.6574283  32.0127067  56.0881478
 106.8070200  43.1400346  39.6088530 107.3194721  43.9343597  39.7594095
 107.4592913  42.4426637  39.5422131 108.6165085  46.2566103  41.6911283
 108.7931713  47.1784067  41.5032267 109.4121919  45.9424522  42.1205663
 112.7576104  33.1174367  53.2895217 113.4985817  33.7181520  53.2099679
 112.9894026  32.3752005  52.7313259 107.9017442  38.3030734  51.5673446
 107.7870957  37.4015992  51.8680545 107.0461959  38.5494431  51.2158263
 114.9809279  46.2448475  53.1660947 114.5373134  45.4584853  52.8481851
 115.6426493  46.4327625  52.5004838 109.7396401  47.7744276  47.6921625
 110.2903826  47.6461340  46.9198619 108.9007876  48.0739165  47.3416518
 117.0790517  46.5251275  51.1942348 117.0608993  47.3460156  50.7022617
 118.0010438  46.4005350  51.4192489 113.5363572  44.0395404  52.0365857
 114.0691908  43.2783692  51.8065165 113.0077653  43.7469056  52.7790011
 116.7033267  29.1455470  47.5659498 116.3597536  30.0357112  47.4898609
 117.0712229  28.9557128  46.7029083 104.7719117  41.4689001  40.3848100
 105.6094339  41.8786009  40.1681808 104.9497385  40.5288443  40.3548294
 116.6683549  39.1364081  36.0731933 116.1530173  39.9068686  36.3120321
 116.3960858  38.4629217  36.6964995 114.2530660  33.9813782  41.1317172
 113.3972257  33.5920632  40.9522811 114.6657612  34.0605743  40.2716957
 115.7829807  31.5160125  45.5308732 115.2794603  31.4790260  44.7176537
 116.0760414  32.4252868  45.5905388 112.0272693  31.5998855  44.5374913
 112.8925690  31.4041664  44.1780803 112.0950202  31.3709207  45.4644270
 121.6417823  41.8896436  38.0085107 120.8647266  41.5507595  37.5640269
 122.3209304  41.8949059  37.3340072 116.4569852  37.0091173  37.8991715
 116.1519988  37.3237322  38.7501858 117.4100295  37.0872593  37.9419048
 114.9016284  43.1681397  39.5484669 114.3737646  42.4334156  39.2357906
 114.4003787  43.9456073  39.3024637 119.8809130  41.3630417  44.6651715
 119.2232805  42.0529679  44.7531844 120.6849530  41.7526849  45.0085701
 109.6335012  33.8301063  41.9091280 110.2078764  33.6076244  41.1764473
 110.2205994  33.8989757  42.6619881 118.6914589  39.7174790  42.7155657
 119.2046471  40.3504782  43.2177366 119.3415813  39.1175985  42.3499017
 109.9604599  35.8605524  35.9287165 109.1241911  36.1980210  36.2496440
 109.8209369  35.7254504  34.9914302 111.9357680  30.7042312  40.6366350
 111.2822092  30.3891329  40.0122964 111.8938154  30.0818052  41.3626172
 113.0468885  40.9861607  32.5519642 112.1395946  40.7550860  32.7510791
 113.5439917  40.1899226  32.7393623 115.9536963  49.6959114  35.4716328
 115.2798662  49.9990811  36.0801286 116.3402785  50.4988194  35.1221785
 115.1695420  37.1924245  44.9613997 114.2517981  37.4139192  44.8035685
 115.5855564  37.2670556  44.1025705 115.9530468  38.5915661  40.0916677
 116.7002287  39.1037058  39.7823799 116.2222057  38.2699714  40.9521071
 114.2257118  41.0874202  37.0743632 113.3168337  40.8033235  37.1716101
 114.2552202  41.5073280  36.2146939 119.4576385  44.6980791  40.8434799
 119.0038712  43.8571701  40.8999990 118.8270352  45.3342190  41.1809579
 118.4009305  35.6272777  42.0735467 117.6632062  35.1150163  42.4045709
 118.6536078  35.1873159  41.2618744 117.9009325  46.5357288  41.7784617
 118.1932299  47.0962345  41.0596983 118.4107945  46.8285849  42.5337777
 118.5020932  28.4049029  42.6677236 118.8079809  27.5446393  42.3803151
 119.2273537  28.9966649  42.4676230 104.7945288  38.8079716  41.0558834
 104.5969688  38.2149077  40.3309901 104.2391952  38.5031926  41.7734773
 112.7742012  38.7002822  43.1753427 112.8290622  37.7476659  43.0995904
 111.9633214  38.8562261  43.6594726 113.9233206  42.6282945  34.4131710
 113.4852636  41.9118804  33.9537348 114.6643647  42.8559060  33.8516802
 110.7134372  37.3179882  40.9343806 109.9002237  37.6174053  41.3408998
 111.2093366  36.9235571  41.6518288 112.8642950  47.3137639  42.8678071
 112.8219129  47.5398485  41.9386603 113.7805649  47.0801014  43.0163872
 116.3108584  37.7821707  49.7658700 116.6657971  38.0093180  50.6253166
 116.9580715  38.1140083  49.1435955 122.0406321  40.9040142  40.4708029
 121.9024219  41.0941738  39.5429218 121.6842539  41.6659525  40.9276080
 110.2048447  34.8898238  46.5505041 110.8447826  34.7486997  45.8528004
 109.3725977  34.6032751  46.1743643 122.0675700  42.9716669  45.4819300
 122.5012207  42.8791959  46.3302354 122.7807281  42.9474170  44.8439316
 110.9808751  44.1900668  42.6640033 111.7749349  43.6950988  42.4622608
 110.2700443  43.6618531  42.3007739 115.8003595  46.5718764  47.0152401
 115.8540617  47.1409700  47.7830117 114.9318376  46.7420649  46.6506438
 107.2891514  38.3343750  38.7399786 106.3589102  38.2728205  38.9569748
 107.3848986  37.8119703  37.9436427 107.2077063  34.8598563  41.3278028
 107.4683880  35.7743896  41.2187188 108.0294235  34.3923005  41.4774641
 108.6801988  36.2736320  48.4976852 109.3525042  36.0653682  47.8489501
 107.8531775  36.0758406  48.0582085 122.9291250  43.0140370  48.0152186
 123.1227140  43.9186181  48.2611461 122.8291868  42.5547789  48.8490771
 114.5827560  32.8998261  50.5142513 113.9355475  33.5988210  50.4206990
 115.3528576  33.3334405  50.8818761 117.9906358  43.1647113  53.5893066
 117.8391865  42.9357665  52.6723150 117.9811038  44.1217714  53.6024411
 114.7591695  40.7379026  48.5739333 115.6883755  40.8890185  48.4008300
 114.3382725  40.8263046  47.7187979 113.5580027  44.7629690  46.3437870
 113.4191112  44.3948474  47.2163809 112.7694623  45.2777329  46.1721828
 114.1528179  49.8638786  37.6863407 114.3279934  49.3926830  38.5009030
 113.4660967  50.4904553  37.9144668 115.1085242  44.1411293  43.7326708
 114.7735074  44.1012063  44.6284358 114.6089187  43.4756009  43.2597118
 109.0829486  39.5478923  49.2579289 108.9449284  38.8159162  49.8590828
 109.9934409  39.4587823  48.9763477 118.0444433  41.4867327  34.0063768
 117.4273604  40.7614155  33.9096821 117.5760922  42.2476687  33.6630842
 111.7111786  39.2598882  48.7462969 112.4211405  38.6192074  48.7049587
 111.6681095  39.5111777  49.6689150 119.6998565  46.1966235  51.6669548
 119.6411111  45.5125456  51.0000131 120.1018083  46.9385225  51.2150174
 110.4240720  36.2464100  50.5658609 109.8878077  35.7954838  51.2180205
 109.8357429  36.3810009  49.8229073 108.7189264  53.0128149  44.4603267
 108.9585862  53.6446673  45.1382286 107.8758460  52.6616189  44.7468626
 109.8342979  35.7052751  33.1285072 108.9572446  35.5841552  32.7647319
 110.3100732  34.9138830  32.8763961 119.7015972  44.1605819  49.8983528
 118.8142751  43.8231741  50.0209927 120.2714523  43.4288851  50.1352293
 101.3545119  40.4929911  43.2226579 102.0416159  40.1791641  42.6347595
 101.1993248  41.3971276  42.9493831 106.1579842  35.3820108  47.6511603
 106.0738030  34.7745777  46.9162013 105.3362548  35.8729126  47.6521099
 113.2317126  48.8207272  46.8644771 113.1587297  49.6262243  47.3764076
 112.7894519  49.0199238  46.0392793 113.0206905  48.0579042  40.3747593
 112.2374427  48.6000722  40.4685817 113.7199650  48.5753021  40.7741834
 116.3303555  33.8673671  43.0181798 116.8272255  33.1143634  42.6982868
 115.5590537  33.9037988  42.4525007 124.1833313  39.5714037  44.6600090
 124.1723189  40.4538752  44.2894023 123.3150692  39.2185588  44.4654627
 115.6915809  48.7194106  49.0202930 116.4043781  49.3541571  48.9478831
 115.2005838  48.8157972  48.2042932 117.4133336  42.6245358  40.5920221
 116.4789615  42.7446821  40.4224926 117.5910005  41.7217825  40.3280231
 112.9138524  36.0091054  42.7453483 112.5436312  35.4562095  43.4334388
 113.4097617  35.4049188  42.1928483 120.8005887  38.4662678  41.1270256
 121.2666340  39.2990669  41.0530558 121.2513388  38.0007659  41.8315514
 110.7427723  46.4688549  49.8408501 111.4437182  47.1025032  49.9937895
 110.2722838  46.8103281  49.0804140 118.8682119  44.8106499  38.1256408
 119.1441962  44.6963094  39.0350282 117.9986617  44.4123984  38.0868581
 118.7722550  30.8343265  45.1661157 117.8585630  31.0647492  45.3343364
 119.2015652  30.9181709  46.0175189 118.5429009  39.0233157  47.6661051
 117.8900459  39.2709064  47.0113504 118.9209389  38.2097295  47.3323528
 115.5036183  49.0592850  41.7689221 115.6858577  48.2414506  42.2316974
 116.3269169  49.2760542  41.3314111 115.8378348  47.9861035  39.0304270
 116.3666115  47.4753490  38.4174432 116.1006568  47.6703565  39.8949803
 114.5916582  39.7652968  54.1527088 113.9157219  39.6647097  54.8229463
 115.4144216  39.6092181  54.6163085 106.3395441  46.0024904  46.7739603
 106.9248878  45.2568592  46.9067508 106.1420279  46.3128861  47.6576267
 109.1934096  49.0376152  41.7902046 108.5244471  49.5222279  41.3066086
 109.0546966  49.2845372  42.7045424 100.9313096  38.5730504  45.4944046
 100.9697195  38.0394095  46.2881165 100.4253388  38.0465710  44.8755024
 113.3339365  51.0719895  48.3884704 113.8857673  51.2351517  49.1533789
 113.6745558  51.6624333  47.7164729 108.3103858  33.4195045  48.9906589
 108.3745184  34.2809876  48.5783986 108.2470978  32.8069047  48.2578947
 107.7856130  35.4918178  52.6379623 108.4128169  35.1095255  53.2517147
 106.9284049  35.2732379  53.0035316 118.1850239  45.8981153  54.2433358
 118.7290143  46.5111111  53.7488313 117.6037084  46.4560731  54.7600371
 104.5621673  37.2994607  38.5697978 104.8575114  36.3905285  38.5165032
 103.6609709  37.2782346  38.2478980 116.4707752  49.0201871  45.3748386
 116.3458891  48.2191611  44.8659332 117.1286843  49.5148064  44.8862356
 108.0915920  35.3750603  44.5525526 107.3702506  35.9886571  44.4133000
 108.8809176  35.9108368  44.4742172 118.5342660  46.8210891  47.0027936
 117.5872996  46.7016242  46.9306263 118.8825433  45.9333389  47.0854198
 110.8942234  32.7105030  50.8266178 111.4176635  32.9567326  51.5892488
 110.6754567  33.5425065  50.4069316 106.2909515  34.9808704  38.6937303
 105.9622221  34.1006083  38.5112409 106.6448885  34.9256373  39.5813692
 115.5389094  46.6163607  43.2032289 115.3914056  45.6880314  43.3839859
 116.3642587  46.6383698  42.7189364 109.4051338  35.2681674  39.0612781
 109.7447410  35.7967595  38.3391389 109.8523458  35.6062080  39.8371347
 119.1423215  47.4392166  44.2897161 120.0669763  47.2335027  44.1521612
 118.9738519  47.1908567  45.1986503 112.0994779  33.6518725  48.5115849
 111.7591599  32.8526538  48.9136529 111.3933785  33.9520436  47.9392682
 112.7511251  30.7368037  46.9643172 113.5737320  30.2628515  46.8422062
 112.9949314  31.5158521  47.4641858 111.3919485  33.7656296  37.2606073
 112.1127848  34.1437548  36.7569790 110.7684789  34.4845172  37.3641051
 115.5350608  34.4701445  38.1964406 115.7514222  35.3526083  37.8953234
 115.0544675  34.0787658  37.4670048 110.2749829  37.4287158  44.7735150
 110.1294410  37.7427461  45.6659432 109.7975033  38.0472058  44.2206049
 112.1346212  34.4189706  44.8216040 112.1207781  33.5230799  44.4848338
 112.8518640  34.4260370  45.4554326 113.9872343  34.8527046  46.8669167
 113.7290121  35.7744117  46.8653498 113.4557383  34.4557481  47.5569631
 118.9318532  47.9577833  39.6459253 119.1055409  47.3924256  38.8933105
 119.4247423  48.7578728  39.4638743 104.7495491  39.9692502  47.7122812
 104.2048960  40.7452310  47.8443086 105.6274841  40.3163307  47.5541933
 111.5383108  33.3004086  40.0903610 111.6599019  32.3720732  40.2894498
 111.2485150  33.3142772  39.1781925 114.4074298  30.9858997  43.2270330
 114.4295995  31.0498330  42.2722309 114.8242357  30.1463505  43.4210836
 124.7857923  40.7214256  41.2649552 125.2289069  39.9721581  40.8668676
 123.9084433  40.7124392  40.8823284 119.9193704  47.2744598  36.7456151
 120.6144609  47.8951290  36.9643466 120.2616854  46.4239949  37.0208529
 105.5361513  39.0962399  50.6052968 104.7943249  39.2445034  51.1917599
 105.2154258  39.3570664  49.7419718 121.8185127  44.7244303  38.2743482
 122.3436451  45.0631576  37.5492802 121.7307480  43.7891318  38.0906616
 113.4805176  48.6378377  50.4033358 113.7892302  48.3927524  51.2756058
 114.2780658  48.8425015  49.9152229 113.5025788  50.7916286  42.6338735
 113.0630778  50.2992665  43.3271592 114.2533905  50.2489254  42.3930810
 105.9818127  46.9827827  42.6363363 106.8076147  46.6831599  42.2562007
 105.6312179  46.2135450  43.0853152 110.9499660  46.3354295  44.7061037
 110.3279669  45.6725000  44.4063264 111.6204527  46.3615427  44.0234684
 104.1826732  44.9014154  43.5952297 103.3458640  44.4736328  43.4136298
 104.1550377  45.0946597  44.5323088 111.0224188  34.8136083  54.2993543
 111.0712343  35.6898206  53.9171312 111.5646702  34.2713477  53.7265186
 121.5079033  45.3577207  53.5794680 120.7174577  45.3401346  53.0399179
 121.2712388  45.8965500  54.3343716 121.6276908  42.2069673  50.8927408
 121.6774913  42.0419681  51.8342931 121.5190832  41.3396932  50.5025289
 110.5113167  44.8858219  38.1819497 110.6601287  45.5693683  37.5286170
 111.3179611  44.8663309  38.6968953 118.9180671  38.1900601  52.2086715
 119.8190534  38.0507066  51.9170713 118.9928645  38.3555056  53.1484892
 113.2523476  35.5667456  51.0539901 112.3826785  35.8601022  50.7822490
 113.4882956  36.1507901  51.7747165 123.1295105  44.6266615  51.1369430
 122.8379913  44.9896595  51.9732891 122.5167236  43.9133623  50.9582762
 124.3290788  42.1919494  43.6572000 125.1637679  42.6309298  43.8209560
 124.4649916  41.7158148  42.8380246 121.3782293  39.7499229  49.6049488
 121.8536415  39.9426876  48.7968339 120.4547859  39.8058415  49.3592871
 108.2665800  40.9123396  39.1880566 108.0211842  40.0085726  39.3860776
 108.4361715  40.9140547  38.2460044 115.9562510  31.7847073  48.5705322
 116.4744454  32.5208100  48.2451810 115.6017643  32.0911066  49.4052081
 107.5361448  36.6451754  36.6866728 106.8430693  36.7196109  36.0306764
 107.2913199  35.8812098  37.2088244 116.2075104  28.2047355  44.0906218
 116.4876858  27.5370544  44.7166645 116.9925711  28.3976451  43.5780882
 114.0108573  47.3806349  35.6531245 113.4382540  47.9996536  35.2001716
 114.5841366  47.9305711  36.1871167 120.0783962  36.6264989  47.8377793
 121.0301385  36.7263087  47.8590017 119.9087413  35.8343258  48.3475878
 118.0998342  33.7120573  48.0237194 117.5048274  33.9925585  47.3283683
 117.8148039  34.2014473  48.7953935 117.2305832  47.6643499  36.7839827
 118.1636506  47.5989061  36.9872702 117.1429045  48.4999766  36.3254360
 119.8593849  46.9809370  33.7443774 119.7807481  46.6469233  34.6379532
 120.6803516  47.4731138  33.7435247 122.5572040  39.8471109  46.9520093
 122.5248360  38.9087110  47.1379777 123.1672664  39.9255146  46.2185918
 114.3955371  38.7167162  32.9947297 115.3414476  38.5873370  33.0635715
 114.0169616  37.9781824  33.4716725 122.7066529  36.6382152  46.9978376
 122.1905577  35.8540609  46.8108305 123.5906477  36.3100869  47.1624896
 120.3677256  30.3823168  42.9574189 120.1702077  30.0738256  43.8417521
 120.9776961  31.1084807  43.0872119 128.3748590  40.9087116  46.0926130
 129.1051979  40.6472404  46.6533833 127.7655536  40.1715838  46.1328198
 126.4563887  39.0494978  46.6900581 125.7297051  38.9150943  46.0817073
 126.0411174  39.3571807  47.4957299 114.2794064  42.7684908  54.4547954
 115.1997073  42.9463507  54.6488001 114.2443647  41.8240953  54.3027653
 112.5798288  36.6417138  32.9302182 111.6729744  36.3450251  33.0064896
 112.8574269  36.3446956  32.0636469 103.4976229  37.9623502  43.3801229
 103.1779013  37.1088810  43.0875603 102.9509657  38.1772080  44.1359196
 107.2756136  40.6785943  47.0970735 107.4942146  41.6103051  47.1158769
 107.6881910  40.3193917  47.8825539 114.1960354  31.1854028  39.0846424
 113.3861082  30.8401113  39.4601670 114.8844771  30.8761572  39.6734035
 116.1250902  30.2632075  40.7070720 116.6781941  30.6827528  41.3660743
 116.3620989  29.3367823  40.7493676 112.1484001  36.2519149  56.4873484
 112.0480728  37.2013506  56.4185575 111.9305544  35.9237387  55.6149554
 111.3497073  33.5004074  33.0714162 112.2116237  33.8258972  33.3309979
 111.5347417  32.7135570  32.5587227 103.3664489  41.5826413  45.3494350
 102.6727960  41.1680366  44.8364305 104.1137480  41.6246950  44.7527769
 119.5029709  32.3732600  40.2149385 118.9228378  33.0317404  39.8327437
 119.2365642  31.5509945  39.8036802 117.9533276  31.7737658  42.4170705
 118.4533054  31.8854192  41.6085024 118.5968884  31.4698711  43.0571513
 112.0115272  39.6816287  55.3038546 111.5282353  40.4816648  55.5102435
 112.0976211  39.6924232  54.3505990 105.2801231  41.5144667  43.2260365
 105.2571919  41.6132354  42.2742248 105.5901868  42.3609818  43.5477531
 107.9388609  43.5720822  47.3406980 108.8931863  43.5404764  47.2736911
 107.7401133  43.1111446  48.1557206 108.5287991  42.1421938  49.9077777
 109.3480880  42.6366017  49.9312615 108.8024799  41.2253906  49.8795345
 118.2854587  34.5332690  39.2705733 117.3980442  34.8182341  39.0525928
 118.7008576  34.3726454  38.4233010 121.6369123  34.5579211  42.9860072
 122.4129514  35.0475664  43.2584689 120.9117258  34.9837266  43.4431942
 124.0741682  35.2706831  44.0434013 124.6686173  35.0302567  43.3327321
 124.1468266  34.5513961  44.6707549 106.2938838  49.1140442  44.3577177
 106.1593306  48.3540842  43.7915176 105.8770900  49.8381341  43.8905966
 117.4297801  44.2977365  33.3653753 118.1333651  44.5027368  33.9811408
 116.7060450  44.8654127  33.6302836 118.2595611  40.0487226  39.4856023
 118.2030812  40.5055778  38.6463655 118.8123954  39.2877911  39.3078866
 122.0700417  35.8376958  40.3106142 121.8137351  35.4373594  41.1414350
 121.4453285  36.5520752  40.1856282 126.3812755  38.5773032  42.8177434
 125.8212313  38.6466221  43.5908996 125.7756258  38.4014016  42.0976930
 109.4507964  50.0109759  44.5695620 109.3340348  50.9555191  44.4674310
 108.6300410  49.7083320  44.9581419 119.3384498  44.7359894  35.4152213
 120.1730102  44.3041093  35.2329688 119.1768841  44.5641908  36.3429107
 118.9930390  41.2392008  36.7808552 118.9379194  41.0736279  35.8396996
 118.3676446  41.9468041  36.9370742 103.7822905  36.4760072  50.6069974
 104.4281769  35.9659026  51.0957200 103.5740057  37.2128754  51.1813400
 116.3076298  43.5440920  56.1062115 117.1767457  43.7181572  55.7448750
 115.8283049  44.3635336  55.9837844 112.3026516  30.7400117  36.3593871
 112.2905186  31.6841957  36.5162141 113.1949938  30.5570262  36.0653332
 110.4762478  50.6638021  47.7851549 111.3789725  50.6961631  48.1018044
 110.2499848  49.7338471  47.7997884 112.2316080  49.4169007  44.4461627
 111.2811711  49.4170869  44.3325999 112.5348566  48.6701742  43.9297662
 116.1178635  27.3342893  40.6139807 115.3511031  26.7801380  40.7596490
 116.5289340  27.4064762  41.4753959 108.1220396  33.6227689  54.7044989
 108.9851858  33.2664494  54.9148313 107.5485807  33.2841584  55.3920393
 127.9668773  55.2529545  45.5107390 128.6047183  55.1336293  44.8070730
 127.8489616  56.2010389  45.5695342 124.7758480  55.2056974  45.4468914
 124.4376991  55.0898038  44.5589449 125.6448248  54.8048139  45.4269920
 120.6345295  57.0592450  41.4365805 120.0710160  56.9682387  40.6682093
 120.5197690  56.2392354  41.9168298 125.2578263  56.3591825  51.4055120
 125.2466903  55.9644624  50.5335623 125.4198902  55.6257898  51.9988891
 118.1809727  58.5543642  44.2750026 118.9731019  58.2134466  43.8596325
 118.4206377  58.6638617  45.1952179 126.2144854  60.7263418  36.7480270
 125.5632834  61.3117498  36.3614284 127.0089217  61.2569613  36.8075308
 120.1400481  57.8152555  37.1467404 120.9131357  57.2681542  37.0080280
 120.4925880  58.6796804  37.3581866 122.9041731  56.5205786  46.9435663
 123.5005303  56.2961808  46.2292626 122.9616702  55.7790531  47.5461111
 122.4766759  53.9745221  34.7785854 122.7292280  53.4526742  34.0169317
 121.5391318  53.8111366  34.8812538 127.5210042  52.9780999  42.5860598
 128.3073131  52.5600422  42.2351015 127.7848746  53.8827091  42.7542246
 127.6920119  58.4153850  37.2849254 127.0565952  58.4888476  37.9970159
 127.3617526  59.0047448  36.6068334 132.9218469  52.9156232  43.4893576
 133.6543641  52.3455449  43.7231406 132.1657825  52.5277833  43.9300082
 122.1963048  55.8773327  36.9810229 122.0799306  55.2018230  37.6491314
 122.3065308  55.3905701  36.1642382 124.5394589  55.3383474  40.6856919
 124.1752796  54.8114095  41.3969840 125.3961705  54.9481943  40.5123404
 130.4443889  46.6277807  47.9488185 130.1127214  47.4973218  47.7249400
 129.8489503  46.3114091  48.6282215 124.1800076  50.3673374  35.6818267
 124.3474478  51.2353610  36.0488738 123.9897245  50.5300655  34.7579556
 126.9375409  58.8290353  47.3484097 126.6376132  59.7315391  47.2399905
 126.5926468  58.5622536  48.2005250 120.3887890  55.2804149  43.3820802
 119.4638387  55.1480364  43.5898494 120.6372303  56.0598369  43.8790744
 130.3372553  51.3472893  45.0281535 129.4289430  51.2788301  44.7340296
 130.2860148  51.8244838  45.8563360 124.1589297  52.8231031  36.6664934
 124.0388922  53.2688082  37.5050414 123.4641885  53.1716349  36.1078472
 117.7496701  54.9237423  44.2164591 117.8789082  55.1771902  45.1304003
 117.0694153  55.5165131  43.8969246 121.9196189  65.5934673  40.3155065
 121.8420218  66.5442498  40.3943546 121.3157832  65.2480545  40.9729991
 124.4113418  52.7662538  52.9716432 123.6346752  53.3256459  52.9619297
 125.0503981  53.2519321  53.4931302 132.2034199  49.5489331  46.8059409
 131.5608579  49.8421864  46.1599203 131.6989128  49.4342252  47.6112605
 129.8574363  53.2952504  37.4945268 130.7692219  53.5279891  37.3192966
 129.3484010  53.8789549  36.9320347 122.6659791  55.5747992  52.5334399
 123.4074475  56.1133036  52.2569223 121.9596776  56.2014280  52.6905951
 128.1415130  57.7177132  51.1306561 128.5498486  57.2759543  50.3861193
 127.4192392  57.1429760  51.3840753 124.4946200  52.6549739  48.5040117
 125.3407396  53.0789153  48.6474766 124.4344838  51.9983363  49.1978681
 128.4643945  58.2778323  44.8858849 127.8352807  58.4424037  44.1834917
 128.0769607  58.6919932  45.6569813 132.3433177  59.2132761  42.2403213
 131.6584215  59.5931662  41.6900246 132.4277026  59.8228087  42.9735161
 127.6445646  50.3154107  50.1621291 127.4006578  51.0696168  49.6255567
 127.9205576  50.6939455  50.9968538 129.5984108  56.8592720  48.8398557
 129.8101004  57.5024480  48.1632938 129.5513857  56.0255036  48.3720487
 127.2010337  49.4710540  45.7435129 126.3394816  49.7691794  46.0351866
 127.2272772  49.6880939  44.8116161 124.0171907  58.0152731  42.1508935
 124.4810252  58.2940434  41.3613557 123.7528705  57.1136175  41.9682025
 120.9095988  57.5624212  45.0888698 121.4797345  57.9911481  44.4506182
 121.5004100  57.2806797  45.7872883 122.9540793  54.1375883  38.9598500
 123.6564836  54.5896927  39.4272426 122.6221421  53.4959702  39.5878393
 121.4021154  52.7287640  53.3349709 120.7719815  53.4103921  53.5685106
 121.2957242  52.6170722  52.3902847 116.6966127  52.3959436  44.2615633
 115.9065181  52.6516964  43.7855744 117.1877374  53.2107774  44.3667674
 130.7129936  59.7364675  47.0120914 131.5347380  59.3344862  46.7303596
 130.7092339  59.6332909  47.9637030 118.6480872  52.7604015  41.2199110
 117.8512036  52.8722709  41.7382606 118.4206464  53.0990667  40.3540000
 114.9803830  52.6489926  46.6930624 115.2311868  53.5336936  46.9588200
 115.5163378  52.4694528  45.9205716 138.8035929  56.0803424  43.3605886
 138.0499638  55.5110822  43.2049890 138.9383471  56.0466088  44.3076520
 124.1934558  60.9516826  39.0360605 124.0580232  61.7968362  39.4645453
 124.7344370  61.1536104  38.2726539 120.6801897  47.0308406  55.6974960
 120.2868843  46.4774604  56.3722604 121.4968037  47.3418984  56.0881478
 117.6463955  58.4692264  39.6088530 118.1588475  59.2635514  39.7594095
 118.2986668  57.7718554  39.5422131 123.5969858  48.4466285  53.2895217
 124.3379572  49.0473438  53.2099679 123.8287781  47.7043923  52.7313259
 118.7411196  53.6322652  51.5673446 118.6264711  52.7307909  51.8680545
 117.8855714  53.8786349  51.2158263 125.8203034  61.5740392  53.1660947
 125.3766888  60.7876771  52.8481851 126.4820247  61.7619543  52.5004838
 127.9184272  61.8543192  51.1942348 127.9002747  62.6752073  50.7022617
 128.8404192  61.7297268  51.4192489 124.3757326  59.3687322  52.0365857
 124.9085663  58.6075610  51.8065165 123.8471407  59.0760974  52.7790011
 127.5427021  44.4747388  47.5659498 127.1991290  45.3649029  47.4898609
 127.9105984  44.2849045  46.7029083 115.6112872  56.7980918  40.3848100
 116.4488094  57.2077927  40.1681808 115.7891139  55.8580360  40.3548294
 127.5077304  54.4655999  36.0731933 126.9923927  55.2360604  36.3120321
 127.2354612  53.7921135  36.6964995 125.0924415  49.3105700  41.1317172
 124.2366011  48.9212550  40.9522811 125.5051367  49.3897660  40.2716957
 126.6223561  46.8452043  45.5308732 126.1188357  46.8082178  44.7176537
 126.9154168  47.7544786  45.5905388 122.8666447  46.9290773  44.5374913
 123.7319444  46.7333581  44.1780803 122.9343956  46.7001124  45.4644270
 132.4811578  57.2188354  38.0085107 131.7041021  56.8799513  37.5640269
 133.1603059  57.2240977  37.3340072 127.2963607  52.3383091  37.8991715
 126.9913743  52.6529240  38.7501858 128.2494049  52.4164511  37.9419048
 125.7410039  58.4973314  39.5484669 125.2131400  57.7626074  39.2357906
 125.2397542  59.2747991  39.3024637 130.7202885  56.6922335  44.6651715
 130.0626559  57.3821596  44.7531844 131.5243284  57.0818767  45.0085701
 120.4728766  49.1592981  41.9091280 121.0472518  48.9368162  41.1764473
 121.0599749  49.2281675  42.6619881 129.5308344  55.0466707  42.7155657
 130.0440225  55.6796699  43.2177366 130.1809568  54.4467903  42.3499017
 120.7998354  51.1897442  35.9287165 119.9635666  51.5272128  36.2496440
 120.6603123  51.0546421  34.9914302 122.7751434  46.0334229  40.6366350
 122.1215846  45.7183247  40.0122964 122.7331908  45.4109970  41.3626172
 123.8862639  56.3153525  32.5519642 122.9789701  56.0842778  32.7510791
 124.3833671  55.5191144  32.7393623 126.7930718  65.0251032  35.4716328
 126.1192417  65.3282729  36.0801286 127.1796540  65.8280112  35.1221785
 126.0089175  52.5216163  44.9613997 125.0911736  52.7431110  44.8035685
 126.4249318  52.5962474  44.1025705 126.7924222  53.9207579  40.0916677
 127.5396041  54.4328976  39.7823799 127.0615812  53.5991631  40.9521071
 125.0650872  56.4166119  37.0743632 124.1562092  56.1325152  37.1716101
 125.0945956  56.8365198  36.2146939 130.2970140  60.0272709  40.8434799
 129.8432467  59.1863619  40.8999990 129.6664107  60.6634107  41.1809579
 129.2403059  50.9564695  42.0735467 128.5025816  50.4442081  42.4045709
 129.4929833  50.5165077  41.2618744 128.7403079  61.8649206  41.7784617
 129.0326053  62.4254263  41.0596983 129.2501700  62.1577767  42.5337777
 129.3414687  43.7340947  42.6677236 129.6473564  42.8738310  42.3803151
 130.0667292  44.3258567  42.4676230 115.6339043  54.1371634  41.0558834
 115.4363443  53.5440994  40.3309901 115.0785707  53.8323844  41.7734773
 123.6135766  54.0294740  43.1753427 123.6684376  53.0768576  43.0995904
 122.8026969  54.1854179  43.6594726 124.7626960  57.9574863  34.4131710
 124.3246390  57.2410722  33.9537348 125.5037401  58.1850978  33.8516802
 121.5528126  52.6471800  40.9343806 120.7395992  52.9465970  41.3408998
 122.0487121  52.2527489  41.6518288 123.7036704  62.6429557  42.8678071
 123.6612883  62.8690403  41.9386603 124.6199403  62.4092931  43.0163872
 127.1502338  53.1113624  49.7658700 127.5051726  53.3385097  50.6253166
 127.7974469  53.4432001  49.1435955 132.8800075  56.2332060  40.4708029
 132.7417974  56.4233656  39.5429218 132.5236294  56.9951443  40.9276080
 121.0442201  50.2190155  46.5505041 121.6841580  50.0778914  45.8528004
 120.2119732  49.9324669  46.1743643 132.9069455  58.3008587  45.4819300
 133.3405961  58.2083876  46.3302354 133.6201035  58.2766088  44.8439316
 121.8202505  59.5192586  42.6640033 122.6143104  59.0242906  42.4622608
 121.1094197  58.9910449  42.3007739 118.1285269  53.6635667  38.7399786
 117.1982857  53.6020123  38.9569748 118.2242741  53.1411620  37.9436427
 118.0470818  50.1890480  41.3278028 118.3077635  51.1035814  41.2187188
 118.8687990  49.7214923  41.4774641 119.5195743  51.6028237  48.4976852
 120.1918796  51.3945600  47.8489501 118.6925529  51.4050323  48.0582085
 133.7685004  58.3432288  48.0152186 133.9620894  59.2478098  48.2611461
 133.6685622  57.8839707  48.8490771 125.4221315  48.2290178  50.5142513
 124.7749230  48.9280128  50.4206990 126.1922330  48.6626322  50.8818761
 128.8300113  58.4939031  53.5893066 128.6785619  58.2649582  52.6723150
 128.8204792  59.4509632  53.6024411 125.5985449  56.0670943  48.5739333
 126.5277509  56.2182103  48.4008300 125.1776479  56.1554964  47.7187979
 124.9921933  65.1930704  37.6863407 125.1673689  64.7218747  38.5009030
 124.3054721  65.8196470  37.9144668 125.9478996  59.4703210  43.7326708
 125.6128829  59.4303980  44.6284358 125.4482942  58.8047926  43.2597118
 119.9223240  54.8770840  49.2579289 119.7843038  54.1451079  49.8590828
 120.8328164  54.7879741  48.9763477 128.8838188  56.8159245  34.0063768
 128.2667359  56.0906073  33.9096821 128.4154676  57.5768605  33.6630842
 122.5505541  54.5890800  48.7462969 123.2605159  53.9483992  48.7049587
 122.5074849  54.8403695  49.6689150 130.5392320  61.5258153  51.6669548
 130.4804866  60.8417373  51.0000131 130.9411838  62.2677143  51.2150174
 121.2634475  51.5756018  50.5658609 120.7271832  51.1246756  51.2180205
 120.6751183  51.7101926  49.8229073 120.6736734  51.0344669  33.1285072
 119.7966200  50.9133470  32.7647319 121.1494487  50.2430747  32.8763961
 130.5409727  59.4897737  49.8983528 129.6536506  59.1523659  50.0209927
 131.1108278  58.7580768  50.1352293 112.1938874  55.8221829  43.2226579
 112.8809914  55.5083559  42.6347595 112.0387003  56.7263193  42.9493831
 116.9973596  50.7112025  47.6511603 116.9131785  50.1037695  46.9162013
 116.1756302  51.2021044  47.6521099 123.8600660  63.3870959  40.3747593
 123.0768182  63.9292640  40.4685817 124.5593405  63.9044939  40.7741834
 127.1697310  49.1965589  43.0181798 127.6666009  48.4435551  42.6982868
 126.3984291  49.2329906  42.4525007 135.0227067  54.9005954  44.6600090
 135.0116944  55.7830670  44.2894023 134.1544447  54.5477505  44.4654627
 128.2527091  57.9537276  40.5920221 127.3183369  58.0738739  40.4224926
 128.4303759  57.0509743  40.3280231 123.7532279  51.3382972  42.7453483
 123.3830066  50.7854012  43.4334388 124.2491371  50.7341105  42.1928483
 131.6399642  53.7954595  41.1270256 132.1060094  54.6282587  41.0530558
 132.0907142  53.3299577  41.8315514 129.7075873  60.1398417  38.1256408
 129.9835717  60.0255011  39.0350282 128.8380372  59.7415902  38.0868581
 129.6116305  46.1635182  45.1661157 128.6979385  46.3939409  45.3343364
 130.0409406  46.2473626  46.0175189 129.3822763  54.3525074  47.6661051
 128.7294213  54.6000982  47.0113504 129.7603143  53.5389213  47.3323528
 126.3429937  64.3884768  41.7689221 126.5252332  63.5706423  42.2316974
 127.1662923  64.6052460  41.3314111 126.6772103  63.3152953  39.0304270
 127.2059869  62.8045407  38.4174432 126.9400322  62.9995483  39.8949803
 125.4310336  55.0944885  54.1527088 124.7550973  54.9939015  54.8229463
 126.2537970  54.9384099  54.6163085 120.0327851  64.3668069  41.7902046
 119.3638226  64.8514197  41.3066086 119.8940720  64.6137290  42.7045424
 111.7706850  53.9022422  45.4944046 111.8090950  53.3686013  46.2881165
 111.2647143  53.3757628  44.8755024 119.1497612  48.7486963  48.9906589
 119.2138939  49.6101794  48.5783986 119.0864733  48.1360964  48.2578947
 118.6249885  50.8210095  52.6379623 119.2521924  50.4387173  53.2517147
 117.7677804  50.6024297  53.0035316 129.0243993  61.2273070  54.2433358
 129.5683897  61.8403029  53.7488313 128.4430838  61.7852649  54.7600371
 115.4015428  52.6286524  38.5697978 115.6968869  51.7197203  38.5165032
 114.5003463  52.6074264  38.2478980 118.9309675  50.7042521  44.5525526
 118.2096260  51.3178489  44.4133000 119.7202930  51.2400286  44.4742172
 129.3736415  62.1502808  47.0027936 128.4266750  62.0308160  46.9306263
 129.7219188  61.2625306  47.0854198 121.7335988  48.0396947  50.8266178
 122.2570390  48.2859244  51.5892488 121.5148321  48.8716982  50.4069316
 117.1303269  50.3100622  38.6937303 116.8015975  49.4298001  38.5112409
 117.4842640  50.2548291  39.5813692 126.3782848  61.9455525  43.2032289
 126.2307811  61.0172232  43.3839859 127.2036342  61.9675615  42.7189364
 120.2445092  50.5973592  39.0612781 120.5841165  51.1259513  38.3391389
 120.6917213  50.9353998  39.8371347 129.9816970  62.7684083  44.2897161
 130.9063517  62.5626945  44.1521612 129.8132273  62.5200485  45.1986503
 122.9388533  48.9810642  48.5115849 122.5985354  48.1818456  48.9136529
 122.2327539  49.2812353  47.9392682 123.5905005  46.0659955  46.9643172
 124.4131074  45.5920433  46.8422062 123.8343069  46.8450439  47.4641858
 122.2313240  49.0948213  37.2606073 122.9521602  49.4729466  36.7569790
 121.6078544  49.8137090  37.3641051 126.3744362  49.7993362  38.1964406
 126.5907977  50.6818000  37.8953234 125.8938430  49.4079576  37.4670048
 121.1143584  52.7579076  44.7735150 120.9688164  53.0719379  45.6659432
 120.6368787  53.3763976  44.2206049 122.9739967  49.7481624  44.8216040
 122.9601535  48.8522717  44.4848338 123.6912395  49.7552287  45.4554326
 124.8266097  50.1818964  46.8669167 124.5683875  51.1036034  46.8653498
 124.2951138  49.7849398  47.5569631 129.7712286  63.2869751  39.6459253
 129.9449164  62.7216173  38.8933105 130.2641177  64.0870646  39.4638743
 115.5889246  55.2984420  47.7122812 115.0442714  56.0744228  47.8443086
 116.4668596  55.6455224  47.5541933 122.3776863  48.6296004  40.0903610
 122.4992774  47.7012650  40.2894498 122.0878905  48.6434690  39.1781925
 125.2468053  46.3150914  43.2270330 125.2689750  46.3790247  42.2722309
 125.6636112  45.4755423  43.4210836 135.6251677  56.0506174  41.2649552
 136.0682823  55.3013499  40.8668676 134.7478188  56.0416310  40.8823284
 130.7587459  62.6036515  36.7456151 131.4538363  63.2243208  36.9643466
 131.1010609  61.7531866  37.0208529 116.3755268  54.4254316  50.6052968
 115.6337004  54.5736952  51.1917599 116.0548012  54.6862582  49.7419718
 132.6578882  60.0536221  38.2743482 133.1830206  60.3923494  37.5492802
 132.5701234  59.1183236  38.0906616 124.3419542  66.1208204  42.6338735
 123.9024533  65.6284583  43.3271592 125.0927659  65.5781172  42.3930810
 115.0220487  60.2306071  43.5952297 114.1852395  59.8028246  43.4136298
 114.9944132  60.4238515  44.5323088 121.8617942  50.1428001  54.2993543
 121.9106098  51.0190124  53.9171312 122.4040456  49.6005394  53.7265186
 132.3472788  60.6869124  53.5794680 131.5568332  60.6693263  53.0399179
 132.1106142  61.2257418  54.3343716 132.4670663  57.5361591  50.8927408
 132.5168668  57.3711598  51.8342931 132.3584586  56.6688850  50.5025289
 121.3506922  60.2150136  38.1819497 121.4995042  60.8985601  37.5286170
 122.1573365  60.1955227  38.6968953 129.7574425  53.5192519  52.2086715
 130.6584288  53.3798984  51.9170713 129.8322400  53.6846974  53.1484892
 124.0917231  50.8959374  51.0539901 123.2220540  51.1892940  50.7822490
 124.3276711  51.4799819  51.7747165 133.9688860  59.9558532  51.1369430
 133.6773668  60.3188513  51.9732891 133.3560991  59.2425541  50.9582762
 135.1684542  57.5211412  43.6572000 136.0031433  57.9601216  43.8209560
 135.3043671  57.0450065  42.8380246 132.2176048  55.0791147  49.6049488
 132.6930170  55.2718793  48.7968339 131.2941613  55.1350333  49.3592871
 119.1059555  56.2415314  39.1880566 118.8605596  55.3377644  39.3860776
 119.2755469  56.2432465  38.2460044 126.7956264  47.1138991  48.5705322
 127.3138208  47.8500017  48.2451810 126.4411397  47.4202984  49.4052081
 118.3755202  51.9743672  36.6866728 117.6824447  52.0488027  36.0306764
 118.1306954  51.2104015  37.2088244 127.0468859  43.5339273  44.0906218
 127.3270612  42.8662462  44.7166645 127.8319465  43.7268369  43.5780882
 124.8502327  62.7098267  35.6531245 124.2776294  63.3288454  35.2001716
 125.4235121  63.2597629  36.1871167 130.9177717  51.9556907  47.8377793
 131.8695140  52.0555005  47.8590017 130.7481167  51.1635176  48.3475878
 128.9392096  49.0412490  48.0237194 128.3442028  49.3217503  47.3283683
 128.6541793  49.5306391  48.7953935 128.0699587  62.9935417  36.7839827
 129.0030260  62.9280979  36.9872702 127.9822800  63.8291684  36.3254360
 130.6987604  62.3101287  33.7443774 130.6201235  61.9761151  34.6379532
 131.5197270  62.8023055  33.7435247 133.3965795  55.1763027  46.9520093
 133.3642115  54.2379027  47.1379777 134.0066418  55.2547063  46.2185918
 125.2349126  54.0459080  32.9947297 126.1808230  53.9165288  33.0635715
 124.8563371  53.3073742  33.4716725 133.5460283  51.9674070  46.9978376
 133.0299332  51.1832527  46.8108305 134.4300232  51.6392787  47.1624896
 131.2071010  45.7115086  42.9574189 131.0095831  45.4030174  43.8417521
 131.8170716  46.4376725  43.0872119 139.2142345  56.2379034  46.0926130
 139.9445733  55.9764322  46.6533833 138.6049290  55.5007756  46.1328198
 137.2957642  54.3786896  46.6900581 136.5690805  54.2442861  46.0817073
 136.8804929  54.6863725  47.4957299 125.1187818  58.0976826  54.4547954
 126.0390828  58.2755425  54.6488001 125.0837401  57.1532871  54.3027653
 123.4192043  51.9709056  32.9302182 122.5123498  51.6742169  33.0064896
 123.6968024  51.6738874  32.0636469 114.3369983  53.2915419  43.3801229
 114.0172767  52.4380728  43.0875603 113.7903411  53.5063998  44.1359196
 118.1149891  56.0077860  47.0970735 118.3335900  56.9394968  47.1158769
 118.5275664  55.6485835  47.8825539 125.0354108  46.5145946  39.0846424
 124.2254837  46.1693031  39.4601670 125.7238525  46.2053490  39.6734035
 126.9644657  45.5923993  40.7070720 127.5175695  46.0119446  41.3660743
 127.2014743  44.6659741  40.7493676 122.9877756  51.5811066  56.4873484
 122.8874483  52.5305423  56.4185575 122.7699298  51.2529305  55.6149554
 122.1890827  48.8295991  33.0714162 123.0509991  49.1550890  33.3309979
 122.3741172  48.0427487  32.5587227 114.2058243  56.9118331  45.3494350
 113.5121715  56.4972284  44.8364305 114.9531234  56.9538867  44.7527769
 130.3423464  47.7024518  40.2149385 129.7622133  48.3609322  39.8327437
 130.0759397  46.8801862  39.8036802 128.7927030  47.1029575  42.4170705
 129.2926809  47.2146110  41.6085024 129.4362638  46.7990628  43.0571513
 122.8509026  55.0108205  55.3038546 122.3676108  55.8108565  55.5102435
 122.9369965  55.0216150  54.3505990 116.1194986  56.8436585  43.2260365
 116.0965674  56.9424272  42.2742248 116.4295622  57.6901736  43.5477531
 119.3681746  57.4713856  49.9077777 120.1874635  57.9657935  49.9312615
 119.6418553  56.5545824  49.8795345 129.1248342  49.8624608  39.2705733
 128.2374197  50.1474259  39.0525928 129.5402331  49.7018372  38.4233010
 132.4762878  49.8871129  42.9860072 133.2523268  50.3767582  43.2584689
 131.7511012  50.3129183  43.4431942 134.9135437  50.5998748  44.0434013
 135.5079927  50.3594484  43.3327321 134.9862020  49.8805879  44.6707549
 128.2691555  59.6269283  33.3653753 128.9727405  59.8319285  33.9811408
 127.5454204  60.1946045  33.6302836 129.0989366  55.3779144  39.4856023
 129.0424567  55.8347696  38.6463655 129.6517708  54.6169829  39.3078866
 132.9094172  51.1668876  40.3106142 132.6531106  50.7665512  41.1414350
 132.2847040  51.8812670  40.1856282 137.2206509  53.9064949  42.8177434
 136.6606067  53.9758139  43.5908996 136.6150013  53.7305934  42.0976930
 130.1778253  60.0651812  35.4152213 131.0123857  59.6333010  35.2329688
 130.0162596  59.8933826  36.3429107 129.8324145  56.5683925  36.7808552
 129.7772949  56.4028197  35.8396996 129.2070200  57.2759958  36.9370742
 114.6216660  51.8051990  50.6069974 115.2675523  51.2950944  51.0957200
 114.4133811  52.5420671  51.1813400 127.1470052  58.8732837  56.1062115
 128.0161212  59.0473489  55.7448750 126.6676804  59.6927254  55.9837844
 123.1420270  46.0692034  36.3593871 123.1298940  47.0133874  36.5162141
 124.0343692  45.8862180  36.0653332 126.9572390  42.6634811  40.6139807
 126.1904786  42.1093298  40.7596490 127.3683095  42.7356680  41.4753959
 118.9614151  48.9519607  54.7044989 119.8245612  48.5956412  54.9148313
 118.3879562  48.6133502  55.3920393 138.8062528  70.5821463  45.5107390
 139.4440938  70.4628210  44.8070730 138.6883371  71.5302307  45.5695342
 135.6152234  70.5348891  45.4468914 135.2770746  70.4189956  44.5589449
 136.4842002  70.1340056  45.4269920 131.4739050  72.3884368  41.4365805
 130.9103915  72.2974305  40.6682093 131.3591445  71.5684272  41.9168298
 136.0972017  71.6883743  51.4055120 136.0860658  71.2936541  50.5335623
 136.2592657  70.9549816  51.9988891 129.0203482  73.8835559  44.2750026
 129.8124774  73.5426384  43.8596325 129.2600132  73.9930534  45.1952179
 137.0538609  76.0555335  36.7480270 136.4026588  76.6409416  36.3614284
 137.8482971  76.5861530  36.8075308 130.9794236  73.1444472  37.1467404
 131.7525112  72.5973460  37.0080280 131.3319635  74.0088722  37.3581866
 132.8179278  74.4720855  50.3534304 132.5269144  75.3766486  50.2380970
 133.4536263  74.5137382  51.0678373 133.7435485  71.8497703  46.9435663
 134.3399057  71.6253726  46.2292626 133.8010457  71.1082449  47.5461111
 133.3160513  69.3037139  34.7785854 133.5686034  68.7818660  34.0169317
 132.3785073  69.1403284  34.8812538 138.3603796  68.3072917  42.5860598
 139.1466886  67.8892340  42.2351015 138.6242501  69.2119009  42.7542246
 138.5313874  73.7445767  37.2849254 137.8959707  73.8180394  37.9970159
 138.2011280  74.3339366  36.6068334 133.0356802  71.2065245  36.9810229
 132.9193060  70.5310148  37.6491314 133.1459062  70.7197618  36.1642382
 135.3788343  70.6675392  40.6856919 135.0146550  70.1406013  41.3969840
 136.2355459  70.2773861  40.5123404 135.0193830  65.6965291  35.6818267
 135.1868232  66.5645528  36.0488738 134.8290999  65.8592573  34.7579556
 137.7769163  74.1582270  47.3484097 137.4769886  75.0607309  47.2399905
 137.4320223  73.8914453  48.2005250 131.2281645  70.6096067  43.3820802
 130.3032141  70.4772281  43.5898494 131.4766058  71.3890286  43.8790744
 141.1766307  66.6764810  45.0281535 140.2683184  66.6080219  44.7340296
 141.1253903  67.1536755  45.8563360 134.9983051  68.1522949  36.6664934
 134.8782676  68.5980000  37.5050414 134.3035639  68.5008267  36.1078472
 128.5890456  70.2529341  44.2164591 128.7182837  70.5063820  45.1304003
 127.9087907  70.8457049  43.8969246 132.7589943  80.9226591  40.3155065
 132.6813973  81.8734416  40.3943546 132.1551587  80.5772463  40.9729991
 135.2507173  68.0954456  52.9716432 134.4740507  68.6548376  52.9619297
 135.8897736  68.5811239  53.4931302 133.5053545  70.9039909  52.5334399
 134.2468230  71.4424953  52.2569223 132.7990531  71.5306198  52.6905951
 138.9808885  73.0469050  51.1306561 139.3892241  72.6051460  50.3861193
 138.2586146  72.4721677  51.3840753 135.3339955  67.9841657  48.5040117
 136.1801150  68.4081070  48.6474766 135.2738593  67.3275281  49.1978681
 139.3037699  73.6070240  44.8858849 138.6746562  73.7715955  44.1834917
 138.9163362  74.0211850  45.6569813 138.4839400  65.6446025  50.1621291
 138.2400332  66.3988086  49.6255567 138.7599331  66.0231373  50.9968538
 140.4377863  72.1884637  48.8398557 140.6494758  72.8316397  48.1632938
 140.3907611  71.3546954  48.3720487 138.0404092  64.8002458  45.7435129
 137.1788571  65.0983712  46.0351866 138.0666527  65.0172857  44.8116161
 134.8565661  73.3444649  42.1508935 135.3204007  73.6232352  41.3613557
 134.5922459  72.4428093  41.9682025 131.7489742  72.8916130  45.0888698
 132.3191099  73.3203398  44.4506182 132.3397854  72.6098715  45.7872883
 133.7934547  69.4667801  38.9598500 134.4958591  69.9188845  39.4272426
 133.4615176  68.8251620  39.5878393 132.2414909  68.0579558  53.3349709
 131.6113570  68.7395838  53.5685106 132.1350997  67.9462639  52.3902847
 127.5359881  67.7251354  44.2615633 126.7458935  67.9808882  43.7855744
 128.0271129  68.5399691  44.3667674 129.4874627  68.0895933  41.2199110
 128.6905790  68.2014627  41.7382606 129.2600219  68.4282585  40.3540000
 135.3180294  74.6140636  49.1681625 135.3824727  75.0761043  50.0039796
 134.6091218  73.9838001  49.2963934 135.0328312  76.2808744  39.0360605
 134.8973987  77.1260279  39.4645453 135.5738125  76.4828021  38.2726539
 131.5195652  62.3600323  55.6974960 131.1262597  61.8066522  56.3722604
 132.3361792  62.6710902  56.0881478 128.4857709  73.7984182  39.6088530
 128.9982230  74.5927432  39.7594095 129.1380422  73.1010472  39.5422131
 130.2952594  76.9149938  41.6911283 130.4719222  77.8367903  41.5032267
 131.0909428  76.6008357  42.1205663 134.4363613  63.7758203  53.2895217
 135.1773326  64.3765356  53.2099679 134.6681535  63.0335840  52.7313259
 129.5804951  68.9614570  51.5673446 129.4658466  68.0599827  51.8680545
 128.7249468  69.2078267  51.2158263 136.6596788  76.9032310  53.1660947
 136.2160643  76.1168689  52.8481851 137.3214002  77.0911461  52.5004838
 131.4183910  78.4328112  47.6921625 131.9691335  78.3045175  46.9198619
 130.5795385  78.7323001  47.3416518 138.7578026  77.1835110  51.1942348
 138.7396502  78.0043991  50.7022617 139.6797947  77.0589185  51.4192489
 135.2151081  74.6979240  52.0365857 135.7479417  73.9367528  51.8065165
 134.6865162  74.4052891  52.7790011 138.3820776  59.8039305  47.5659498
 138.0385045  60.6940947  47.4898609 138.7499738  59.6140963  46.7029083
 126.4506626  72.1272836  40.3848100 127.2881848  72.5369844  40.1681808
 126.6284894  71.1872278  40.3548294 138.3471058  69.7947917  36.0731933
 137.8317682  70.5652521  36.3120321 138.0748367  69.1213053  36.6964995
 135.9318169  64.6397617  41.1317172 135.0759766  64.2504468  40.9522811
 136.3445121  64.7189578  40.2716957 137.4617316  62.1743961  45.5308732
 136.9582112  62.1374096  44.7176537 137.7547923  63.0836703  45.5905388
 133.7060202  62.2582690  44.5374913 134.5713199  62.0625499  44.1780803
 133.7737711  62.0293042  45.4644270 138.1357361  67.6675009  37.8991715
 137.8307497  67.9821158  38.7501858 139.0887804  67.7456429  37.9419048
 136.5803793  73.8265232  39.5484669 136.0525155  73.0917992  39.2357906
 136.0791296  74.6039908  39.3024637 131.3122521  64.4884898  41.9091280
 131.8866273  64.2660080  41.1764473 131.8993503  64.5573593  42.6619881
 140.3702098  70.3758625  42.7155657 140.8833980  71.0088617  43.2177366
 141.0203322  69.7759821  42.3499017 131.6392108  66.5189359  35.9287165
 130.8029420  66.8564046  36.2496440 131.4996878  66.3838339  34.9914302
 133.6145189  61.3626147  40.6366350 132.9609601  61.0475164  40.0122964
 133.5725663  60.7401888  41.3626172 134.7256393  71.6445442  32.5519642
 133.8183455  71.4134696  32.7510791 135.2227425  70.8483061  32.7393623
 137.6324472  80.3542949  35.4716328 136.9586171  80.6574646  36.0801286
 138.0190294  81.1572030  35.1221785 136.8482929  67.8508081  44.9613997
 135.9305490  68.0723028  44.8035685 137.2643073  67.9254391  44.1025705
 137.6317977  69.2499496  40.0916677 138.3789796  69.7620894  39.7823799
 137.9009566  68.9283549  40.9521071 135.9044627  71.7458037  37.0743632
 134.9955846  71.4617070  37.1716101 135.9339711  72.1657116  36.2146939
 141.1363894  75.3564627  40.8434799 140.6826221  74.5155536  40.8999990
 140.5057861  75.9926025  41.1809579 140.0796814  66.2856613  42.0735467
 139.3419571  65.7733999  42.4045709 140.3323587  65.8456994  41.2618744
 139.5796834  77.1941123  41.7784617 139.8719808  77.7546180  41.0596983
 140.0895454  77.4869684  42.5337777 140.1808441  59.0632865  42.6677236
 140.4867318  58.2030228  42.3803151 140.9061046  59.6550485  42.4676230
 126.4732797  69.4663551  41.0558834 126.2757197  68.8732912  40.3309901
 125.9179461  69.1615761  41.7734773 134.4529521  69.3586658  43.1753427
 134.5078131  68.4060494  43.0995904 133.6420723  69.5146097  43.6594726
 135.6020715  73.2866781  34.4131710 135.1640145  72.5702640  33.9537348
 136.3431156  73.5142896  33.8516802 132.3921881  67.9763717  40.9343806
 131.5789746  68.2757888  41.3408998 132.8880875  67.5819406  41.6518288
 134.5430459  77.9721474  42.8678071 134.5006638  78.1982321  41.9386603
 135.4593158  77.7384849  43.0163872 137.9896093  68.4405542  49.7658700
 138.3445480  68.6677015  50.6253166 138.6368224  68.7723919  49.1435955
 131.8835956  65.5482073  46.5505041 132.5235335  65.4070832  45.8528004
 131.0513486  65.2616586  46.1743643 132.6596260  74.8484503  42.6640033
 133.4536858  74.3534824  42.4622608 131.9487952  74.3202367  42.3007739
 137.4791104  77.2302599  47.0152401 137.5328126  77.7993535  47.7830117
 136.6105885  77.4004484  46.6506438 128.9679023  68.9927585  38.7399786
 128.0376611  68.9312041  38.9569748 129.0636495  68.4703538  37.9436427
 128.8864572  65.5182398  41.3278028 129.1471389  66.4327731  41.2187188
 129.7081744  65.0506841  41.4774641 130.3589497  66.9320155  48.4976852
 131.0312551  66.7237517  47.8489501 129.5319284  66.7342241  48.0582085
 136.2615069  63.5582096  50.5142513 135.6142984  64.2572046  50.4206990
 137.0316085  63.9918240  50.8818761 139.6693867  73.8230948  53.5893066
 139.5179374  73.5941500  52.6723150 139.6598547  74.7801550  53.6024411
 136.4379204  71.3962861  48.5739333 137.3671264  71.5474021  48.4008300
 136.0170234  71.4846882  47.7187979 135.2367536  75.4213525  46.3437870
 135.0978621  75.0532310  47.2163809 134.4482132  75.9361165  46.1721828
 135.8315688  80.5222622  37.6863407 136.0067443  80.0510665  38.5009030
 135.1448476  81.1488388  37.9144668 136.7872751  74.7995128  43.7326708
 136.4522583  74.7595898  44.6284358 136.2876696  74.1339844  43.2597118
 130.7616995  70.2062758  49.2579289 130.6236793  69.4742997  49.8590828
 131.6721918  70.1171658  48.9763477 139.7231942  72.1451162  34.0063768
 139.1061113  71.4197991  33.9096821 139.2548431  72.9060523  33.6630842
 133.3899295  69.9182717  48.7462969 134.0998914  69.2775910  48.7049587
 133.3468603  70.1695612  49.6689150 132.1028229  66.9047935  50.5658609
 131.5665586  66.4538674  51.2180205 131.5144938  67.0393844  49.8229073
 130.3976773  83.6711985  44.4603267 130.6373371  84.3030509  45.1382286
 129.5545969  83.3200025  44.7468626 131.5130488  66.3636587  33.1285072
 130.6359955  66.2425388  32.7647319 131.9888241  65.5722665  32.8763961
 123.0332628  71.1513746  43.2226579 123.7203668  70.8375476  42.6347595
 122.8780757  72.0555111  42.9493831 127.8367351  66.0403943  47.6511603
 127.7525539  65.4329613  46.9162013 127.0150057  66.5312961  47.6521099
 134.9104635  79.4791107  46.8644771 134.8374806  80.2846079  47.3764076
 134.4682028  79.6783073  46.0392793 134.6994414  78.7162877  40.3747593
 133.9161936  79.2584557  40.4685817 135.3987159  79.2336857  40.7741834
 138.0091064  64.5257507  43.0181798 138.5059764  63.7727469  42.6982868
 137.2378046  64.5621823  42.4525007 137.3703318  79.3777941  49.0202930
 138.0831290  80.0125406  48.9478831 136.8793347  79.4741807  48.2042932
 139.0920845  73.2829194  40.5920221 138.1577124  73.4030656  40.4224926
 139.2697514  72.3801661  40.3280231 134.5926033  66.6674890  42.7453483
 134.2223821  66.1145930  43.4334388 135.0885126  66.0633023  42.1928483
 132.4215232  77.1272385  49.8408501 133.1224691  77.7608868  49.9937895
 131.9510347  77.4687116  49.0804140 140.5469628  75.4690334  38.1256408
 140.8229471  75.3546929  39.0350282 139.6774126  75.0707819  38.0868581
 140.4510059  61.4927100  45.1661157 139.5373139  61.7231327  45.3343364
 140.8803161  61.5765544  46.0175189 140.2216518  69.6816992  47.6661051
 139.5687968  69.9292899  47.0113504 140.5996898  68.8681130  47.3323528
 137.1823692  79.7176685  41.7689221 137.3646086  78.8998341  42.2316974
 138.0056678  79.9344377  41.3314111 137.5165857  78.6444870  39.0304270
 138.0453623  78.1337325  38.4174432 137.7794077  78.3287401  39.8949803
 136.2704091  70.4236803  54.1527088 135.5944728  70.3230932  54.8229463
 137.0931725  70.2676017  54.6163085 128.0182950  76.6608740  46.7739603
 128.6036387  75.9152428  46.9067508 127.8207788  76.9712696  47.6576267
 130.8721605  79.6959987  41.7902046 130.2031980  80.1806115  41.3066086
 130.7334475  79.9429207  42.7045424 135.0126874  81.7303731  48.3884704
 135.5645182  81.8935352  49.1533789 135.3533067  82.3208168  47.7164729
 129.9891367  64.0778880  48.9906589 130.0532693  64.9393711  48.5783986
 129.9258487  63.4652882  48.2578947 129.4643639  66.1502013  52.6379623
 130.0915678  65.7679090  53.2517147 128.6071558  65.9316215  53.0035316
 139.8637748  76.5564988  54.2433358 140.4077652  77.1694946  53.7488313
 139.2824593  77.1144566  54.7600371 126.2409182  67.9578442  38.5697978
 126.5362623  67.0489120  38.5165032 125.3397218  67.9366181  38.2478980
 138.1495261  79.6785706  45.3748386 138.0246400  78.8775446  44.8659332
 138.8074352  80.1731899  44.8862356 129.7703429  66.0334439  44.5525526
 129.0490015  66.6470406  44.4133000 130.5596685  66.5692203  44.4742172
 140.2130169  77.4794726  47.0027936 139.2660505  77.3600077  46.9306263
 140.5612942  76.5917224  47.0854198 132.5729743  63.3688865  50.8266178
 133.0964144  63.6151162  51.5892488 132.3542076  64.2008900  50.4069316
 127.9697024  65.6392540  38.6937303 127.6409730  64.7589919  38.5112409
 128.3236394  65.5840208  39.5813692 137.2176603  77.2747442  43.2032289
 137.0701565  76.3464150  43.3839859 138.0430096  77.2967533  42.7189364
 131.0838847  65.9265509  39.0612781 131.4234919  66.4551431  38.3391389
 131.5310967  66.2645916  39.8371347 133.7782288  64.3102560  48.5115849
 133.4379108  63.5110373  48.9136529 133.0721294  64.6104271  47.9392682
 134.4298759  61.3951873  46.9643172 135.2524829  60.9212351  46.8422062
 134.6736823  62.1742356  47.4641858 133.0706994  64.4240131  37.2606073
 133.7915356  64.8021384  36.7569790 132.4472298  65.1429008  37.3641051
 137.2138117  65.1285280  38.1964406 137.4301731  66.0109918  37.8953234
 136.7332184  64.7371493  37.4670048 131.9537338  68.0870993  44.7735150
 131.8081919  68.4011296  45.6659432 131.4762542  68.7055894  44.2206049
 133.8133721  65.0773541  44.8216040 133.7995290  64.1814635  44.4848338
 134.5306149  65.0844205  45.4554326 135.6659852  65.5110881  46.8669167
 135.4077630  66.4327952  46.8653498 135.1344892  65.1141316  47.5569631
 140.6106041  78.6161669  39.6459253 140.7842918  78.0508091  38.8933105
 141.1034932  79.4162563  39.4638743 133.2170617  63.9587921  40.0903610
 133.3386528  63.0304568  40.2894498 132.9272659  63.9726607  39.1781925
 136.0861807  61.6442832  43.2270330 136.1083504  61.7082165  42.2722309
 136.5029866  60.8047341  43.4210836 135.1592685  79.2962212  50.4033358
 135.4679811  79.0511359  51.2756058 135.9568167  79.5008851  49.9152229
 135.1813297  81.4500122  42.6338735 134.7418287  80.9576500  43.3271592
 135.9321414  80.9073089  42.3930810 127.6605636  77.6411663  42.6363363
 128.4863656  77.3415434  42.2562007 127.3099688  76.8719285  43.0853152
 132.6287169  76.9938131  44.7061037 132.0067178  76.3308836  44.4063264
 133.2992036  77.0199263  44.0234684 125.8614241  75.5597989  43.5952297
 125.0246149  75.1320163  43.4136298 125.8337886  75.7530432  44.5323088
 132.7011697  65.4719919  54.2993543 132.7499852  66.3482042  53.9171312
 133.2434211  64.9297312  53.7265186 132.1900676  75.5442054  38.1819497
 132.3388796  76.2277519  37.5286170 132.9967119  75.5247144  38.6968953
 134.9310985  66.2251291  51.0539901 134.0614294  66.5184857  50.7822490
 135.1670465  66.8091736  51.7747165 129.9453309  71.5707232  39.1880566
 129.6999351  70.6669562  39.3860776 130.1149224  71.5724382  38.2460044
 137.6350019  62.4430908  48.5705322 138.1531963  63.1791935  48.2451810
 137.2805152  62.7494901  49.4052081 129.2148957  67.3035589  36.6866728
 128.5218201  67.3779944  36.0306764 128.9700708  66.5395933  37.2088244
 137.8862613  58.8631191  44.0906218 138.1664367  58.1954380  44.7166645
 138.6713220  59.0560286  43.5780882 135.6896082  78.0390185  35.6531245
 135.1170049  78.6580372  35.2001716 136.2628875  78.5889546  36.1871167
 139.7785851  64.3704408  48.0237194 139.1835783  64.6509421  47.3283683
 139.4935548  64.8598309  48.7953935 138.9093341  78.3227335  36.7839827
 139.8424014  78.2572896  36.9872702 138.8216554  79.1583602  36.3254360
 136.0742880  69.3750997  32.9947297 137.0201985  69.2457205  33.0635715
 135.6957125  68.6365659  33.4716725 135.9581573  73.4268743  54.4547954
 136.8784582  73.6047343  54.6488001 135.9231156  72.4824789  54.3027653
 134.2585797  67.3000974  32.9302182 133.3517253  67.0034086  33.0064896
 134.5361778  67.0030792  32.0636469 125.1763738  68.6207337  43.3801229
 124.8566522  67.7672645  43.0875603 124.6297166  68.8355915  44.1359196
 128.9543645  71.3369778  47.0970735 129.1729655  72.2686886  47.1158769
 129.3669419  70.9777753  47.8825539 135.8747863  61.8437863  39.0846424
 135.0648591  61.4984948  39.4601670 136.5632280  61.5345407  39.6734035
 137.8038411  60.9215910  40.7070720 138.3569450  61.3411364  41.3660743
 138.0408498  59.9951658  40.7493676 133.8271510  66.9102984  56.4873484
 133.7268237  67.8597341  56.4185575 133.6093053  66.5821223  55.6149554
 133.0284582  64.1587909  33.0714162 133.8903746  64.4842807  33.3309979
 133.2134926  63.3719405  32.5587227 125.0451998  72.2410249  45.3494350
 124.3515469  71.8264201  44.8364305 125.7924989  72.2830785  44.7527769
 141.1817218  63.0316435  40.2149385 140.6015887  63.6901239  39.8327437
 140.9153151  62.2093780  39.8036802 139.6320785  62.4321493  42.4170705
 140.1320563  62.5438028  41.6085024 140.2756393  62.1282546  43.0571513
 133.6902781  70.3400123  55.3038546 133.2069862  71.1400483  55.5102435
 133.7763720  70.3508068  54.3505990 126.9588740  72.1728502  43.2260365
 126.9359428  72.2716190  42.2742248 127.2689377  73.0193653  43.5477531
 129.6176118  74.2304657  47.3406980 130.5719372  74.1988600  47.2736911
 129.4188642  73.7695281  48.1557206 130.2075500  72.8005774  49.9077777
 131.0268389  73.2949852  49.9312615 130.4812308  71.8837742  49.8795345
 139.9642096  65.1916526  39.2705733 139.0767951  65.4766176  39.0525928
 140.3796085  65.0310289  38.4233010 127.9726347  79.7724277  44.3577177
 127.8380815  79.0124678  43.7915176 127.5558409  80.4965177  43.8905966
 139.1085310  74.9561200  33.3653753 139.8121160  75.1611203  33.9811408
 138.3847959  75.5237962  33.6302836 139.9383120  70.7071062  39.4856023
 139.8818321  71.1639613  38.6463655 140.4911463  69.9461746  39.3078866
 131.1295473  80.6693594  44.5695620 131.0127857  81.6139026  44.4674310
 130.3087919  80.3667156  44.9581419 140.6717899  71.8975843  36.7808552
 140.6166703  71.7320114  35.8396996 140.0463955  72.6051876  36.9370742
 137.9863807  74.2024755  56.1062115 138.8554966  74.3765407  55.7448750
 137.5070558  75.0219172  55.9837844 133.9814025  61.3983952  36.3593871
 133.9692695  62.3425792  36.5162141 134.8737447  61.2154097  36.0653332
 132.1549987  81.3221856  47.7851549 133.0577233  81.3545466  48.1018044
 131.9287357  80.3922307  47.7997884 133.9103589  80.0752842  44.4461627
 132.9599220  80.0754704  44.3325999 134.2136075  79.3285577  43.9297662
 137.7966144  57.9926729  40.6139807 137.0298540  57.4385215  40.7596490
 138.2076849  58.0648597  41.4753959 129.8007905  64.2811524  54.7044989
 130.6639367  63.9248329  54.9148313 129.2273316  63.9425419  55.3920393
 139.8597236  89.2127477  44.2750026 140.6518528  88.8718302  43.8596325
 140.0993886  89.3222452  45.1952179 139.4284210  85.5821258  44.2164591
 139.5576591  85.8355737  45.1304003 138.7481662  86.1748966  43.8969246
 138.3753636  83.0543271  44.2615633 137.5852690  83.3100800  43.7855744
 138.8664883  83.8691609  44.3667674 140.3268381  83.4187851  41.2199110
 139.5299544  83.5306545  41.7382606 140.0993973  83.7574503  40.3540000
 136.6591339  83.3073762  46.6930624 136.9099377  84.1920772  46.9588200
 137.1950887  83.1278363  45.9205716 139.3251464  89.1276099  39.6088530
 139.8375984  89.9219350  39.7594095 139.9774177  88.4302390  39.5422131
 140.4198705  84.2906487  51.5673446 140.3052220  83.3891745  51.8680545
 139.5643223  84.5370184  51.2158263 137.2900381  87.4564754  40.3848100
 138.1275603  87.8661762  40.1681808 137.4678648  86.5164196  40.3548294
 137.3126552  84.7955469  41.0558834 137.1150952  84.2024830  40.3309901
 136.7573216  84.4907679  41.7734773 139.8072778  84.3219503  38.7399786
 138.8770366  84.2603958  38.9569748 139.9030250  83.7995456  37.9436427
 139.7258327  80.8474316  41.3278028 139.9865144  81.7619649  41.2187188
 140.5475499  80.3798758  41.4774641 133.8726383  86.4805664  43.2226579
 134.5597423  86.1667394  42.6347595 133.7174512  87.3847029  42.9493831
 138.6761105  81.3695861  47.6511603 138.5919294  80.7621530  46.9162013
 137.8543811  81.8604879  47.6521099 138.8576704  91.9900657  46.7739603
 139.4430141  91.2444345  46.9067508 138.6601543  92.3004614  47.6576267
 133.4494359  84.5606257  45.4944046 133.4878459  84.0269848  46.2881165
 132.9434652  84.0341463  44.8755024 140.8285121  79.4070798  48.9906589
 140.8926448  80.2685629  48.5783986 140.7652242  78.7944800  48.2578947
 140.3037394  81.4793931  52.6379623 140.9309433  81.0971008  53.2517147
 139.4465313  81.2608132  53.0035316 137.0802937  83.2870360  38.5697978
 137.3756378  82.3781038  38.5165032 136.1790972  83.2658099  38.2478980
 138.8090778  80.9684457  38.6937303 138.4803484  80.0881836  38.5112409
 139.1630149  80.9132126  39.5813692 137.2676755  85.9568255  47.7122812
 136.7230223  86.7328063  47.8443086 138.1456105  86.3039060  47.5541933
 138.0542777  85.0838152  50.6052968 137.3124513  85.2320787  51.1917599
 137.7335521  85.3446417  49.7419718 138.4999390  92.9703580  42.6363363
 139.3257410  92.6707352  42.2562007 138.1493442  92.2011203  43.0853152
 136.7007995  90.8889907  43.5952297 135.8639904  90.4612081  43.4136298
 136.6731641  91.0822350  44.5323088 140.7847063  86.8999149  39.1880566
 140.5393105  85.9961479  39.3860776 140.9542978  86.9016300  38.2460044
 140.0542711  82.6327507  36.6866728 139.3611956  82.7071862  36.0306764
 139.8094463  81.8687851  37.2088244 136.0157492  83.9499255  43.3801229
 135.6960276  83.0964563  43.0875603 135.4690920  84.1647833  44.1359196
 139.7937400  86.6661696  47.0970735 140.0123409  87.5978804  47.1158769
 140.2063173  86.3069670  47.8825539 135.8845752  87.5702166  45.3494350
 135.1909224  87.1556119  44.8364305 136.6318743  87.6122703  44.7527769
 137.7982495  87.5020420  43.2260365 137.7753183  87.6008107  42.2742248
 138.1083131  88.3485571  43.5477531 138.8120101  95.1016195  44.3577177
 138.6774569  94.3416596  43.7915176 138.3952164  95.8257094  43.8905966
 136.3004169  82.4635825  50.6069974 136.9463032  81.9534779  51.0957200
 136.0921320  83.2004507  51.1813400 100.2408681  11.9412960  27.0400372
 100.1632711  12.8920785  27.1188852  99.6370324  11.5958833  27.6975298
 102.5147050   7.2995113  25.7605911 102.3792725   8.1446649  26.1890759
 103.0556862   7.5014391  24.9971845  97.7771332   7.9336307  28.4156590
  97.9537960   8.8554272  28.2277574  98.5728165   7.6194727  28.8450970
  98.9002647   9.4514481  34.4166932  99.4510072   9.3231545  33.6443926
  98.0614123   9.7509370  34.0661825 105.1143210  11.3729319  22.1961634
 104.4404909  11.6761016  22.8046592 105.5009032  12.1758399  21.8467091
 102.0249197   8.9907844  29.5923377 101.9825375   9.2168690  28.6631909
 102.9411895   8.7571219  29.7409178 104.9609842   8.2488969  33.7397708
 105.0146864   8.8179905  34.5075424 104.0924623   8.4190854  33.3751745
 103.3134425  11.5408991  24.4108714 103.4886181  11.0697035  25.2254336
 102.6267213  12.1674758  24.6389974  97.8795511  14.6898354  31.1848574
  98.1192109  15.3216878  31.8627592  97.0364707  14.3386394  31.4713933
 102.3923372  10.4977477  33.5890078 102.3193544  11.3032448  34.1009382
 101.9500766  10.6969442  32.7638099 102.1813152   9.7349247  27.0992899
 101.3980674  10.2770927  27.1931124 102.8805897  10.2523226  27.4987140
 104.8522056  10.3964311  35.7448236 105.5650028  11.0311775  35.6724138
 104.3612085  10.4928177  34.9288238  99.9033970   8.1458754  36.5653807
 100.6043429   8.7795237  36.7183201  99.4329085   8.4873486  35.8049447
 104.6642429  10.7363055  28.4934528 104.8464824   9.9184711  28.9562280
 105.4875415  10.9530747  28.0559418 104.9984595   9.6631240  25.7549576
 105.5272361   9.1523694  25.1419738 105.2612814   9.3473770  26.6195109
  95.5001688   7.6795109  33.4984910  96.0855124   6.9338797  33.6312814
  95.3026526   7.9899066  34.3821574  98.3540343  10.7146357  28.5147352
  97.6850718  11.1992484  28.0311392  98.2153213  10.9615577  29.4290731
 102.4945611  12.7490100  35.1130011 103.0463919  12.9121722  35.8779096
 102.8351805  13.3394538  34.4410036 105.6313999  10.6972076  32.0993693
 105.5065138   9.8961815  31.5904638 106.2893090  11.1918269  31.6107663
 102.6411423  10.3148582  37.1278665 102.9498549  10.0697728  38.0001365
 103.4386905  10.5195220  36.6397535 102.6632035  12.4686491  29.3584042
 102.2237025  11.9762870  30.0516898 103.4140152  11.9259459  29.1176117
  95.1424374   8.6598032  29.3608670  95.9682394   8.3601804  28.9807313
  94.7918426   7.8905655  29.8098458 100.1105907   8.0124500  31.4306343
  99.4885916   7.3495205  31.1308571 100.7810774   8.0385632  30.7479991
  93.3432979   6.5784359  30.3197603  92.5064887   6.1506533  30.1381605
  93.3156624   6.7716802  31.2568394  99.6719414   6.5628424  24.9064804
  99.8207534   7.2463888  24.2531477 100.4785857   6.5433514  25.4214260
 103.1714819   9.0576554  22.3776551 102.5988786   9.6766741  21.9247023
 103.7447613   9.6075916  22.9116473 106.3912079   9.3413704  23.5085134
 107.3242752   9.2759266  23.7118009 106.3035292  10.1769971  23.0499666
  95.4545085  10.7910647  31.0822484  95.3199553  10.0311047  30.5160482
  95.0377147  11.5151546  30.6151273  98.6114210  11.6879964  31.2940927
  98.4946595  12.6325396  31.1919617  97.7906657  11.3853525  31.6826726
  99.6368725  12.3408225  34.5096855 100.5395971  12.3731836  34.8263350
  99.4106095  11.4108676  34.5243191 101.3922327  11.0939212  31.1706934
 100.4417958  11.0941074  31.0571306 101.6954813  10.3471947  30.6542968
 117.1275020  16.9299750  32.2352696 117.7653430  16.8106498  31.5316036
 117.0095863  17.8780594  32.2940648 113.9364726  16.8827178  32.1714221
 113.5983238  16.7668243  31.2834756 114.8054495  16.4818344  32.1515227
 109.7951542  18.7362655  28.1611112 109.2316407  18.6452592  27.3927400
 109.6803937  17.9162559  28.6413604 114.4184509  18.0362030  38.1300426
 114.4073150  17.6414828  37.2580930 114.5805149  17.3028103  38.7234198
 107.3415974  20.2313846  30.9995332 108.1337266  19.8904671  30.5841632
 107.5812624  20.3408822  31.9197486 115.3751101  22.4033623  23.4725577
 114.7239081  22.9887703  23.0859591 116.1695464  22.9339817  23.5320614
 109.3006728  19.4922760  23.8712711 110.0737604  18.9451747  23.7325587
 109.6532127  20.3567009  24.0827172 111.1391770  20.8199142  37.0779610
 110.8481636  21.7244773  36.9626277 111.7748755  20.8615670  37.7923680
 112.0647977  18.1975991  33.6680970 112.6611550  17.9732013  32.9537933
 112.1222949  17.4560736  34.2706418 116.6816289  14.6551204  29.3105904
 117.4679378  14.2370627  28.9596321 116.9454993  15.5597296  29.4787553
 116.8526366  20.0924055  24.0094561 116.2172199  20.1658681  24.7215466
 116.5223772  20.6817653  23.3313640 111.3569294  17.5543532  23.7055536
 111.2405553  16.8788435  24.3736620 111.4671554  17.0675906  22.8887689
 113.7000835  17.0153679  27.4102225 113.3359043  16.4884300  28.1215147
 114.5567951  16.6252148  27.2368711 116.0981656  20.5060558  34.0729404
 115.7982379  21.4085596  33.9645211 115.7532715  20.2392741  34.9250557
 109.5494137  16.9574354  30.1066109 108.6244634  16.8250568  30.3143800
 109.7978550  17.7368574  30.6036051 113.3195543  14.5001236  23.3910241
 113.1995168  14.9458287  24.2295721 112.6248132  14.8486554  22.8323779
 106.9102948  16.6007628  30.9409898 107.0395329  16.8542107  31.8549309
 106.2300399  17.1935336  30.6214553 111.0802435  27.2704878  27.0400372
 111.0026465  28.2212703  27.1188852 110.4764079  26.9250750  27.6975298
 113.5719665  14.4432743  39.6961739 112.7952999  15.0026663  39.6864603
 114.2110228  14.9289526  40.2176609 111.8266037  17.2518197  39.2579706
 112.5680722  17.7903241  38.9814529 111.1203023  17.8784485  39.4151257
 117.3021377  19.3947337  37.8551867 117.7104733  18.9529748  37.1106500
 116.5798639  18.8199965  38.1086060 113.6552447  14.3319944  35.2285424
 114.5013642  14.7559357  35.3720073 113.5951085  13.6753568  35.9223987
 117.6250192  19.9548528  31.6104156 116.9959054  20.1194242  30.9080224
 117.2375854  20.3690137  32.3815120 121.5039424  20.8902966  28.9648520
 120.8190462  21.2701867  28.4145553 121.5883273  21.4998292  29.6980468
 118.7590355  18.5362925  35.5643863 118.9707250  19.1794685  34.8878244
 118.7120103  17.7025241  35.0965793 113.1778154  19.6922936  28.8754241
 113.6416499  19.9710639  28.0858864 112.9134952  18.7906380  28.6927332
 110.0702235  19.2394417  31.8134004 110.6403592  19.6681686  31.1751489
 110.6610347  18.9577002  32.5118190 112.1147040  15.8146088  25.6843806
 112.8171083  16.2667132  26.1517733 111.7827668  15.1729907  26.3123699
 110.5627401  14.4057845  40.0595016 109.9326062  15.0874126  40.2930412
 110.4563489  14.2940926  39.1148154 105.8572374  14.0729641  30.9860940
 105.0671428  14.3287169  30.5101050 106.3483621  14.8877979  31.0912980
 119.8736183  21.4134880  33.7366221 120.6953627  21.0115067  33.4548902
 119.8698586  21.3103114  34.6882336 107.8087119  14.4374220  27.9444417
 107.0118282  14.5492914  28.4627912 107.5812711  14.7760872  27.0785307
 113.6392787  20.9618923  35.8926931 113.7037219  21.4239331  36.7285103
 112.9303711  20.3316288  36.0209241 104.1410077  14.3260131  33.4175931
 104.3918115  15.2107141  33.6833507 104.6769625  14.1464733  32.6451022
 113.3540804  22.6287031  25.7605911 113.2186479  23.4738567  26.1890759
 113.8950617  22.8306308  24.9971845 106.8070202  20.1462469  26.3333837
 107.3194722  20.9405719  26.4839401 107.4592915  19.4488759  26.2667438
 108.6165086  23.2628225  28.4156590 108.7931715  24.1846190  28.2277574
 109.4121920  22.9486644  28.8450970 107.9017443  15.3092857  38.2918753
 107.7870958  14.4078114  38.5925852 107.0461961  15.5556554  37.9403570
 114.9809281  23.2510597  39.8906254 114.5373135  22.4646976  39.5727158
 115.6426494  23.4389748  39.2250144 109.7396402  24.7806399  34.4166932
 110.2903827  24.6523462  33.6443926 108.9007878  25.0801288  34.0661825
 117.0790519  23.5313397  37.9187655 117.0608994  24.3522278  37.4267924
 118.0010439  23.4067472  38.1437796 113.5363573  21.0457527  38.7611163
 114.0691910  20.2845815  38.5310471 113.0077654  20.7531179  39.5035318
 104.7719118  18.4751123  27.1093407 105.6094340  18.8848132  26.8927115
 104.9497386  17.5350565  27.0793601 114.9016286  20.1743519  26.2729975
 114.3737647  19.4396279  25.9603213 114.4003788  20.9518196  26.0269944
 119.8809132  18.3692540  31.3897022 119.2232806  19.0591801  31.4777150
 120.6849531  18.7588972  31.7331008 109.6335013  10.8363186  28.6336587
 110.2078765  10.6138367  27.9009780 110.2205996  10.9051880  29.3865188
 118.6914590  16.7236912  29.4400963 119.2046472  17.3566904  29.9422673
 119.3415814  16.1238108  29.0744323 109.9604600  12.8667647  22.6532472
 109.1241913  13.2042333  22.9741747 109.8209370  12.7316626  21.7159609
 115.9536965  26.7021237  22.1961634 115.2798663  27.0052933  22.8046592
 116.3402787  27.5050317  21.8467091 115.1695421  14.1986368  31.6859304
 114.2517983  14.4201315  31.5280992 115.5855565  14.2732678  30.8271011
 115.9530469  15.5977784  26.8161984 116.7002288  16.1099181  26.5069106
 116.2222059  15.2761836  27.6766378 114.2257119  18.0936324  23.7988938
 113.3168338  17.8095357  23.8961408 114.2552203  18.5135403  22.9392245
 119.4576387  21.7042914  27.5680106 119.0038714  20.8633824  27.6245296
 118.8270353  22.3404312  27.9054886 117.9009326  23.5419411  28.5029924
 118.1932300  24.1024468  27.7842290 118.4107946  23.8347972  29.2583083
 104.7945290  15.8141838  27.7804141 104.5969689  15.2211199  27.0555207
 104.2391954  15.5094049  28.4980079 112.7742013  15.7064945  29.8998734
 112.8290623  14.7538781  29.8241210 111.9633215  15.8624384  30.3840032
 110.7134373  14.3242005  27.6589113 109.9002239  14.6236175  28.0654305
 111.2093367  13.9297693  28.3763595 112.8642951  24.3199762  29.5923377
 112.8219130  24.5460608  28.6631909 113.7805650  24.0863136  29.7409178
 116.3108585  14.7883829  36.4904006 116.6657973  15.0155302  37.3498472
 116.9580716  15.1202206  35.8681262 110.2048448  11.8960360  33.2750348
 110.8447827  11.7549119  32.5773311 109.3725978  11.6094874  32.8988950
 122.0675701  19.9778792  32.2064607 122.5012208  19.8854081  33.0547661
 122.7807282  19.9536293  31.5684623 110.9808752  21.1962791  29.3885340
 111.7749350  20.7013111  29.1867915 110.2700444  20.6680654  29.0253046
 115.8003596  23.5780886  33.7397708 115.8540619  24.1471822  34.5075424
 114.9318378  23.7482771  33.3751745 107.2891515  15.3405872  25.4645093
 106.3589103  15.2790328  25.6815055 107.3848987  14.8181825  24.6681734
 107.2077064  11.8660685  28.0523334 107.4683882  12.7806018  27.9432495
 108.0294237  11.3985128  28.2019947 108.6801990  13.2798442  35.2222159
 109.3525043  13.0715805  34.5734808 107.8531776  13.0820528  34.7827391
 122.9291251  20.0202493  34.7397492 123.1227141  20.9248303  34.9856767
 122.8291869  19.5609912  35.5736077 117.9906360  20.1709235  40.3138373
 117.8391866  19.9419787  39.3968457 117.9811039  21.1279837  40.3269718
 114.7591696  17.7441148  35.2984639 115.6883756  17.8952308  35.1253607
 114.3382726  17.8325169  34.4433286 113.5580028  21.7691813  33.0683177
 113.4191114  21.4010597  33.9409115 112.7694624  22.2839452  32.8967135
 114.1528180  26.8700909  24.4108714 114.3279935  26.3988952  25.2254336
 113.4660968  27.4966675  24.6389974 115.1085243  21.1473415  30.4572015
 114.7735076  21.1074185  31.3529665 114.6089189  20.4818131  29.9842425
 109.0829487  16.5541045  35.9824596 108.9449285  15.8221284  36.5836135
 109.9934410  16.4649945  35.7008784 111.7111788  16.2661005  35.4708276
 112.4211406  15.6254197  35.4294894 111.6681096  16.5173900  36.3934456
 119.6998566  23.2028358  38.3914855 119.6411112  22.5187578  37.7245438
 120.1018085  23.9447348  37.9395481 110.4240722  13.2526223  37.2903915
 109.8878079  12.8016961  37.9425511 109.8357430  13.3872131  36.5474380
 108.7189265  30.0190272  31.1848574 108.9585863  30.6508796  31.8627592
 107.8758462  29.6678312  31.4713933 119.7015974  21.1667942  36.6228835
 118.8142752  20.8293864  36.7455233 120.2714525  20.4350973  36.8597600
 101.3545121  17.4992034  29.9471886 102.0416161  17.1853764  29.3592901
 101.1993249  18.4033398  29.6739137 106.1579843  12.3882230  34.3756910
 106.0738032  11.7807900  33.6407320 105.3362549  12.8791249  34.3766406
 113.2317127  25.8269394  33.5890078 113.1587298  26.6324366  34.1009382
 112.7894520  26.0261360  32.7638099 113.0206907  25.0641164  27.0992899
 112.2374428  25.6062845  27.1931124 113.7199652  25.5815144  27.4987140
 124.1833314  16.5776159  31.3845396 124.1723190  17.4600875  31.0139329
 123.3150694  16.2247710  31.1899933 115.6915810  25.7256228  35.7448236
 116.4043783  26.3603693  35.6724138 115.2005839  25.8220094  34.9288238
 117.4133337  19.6307481  27.3165528 116.4789616  19.7508943  27.1470232
 117.5910006  18.7279948  27.0525538 112.9138525  13.0153177  29.4698789
 112.5436313  12.4624217  30.1579695 113.4097618  12.4111310  28.9173789
 110.7427724  23.4750672  36.5653807 111.4437184  24.1087155  36.7183201
 110.2722839  23.8165403  35.8049447 118.8682120  21.8168622  24.8501714
 119.1441964  21.7025216  25.7595588 117.9986619  21.4186106  24.8113887
 118.5429010  16.0295279  34.3906358 117.8900460  16.2771187  33.7358810
 118.9209390  15.2159417  34.0568835 115.5036184  26.0654972  28.4934528
 115.6858578  25.2476628  28.9562280 116.3269170  26.2822665  28.0559418
 115.8378349  24.9923158  25.7549576 116.3666116  24.4815612  25.1419738
 116.1006569  24.6765688  26.6195109 114.5916583  16.7715090  40.8772395
 113.9157220  16.6709220  41.5474770 115.4144217  16.6154304  41.3408392
 106.3395442  23.0087027  33.4984910 106.9248879  22.2630715  33.6312814
 106.1420281  23.3190984  34.3821574 109.1934097  26.0438274  28.5147352
 108.5244473  26.5284402  28.0311392 109.0546967  26.2907495  29.4290731
 100.9313097  15.5792627  32.2189353 100.9697196  15.0456218  33.0126471
 100.4253390  15.0527833  31.6000330 113.3339366  28.0782018  35.1130011
 113.8857674  28.2413639  35.8779096 113.6745559  28.6686456  34.4410036
 108.3103859  10.4257168  35.7151895 108.3745186  11.2871998  35.3029293
 108.2470979   9.8131169  34.9824254 107.7856132  12.4980300  39.3624930
 108.4128170  12.1157377  39.9762454 106.9284050  12.2794502  39.7280622
 118.1850240  22.9043275  40.9678665 118.7290144  23.5173234  40.4733620
 117.6037085  23.4622854  41.4845678 104.5621674  14.3056729  25.2943284
 104.8575115  13.3967408  25.2410338 103.6609710  14.2844469  24.9724287
 116.4707753  26.0263993  32.0993693 116.3458893  25.2253733  31.5904638
 117.1286844  26.5210187  31.6107663 108.0915921  12.3812726  31.2770833
 107.3702507  12.9948693  31.1378306 108.8809177  12.9170491  31.1987479
 118.5342662  23.8273013  33.7273243 117.5872997  23.7078365  33.6551570
 118.8825435  22.9395511  33.8099504 106.2909516  11.9870827  25.4182610
 105.9622222  11.1068206  25.2357716 106.6448887  11.9318496  26.3058999
 115.5389095  23.6225730  29.9277595 115.3914057  22.6942437  30.1085165
 116.3642588  23.6445820  29.4434670 109.4051339  12.2743797  25.7858087
 109.7447412  12.8029718  25.0636696 109.8523460  12.6124203  26.5616654
 119.1423217  24.4454288  31.0142468 120.0669764  24.2397150  30.8766919
 118.9738520  24.1970689  31.9231809 110.2749831  14.4349280  31.4980457
 110.1294411  14.7489584  32.3904739 109.7975034  15.0534181  30.9451356
 113.9872344  11.8589169  33.5914474 113.7290122  12.7806239  33.5898804
 113.4557385  11.4619603  34.2814938 118.9318533  24.9639956  26.3704559
 119.1055410  24.3986378  25.6178412 119.4247424  25.7640851  26.1884049
 104.7495493  16.9754625  34.4368118 104.2048961  17.7514433  34.5688392
 105.6274843  17.3225429  34.2787240 119.9193705  24.2806720  23.4701458
 120.6144610  24.9013413  23.6888772 120.2616856  23.4302071  23.7453836
 105.5361515  16.1024521  37.3298275 104.7943251  16.2507156  37.9162905
 105.2154259  16.3632787  36.4665024 113.4805177  25.6440499  37.1278665
 113.7892304  25.3989646  38.0001365 114.2780659  25.8487138  36.6397535
 113.5025789  27.7978409  29.3584042 113.0630780  27.3054788  30.0516898
 114.2533906  27.2551377  29.1176117 105.9818128  23.9889950  29.3608670
 106.8076148  23.6893722  28.9807313 105.6312180  23.2197572  29.8098458
 110.9499661  23.3416418  31.4306343 110.3279671  22.6787123  31.1308571
 111.6204528  23.3677550  30.7479991 104.1826733  21.9076276  30.3197603
 103.3458642  21.4798451  30.1381605 104.1550379  22.1008720  31.2568394
 111.0224189  11.8198206  41.0238849 111.0712344  12.6960329  40.6416619
 111.5646703  11.2775599  40.4510493 121.5079035  22.3639329  40.3039986
 120.7174578  22.3463468  39.7644486 121.2712389  22.9027623  41.0589023
 121.6276910  19.2131796  37.6172715 121.6774915  19.0481803  38.5588238
 121.5190833  18.3459055  37.2270596 110.5113168  21.8920341  24.9064804
 110.6601289  22.5755806  24.2531477 111.3179612  21.8725431  25.4214260
 118.9180672  15.1962724  38.9332022 119.8190535  15.0569189  38.6416019
 118.9928647  15.3617179  39.8730199 113.2523477  12.5729578  37.7785208
 112.3826787  12.8663145  37.5067796 113.4882958  13.1570023  38.4992472
 123.1295106  21.6328737  37.8614736 122.8379915  21.9958718  38.6978197
 122.5167238  20.9195746  37.6828069 121.3782295  16.7561352  36.3294794
 121.8536416  16.9488998  35.5213646 120.4547860  16.8120538  36.0838178
 108.2665801  17.9185519  25.9125873 108.0211843  17.0147849  26.1106083
 108.4361716  17.9202669  24.9705351 107.5361449  13.6513877  23.4112034
 106.8430694  13.7258232  22.7552070 107.2913201  12.8874220  23.9333551
 114.0108574  24.3868472  22.3776551 113.4382541  25.0058659  21.9247023
 114.5841368  24.9367834  22.9116473 117.2305834  24.6705622  23.5085134
 118.1636507  24.6051184  23.7118009 117.1429046  25.5061889  23.0499666
 122.5572041  16.8533232  33.6765400 122.5248362  15.9149232  33.8625084
 123.1672665  16.9317268  32.9431225 126.4563888  16.0557101  33.4145888
 125.7297052  15.9213066  32.8062379 126.0411175  16.3633930  34.2202606
 114.2794065  19.7747031  41.1793261 115.1997074  19.9525630  41.3733307
 114.2443648  18.8303076  41.0272960 103.4976230  14.9685624  30.1046535
 103.1779014  14.1150933  29.8120909 102.9509658  15.1834203  30.8604503
 107.2756137  17.6848065  33.8216042 107.4942147  18.6165173  33.8404076
 107.6881911  17.3256040  34.6070846 112.1484003  13.2581271  43.2118791
 112.0480730  14.2075628  43.1430882 111.9305545  12.9299510  42.3394861
 103.3664490  18.5888536  32.0739657 102.6727961  18.1742489  31.5609611
 104.1137481  18.6309072  31.4773076 112.0115273  16.6878410  42.0283852
 111.5282354  17.4878770  42.2347741 112.0976212  16.6986355  41.0751296
 105.2801232  18.5206790  29.9505672 105.2571921  18.6194477  28.9987555
 105.5901869  19.3671940  30.2722838 107.9388610  20.5782945  34.0652286
 108.8931864  20.5466887  33.9982218 107.7401134  20.1173568  34.8802512
 108.5287992  19.1484061  36.6323084 109.3480881  19.6428139  36.6557921
 108.8024800  18.2316029  36.6040651 106.2938839  26.1202564  31.0822484
 106.1593307  25.3602965  30.5160482 105.8770901  26.8443464  30.6151273
 109.4507965  27.0171881  31.2940927 109.3340349  27.9617314  31.1919617
 108.6300411  26.7145443  31.6826726 103.7822907  13.4822195  37.3315281
 104.4281770  12.9721149  37.8202506 103.5740058  14.2190876  37.9058706
 116.3076299  20.5503042  42.8307422 117.1767458  20.7243694  42.4694056
 115.8283050  21.3697459  42.7083151 110.4762479  27.6700143  34.5096855
 111.3789726  27.7023753  34.8263350 110.2499849  26.7400594  34.5243191
 112.2316081  26.4231130  31.1706934 111.2811712  26.4232991  31.0571306
 112.5348567  25.6763864  30.6542968 108.1220398  10.6289812  41.4290295
 108.9851859  10.2726617  41.6393620 107.5485808  10.2903707  42.1165699
 127.9668775  32.2591668  32.2352696 128.6047185  32.1398415  31.5316036
 127.8489617  33.2072512  32.2940648 124.7758481  32.2119096  32.1714221
 124.4376992  32.0960161  31.2834756 125.6448249  31.8110261  32.1515227
 120.6345297  34.0654573  28.1611112 120.0710162  33.9744510  27.3927400
 120.5197692  33.2454477  28.6413604 125.2578264  33.3653948  38.1300426
 125.2466905  32.9706746  37.2580930 125.4198903  32.6320020  38.7234198
 118.1809728  35.5605764  30.9995332 118.9731020  35.2196589  30.5841632
 118.4206379  35.6700739  31.9197486 126.2144855  37.7325540  23.4725577
 125.5632835  38.3179621  23.0859591 127.0089218  38.2631735  23.5320614
 120.1400482  34.8214677  23.8712711 120.9131358  34.2743664  23.7325587
 120.4925881  35.6858927  24.0827172 121.9785525  36.1491060  37.0779610
 121.6875391  37.0536691  36.9626277 122.6142509  36.1907587  37.7923680
 122.9041732  33.5267908  33.6680970 123.5005304  33.3023931  32.9537933
 122.9616703  32.7852654  34.2706418 127.5210043  29.9843122  29.3105904
 128.3073132  29.5662545  28.9596321 127.7848747  30.8889214  29.4787553
 127.6920120  35.4215972  24.0094561 127.0565953  35.4950599  24.7215466
 127.3617527  36.0109571  23.3313640 122.1963049  32.8835449  23.7055536
 122.0799307  32.2080353  24.3736620 122.3065309  32.3967823  22.8887689
 124.5394590  32.3445597  27.4102225 124.1752797  31.8176218  28.1215147
 125.3961706  31.9544066  27.2368711 130.4443891  23.6339929  34.6733491
 130.1127215  24.5035340  34.4494706 129.8489504  23.3176213  35.3527522
 126.9375410  35.8352475  34.0729404 126.6376133  36.7377514  33.9645211
 126.5926470  35.5684658  34.9250557 120.3887892  32.2866272  30.1066109
 119.4638388  32.1542486  30.3143800 120.6372305  33.0660491  30.6036051
 130.3372554  28.3535015  31.7526841 129.4289431  28.2850424  31.4585602
 130.2860150  28.8306960  32.5808667 124.1589298  29.8293154  23.3910241
 124.0388923  30.2750205  24.2295721 123.4641886  30.1778471  22.8323779
 117.7496703  31.9299546  30.9409898 117.8789084  32.1834025  31.8549309
 117.0694154  32.5227254  30.6214553 121.9196190  42.5996796  27.0400372
 121.8420220  43.5504621  27.1188852 121.3157833  42.2542668  27.6975298
 124.4113420  29.7724661  39.6961739 123.6346754  30.3318581  39.6864603
 125.0503983  30.2581444  40.2176609 132.2034200  26.5551454  33.5304715
 131.5608581  26.8483987  32.8844510 131.6989129  26.4404374  34.3357912
 122.6659792  32.5810114  39.2579706 123.4074476  33.1195158  38.9814529
 121.9596777  33.2076403  39.4151257 128.1415132  34.7239255  37.8551867
 128.5498488  34.2821665  37.1106500 127.4192393  34.1491882  38.1086060
 124.4946202  29.6611862  35.2285424 125.3407397  30.0851275  35.3720073
 124.4344839  29.0045486  35.9223987 128.4643946  35.2840445  31.6104156
 127.8352809  35.4486160  30.9080224 128.0769608  35.6982055  32.3815120
 132.3433178  36.2194883  28.9648520 131.6584216  36.5993785  28.4145553
 132.4277027  36.8290210  29.6980468 127.6445647  27.3216230  36.8866598
 127.4006579  28.0758290  36.3500873 127.9205577  27.7001578  37.7213845
 129.5984110  33.8654842  35.5643863 129.8101005  34.5086602  34.8878244
 129.5513858  33.0317159  35.0965793 127.2010339  26.4772663  32.4680435
 126.3394818  26.7753917  32.7597173 127.2272773  26.6943062  31.5361468
 124.0171908  35.0214854  28.8754241 124.4810254  35.3002556  28.0858864
 123.7528706  34.1198298  28.6927332 120.9095989  34.5686335  31.8134004
 121.4797346  34.9973603  31.1751489 121.5004101  34.2868920  32.5118190
 122.9540794  31.1438006  25.6843806 123.6564838  31.5959050  26.1517733
 122.6221423  30.5021825  26.3123699 121.4021156  29.7349763  40.0595016
 120.7719816  30.4166043  40.2930412 121.2957244  29.6232844  39.1148154
 116.6966128  29.4021559  30.9860940 115.9065182  29.6579087  30.5101050
 117.1877375  30.2169896  31.0912980 130.7129938  36.7426798  33.7366221
 131.5347381  36.3406985  33.4548902 130.7092341  36.6395032  34.6882336
 118.6480874  29.7666138  27.9444417 117.8512037  29.8784832  28.4627912
 118.4206466  30.1052790  27.0785307 124.4786541  36.2910841  35.8926931
 124.5430974  36.7531248  36.7285103 123.7697465  35.6608206  36.0209241
 114.9803831  29.6552049  33.4175931 115.2311870  30.5399059  33.6833507
 115.5163380  29.4756651  32.6451022 124.1934559  37.9578948  25.7605911
 124.0580234  38.8030484  26.1890759 124.7344371  38.1598226  24.9971845
 120.6801898  24.0370528  42.4220267 120.2868844  23.4836727  43.0967911
 121.4968039  24.3481107  42.8126784 117.6463956  35.4754387  26.3333837
 118.1588477  36.2697637  26.4839401 118.2986669  34.7780677  26.2667438
 119.4558841  38.5920143  28.4156590 119.6325469  39.5138108  28.2277574
 120.2515674  38.2778562  28.8450970 123.5969859  25.4528407  40.0140523
 124.3379573  26.0535561  39.9344986 123.8287782  24.7106045  39.4558566
 118.7411197  30.6384775  38.2918753 118.6264713  29.7370032  38.5925852
 117.8855715  30.8848471  37.9403570 125.8203035  38.5802515  39.8906254
 125.3766889  37.7938894  39.5727158 126.4820249  38.7681666  39.2250144
 120.5790156  40.1098317  34.4166932 121.1297581  39.9815380  33.6443926
 119.7401632  40.4093206  34.0661825 127.9184273  38.8605315  37.9187655
 127.9002749  39.6814196  37.4267924 128.8404193  38.7359390  38.1437796
 124.3757327  36.3749444  38.7611163 124.9085664  35.6137733  38.5310471
 123.8471408  36.0823096  39.5035318 127.5427022  21.4809510  34.2904805
 127.1991292  22.3711152  34.2143916 127.9105985  21.2911168  33.4274390
 115.6112873  33.8043041  27.1093407 116.4488095  34.2140049  26.8927115
 115.7891141  32.8642483  27.0793601 125.0924416  26.3167822  27.8562478
 124.2366012  25.9274673  27.6768117 125.5051368  26.3959783  26.9962264
 126.6223563  23.8514166  32.2554038 126.1188358  23.8144301  31.4421844
 126.9154170  24.7606908  32.3150695 122.8666449  23.9352895  31.2620220
 123.7319445  23.7395704  30.9026109 122.9343958  23.7063247  32.1889577
 125.7410040  35.5035437  26.2729975 125.2131402  34.7688196  25.9603213
 125.2397543  36.2810113  26.0269944 130.7202886  33.6984457  31.3897022
 130.0626561  34.3883719  31.4777150 131.5243285  34.0880889  31.7331008
 120.4728768  26.1655103  28.6336587 121.0472520  25.9430285  27.9009780
 121.0599750  26.2343798  29.3865188 129.5308345  32.0528830  29.4400963
 130.0440227  32.6858822  29.9422673 130.1809569  31.4530026  29.0744323
 120.7998355  28.1959564  22.6532472 119.9635667  28.5334251  22.9741747
 120.6603124  28.0608544  21.7159609 122.7751435  23.0396352  27.3611656
 122.1215848  22.7245369  26.7368271 122.7331910  22.4172093  28.0871479
 126.7930719  42.0313154  22.1961634 126.1192418  42.3344851  22.8046592
 127.1796541  42.8342235  21.8467091 126.0089176  29.5278286  31.6859304
 125.0911737  29.7493233  31.5280992 126.4249319  29.6024596  30.8271011
 126.7924224  30.9269701  26.8161984 127.5396042  31.4391099  26.5069106
 127.0615813  30.6053754  27.6766378 125.0650874  33.4228242  23.7988938
 124.1562093  33.1387275  23.8961408 125.0945958  33.8427321  22.9392245
 130.2970141  37.0334832  27.5680106 129.8432468  36.1925741  27.6245296
 129.6664108  37.6696230  27.9054886 128.7403080  38.8711328  28.5029924
 129.0326055  39.4316385  27.7842290 129.2501701  39.1639889  29.2583083
 115.6339044  31.1433756  27.7804141 115.4363444  30.5503117  27.0555207
 115.0785708  30.8385966  28.4980079 123.6135768  31.0356863  29.8998734
 123.6684378  30.0830699  29.8241210 122.8026970  31.1916302  30.3840032
 121.5528128  29.6533922  27.6589113 120.7395993  29.9528093  28.0654305
 122.0487122  29.2589611  28.3763595 123.7036706  39.6491679  29.5923377
 123.6612884  39.8752526  28.6631909 124.6199404  39.4155054  29.7409178
 127.1502339  30.1175747  36.4904006 127.5051727  30.3447220  37.3498472
 127.7974471  30.4494124  35.8681262 121.0442202  27.2252278  33.2750348
 121.6841582  27.0841037  32.5773311 120.2119733  26.9386791  32.8988950
 132.9069456  35.3070710  32.2064607 133.3405963  35.2145999  33.0547661
 133.6201037  35.2828210  31.5684623 121.8202506  36.5254708  29.3885340
 122.6143105  36.0305028  29.1867915 121.1094199  35.9972571  29.0253046
 126.6397351  38.9072804  33.7397708 126.6934373  39.4763740  34.5075424
 125.7712132  39.0774689  33.3751745 118.1285270  30.6697790  25.4645093
 117.1982858  30.6082246  25.6815055 118.2242742  30.1473743  24.6681734
 118.0470819  27.1952603  28.0523334 118.3077636  28.1097936  27.9432495
 118.8687991  26.7277045  28.2019947 119.5195744  28.6090360  35.2222159
 120.1918798  28.4007722  34.5734808 118.6925531  28.4112446  34.7827391
 133.7685005  35.3494410  34.7397492 133.9620896  36.2540221  34.9856767
 133.6685624  34.8901829  35.5736077 125.4221316  25.2352301  37.2387820
 124.7749231  25.9342251  37.1452296 126.1922332  25.6688445  37.6064068
 128.8300114  35.5001153  40.3138373 128.6785621  35.2711705  39.3968457
 128.8204794  36.4571755  40.3269718 125.5985451  33.0733066  35.2984639
 126.5277511  33.2244226  35.1253607 125.1776481  33.1617087  34.4433286
 124.3973782  37.0983730  33.0683177 124.2584868  36.7302515  33.9409115
 123.6088379  37.6131370  32.8967135 124.9921934  42.1992827  24.4108714
 125.1673690  41.7280870  25.2254336 124.3054722  42.8258593  24.6389974
 125.9478997  36.4765333  30.4572015 125.6128830  36.4366103  31.3529665
 125.4482943  35.8110049  29.9842425 119.9223241  31.8832963  35.9824596
 119.7843039  31.1513202  36.5836135 120.8328165  31.7941863  35.7008784
 122.5505542  31.5952922  35.4708276 123.2605161  30.9546115  35.4294894
 122.5074850  31.8465817  36.3934456 130.5392321  38.5320276  38.3914855
 130.4804867  37.8479496  37.7245438 130.9411839  39.2739266  37.9395481
 121.2634476  28.5818140  37.2903915 120.7271833  28.1308879  37.9425511
 120.6751185  28.7164049  36.5474380 119.5583020  45.3482190  31.1848574
 119.7979618  45.9800714  31.8627592 118.7152216  44.9970230  31.4713933
 130.5409728  36.4959860  36.6228835 129.6536507  36.1585781  36.7455233
 131.1108279  35.7642891  36.8597600 112.1938875  32.8283951  29.9471886
 112.8809915  32.5145681  29.3592901 112.0387004  33.7325316  29.6739137
 116.9973597  27.7174148  34.3756910 116.9131786  27.1099817  33.6407320
 116.1756304  28.2083166  34.3766406 124.0710881  41.1561312  33.5890078
 123.9981053  41.9616283  34.1009382 123.6288275  41.3553278  32.7638099
 123.8600661  40.3933082  27.0992899 123.0768183  40.9354762  27.1931124
 124.5593406  40.9107062  27.4987140 127.1697311  26.2027711  29.7427105
 127.6666011  25.4497674  29.4228175 126.3984293  26.2392028  29.1770314
 135.0227069  31.9068077  31.3845396 135.0116945  32.7892792  31.0139329
 134.1544448  31.5539628  31.1899933 126.5309565  41.0548146  35.7448236
 127.2437537  41.6895611  35.6724138 126.0399594  41.1512012  34.9288238
 128.2527092  34.9599399  27.3165528 127.3183371  35.0800861  27.1470232
 128.4303760  34.0571865  27.0525538 123.7532280  28.3445094  29.4698789
 123.3830067  27.7916135  30.1579695 124.2491372  27.7403228  28.9173789
 121.5821479  38.8042589  36.5653807 122.2830938  39.4379072  36.7183201
 121.1116593  39.1457321  35.8049447 129.7075874  37.1460539  24.8501714
 129.9835718  37.0317134  25.7595588 128.8380373  36.7478024  24.8113887
 129.6116306  23.1697305  31.8906464 128.6979386  23.4001532  32.0588671
 130.0409407  23.2535749  32.7420496 129.3822764  31.3587197  34.3906358
 128.7294215  31.6063104  33.7358810 129.7603144  30.5451335  34.0568835
 126.3429938  41.3946890  28.4934528 126.5252333  40.5768546  28.9562280
 127.1662924  41.6114582  28.0559418 126.6772104  40.3215075  25.7549576
 127.2059870  39.8107530  25.1419738 126.9400323  40.0057605  26.6195109
 125.4310337  32.1007008  40.8772395 124.7550975  32.0001137  41.5474770
 126.2537971  31.9446222  41.3408392 117.1789197  38.3378945  33.4984910
 117.7642633  37.5922632  33.6312814 116.9814035  38.6482901  34.3821574
 120.0327852  41.3730192  28.5147352 119.3638227  41.8576320  28.0311392
 119.8940721  41.6199412  29.4290731 111.7706851  30.9084545  32.2189353
 111.8090951  30.3748135  33.0126471 111.2647144  30.3819750  31.6000330
 124.1733120  43.4073935  35.1130011 124.7251428  43.5705557  35.8779096
 124.5139314  43.9978373  34.4410036 119.1497614  25.7549085  35.7151895
 119.2138940  26.6163916  35.3029293 119.0864734  25.1423087  34.9824254
 118.6249886  27.8272218  39.3624930 119.2521925  27.4449295  39.9762454
 117.7677805  27.6086420  39.7280622 129.0243995  38.2335193  40.9678665
 129.5683899  38.8465151  40.4733620 128.4430840  38.7914771  41.4845678
 115.4015429  29.6348647  25.2943284 115.6968870  28.7259325  25.2410338
 114.5003465  29.6136386  24.9724287 127.3101508  41.3555911  32.0993693
 127.1852647  40.5545651  31.5904638 127.9680599  41.8502104  31.6107663
 118.9309676  27.7104643  31.2770833 118.2096262  28.3240611  31.1378306
 119.7202932  28.2462408  31.1987479 129.3736416  39.1564931  33.7273243
 128.4266752  39.0370282  33.6551570 129.7219189  38.2687429  33.8099504
 121.7335989  25.0459070  37.5511485 122.2570391  25.2921367  38.3137794
 121.5148323  25.8779105  37.1314622 117.1303270  27.3162745  25.4182610
 116.8015977  26.4360123  25.2357716 117.4842641  27.2610413  26.3058999
 126.3782849  38.9517647  29.9277595 126.2307812  38.0234355  30.1085165
 127.2036343  38.9737738  29.4434670 120.2445094  27.6035714  25.7858087
 120.5841166  28.1321636  25.0636696 120.6917214  27.9416120  26.5616654
 129.9816971  39.7746206  31.0142468 130.9063519  39.5689067  30.8766919
 129.8132275  39.5262607  31.9231809 122.9388534  25.9872765  35.2361155
 122.5985355  25.1880578  35.6381835 122.2327541  26.2874476  34.6637989
 123.5905006  23.0722077  33.6888478 124.4131076  22.5982556  33.5667369
 123.8343070  23.8512561  34.1887165 121.1143585  29.7641198  31.4980457
 120.9688166  30.0781501  32.3904739 120.6368789  30.3826098  30.9451356
 122.9739968  26.7543746  31.5461347 122.9601537  25.8584839  31.2093644
 123.6912396  26.7614410  32.1799633 124.8266099  27.1881086  33.5914474
 124.5683876  28.1098157  33.5898804 124.2951139  26.7911521  34.2814938
 129.7712287  40.2931873  26.3704559 129.9449165  39.7278296  25.6178412
 130.2641179  41.0932768  26.1884049 115.5889247  32.3046543  34.4368118
 115.0442715  33.0806350  34.5688392 116.4668597  32.6517347  34.2787240
 122.3776864  25.6358126  26.8148917 122.4992775  24.7074773  27.0139804
 122.0878906  25.6496812  25.9027232 125.2468054  23.3213037  29.9515637
 125.2689751  23.3852370  28.9967616 125.6636113  22.4817545  30.1456143
 130.7587460  39.6098638  23.4701458 131.4538364  40.2305331  23.6888772
 131.1010610  38.7593989  23.7453836 116.3755269  31.4316439  37.3298275
 115.6337005  31.5799074  37.9162905 116.0548013  31.6924704  36.4665024
 124.3198932  40.9732417  37.1278665 124.6286058  40.7281564  38.0001365
 125.1174414  41.1779055  36.6397535 124.3419544  43.1270327  29.3584042
 123.9024534  42.6346705  30.0516898 125.0927661  42.5843294  29.1176117
 116.8211883  39.3181868  29.3608670 117.6469903  39.0185639  28.9807313
 116.4705935  38.5489490  29.8098458 121.7893416  38.6708336  31.4306343
 121.1673425  38.0079041  31.1308571 122.4598283  38.6969468  30.7479991
 115.0220488  37.2368194  30.3197603 114.1852396  36.8090368  30.1381605
 114.9944133  37.4300637  31.2568394 121.8617943  27.1490124  41.0238849
 121.9106099  28.0252247  40.6416619 122.4040458  26.6067517  40.4510493
 132.3472789  37.6931247  40.3039986 131.5568333  37.6755386  39.7644486
 132.1106144  38.2319541  41.0589023 132.4670664  34.5423713  37.6172715
 132.5168669  34.3773721  38.5588238 132.3584587  33.6750972  37.2270596
 121.3506923  37.2212259  24.9064804 121.4995043  37.9047723  24.2531477
 122.1573366  37.2017349  25.4214260 129.7574427  30.5254641  38.9332022
 130.6584289  30.3861106  38.6416019 129.8322401  30.6909096  39.8730199
 124.0917232  27.9021496  37.7785208 123.2220541  28.1955062  37.5067796
 124.3276712  28.4861941  38.4992472 133.9688861  36.9620655  37.8614736
 133.6773669  37.3250635  38.6978197 133.3560992  36.2487663  37.6828069
 132.2176049  32.0853270  36.3294794 132.6930171  32.2780916  35.5213646
 131.2941615  32.1412455  36.0838178 119.1059556  33.2477437  25.9125873
 118.8605598  32.3439767  26.1106083 119.2755470  33.2494587  24.9705351
 126.7956266  24.1201113  35.2950628 127.3138210  24.8562140  34.9697117
 126.4411398  24.4265106  36.1297387 118.3755203  28.9805794  23.4112034
 117.6824448  29.0550149  22.7552070 118.1306955  28.2166138  23.9333551
 124.8502328  39.7160390  22.3776551 124.2776295  40.3350577  21.9247023
 125.4235122  40.2659751  22.9116473 130.9177718  28.9619030  34.5623100
 131.8695141  29.0617127  34.5835324 130.7481169  28.1697298  35.0721184
 128.9392098  26.0474613  34.7482501 128.3442030  26.3279626  34.0528990
 128.6541794  26.5368514  35.5199242 128.0699588  39.9997540  23.5085134
 129.0030261  39.9343101  23.7118009 127.9822801  40.8353807  23.0499666
 133.3965796  32.1825149  33.6765400 133.3642116  31.2441150  33.8625084
 134.0066420  32.2609186  32.9431225 133.5460284  28.9736193  33.7223683
 133.0299333  28.1894649  33.5353612 134.4300233  28.6454909  33.8870202
 137.2957643  31.3849019  33.4145888 136.5690807  31.2504984  32.8062379
 136.8804930  31.6925847  34.2202606 125.1187819  35.1038948  41.1793261
 126.0390829  35.2817547  41.3733307 125.0837402  34.1594994  41.0272960
 114.3369984  30.2977542  30.1046535 114.0172769  29.4442850  29.8120909
 113.7903413  30.5126120  30.8604503 118.1149892  33.0139983  33.8216042
 118.3335902  33.9457091  33.8404076 118.5275666  32.6547957  34.6070846
 122.9877757  28.5873189  43.2118791 122.8874484  29.5367546  43.1430882
 122.7699299  28.2591428  42.3394861 114.2058244  33.9180454  32.0739657
 113.5121716  33.5034406  31.5609611 114.9531235  33.9600990  31.4773076
 122.8509027  32.0170328  42.0283852 122.3676109  32.8170688  42.2347741
 122.9369966  32.0278273  41.0751296 116.1194987  33.8498707  29.9505672
 116.0965675  33.9486395  28.9987555 116.4295623  34.6963858  30.2722838
 118.7782365  35.9074862  34.0652286 119.7325618  35.8758805  33.9982218
 118.5794888  35.4465486  34.8802512 119.3681747  34.4775978  36.6323084
 120.1874636  34.9720057  36.6557921 119.6418555  33.5607947  36.6040651
 117.1332594  41.4494482  31.0822484 116.9987061  40.6894883  30.5160482
 116.7164656  42.1735382  30.6151273 120.2901719  42.3463799  31.2940927
 120.1734104  43.2909231  31.1919617 119.4694166  42.0437360  31.6826726
 114.6216661  28.8114112  37.3315281 115.2675525  28.3013066  37.8202506
 114.4133812  29.5482794  37.9058706 127.1470053  35.8794960  42.8307422
 128.0161213  36.0535612  42.4694056 126.6676805  36.6989377  42.7083151
 121.3156234  42.9992061  34.5096855 122.2183480  43.0315671  34.8263350
 121.0893604  42.0692512  34.5243191 123.0709836  41.7523047  31.1706934
 122.1205467  41.7524909  31.0571306 123.3742322  41.0055782  30.6542968
 118.9614152  25.9581729  41.4290295 119.8245614  25.6018534  41.6393620
 118.3879563  25.6195624  42.1165699 138.8062529  47.5883586  32.2352696
 139.4440939  47.4690333  31.5316036 138.6883372  48.5364430  32.2940648
 135.6152235  47.5411014  32.1714221 135.2770747  47.4252079  31.2834756
 136.4842004  47.1402179  32.1515227 131.4739051  49.3946490  28.1611112
 130.9103916  49.3036427  27.3927400 131.3591446  48.5746395  28.6413604
 136.0972018  48.6945866  38.1300426 136.0860659  48.2998664  37.2580930
 136.2592658  47.9611938  38.7234198 129.0203483  50.8897682  30.9995332
 129.8124775  50.5488506  30.5841632 129.2600133  50.9992657  31.9197486
 137.0538610  53.0617458  23.4725577 136.4026590  53.6471538  23.0859591
 137.8482973  53.5923653  23.5320614 130.9794237  50.1506595  23.8712711
 131.7525113  49.6035582  23.7325587 131.3319636  51.0150844  24.0827172
 132.8179279  51.4782977  37.0779610 132.5269145  52.3828608  36.9626277
 133.4536264  51.5199505  37.7923680 133.7435486  48.8559826  33.6680970
 134.3399059  48.6315848  32.9537933 133.8010458  48.1144571  34.2706418
 138.3603798  45.3135040  29.3105904 139.1466887  44.8954463  28.9596321
 138.6242502  46.2181132  29.4787553 138.5313875  50.7507890  24.0094561
 137.8959708  50.8242516  24.7215466 138.2011281  51.3401489  23.3313640
 133.0356803  48.2127367  23.7055536 132.9193062  47.5372271  24.3736620
 133.1459063  47.7259741  22.8887689 135.3788344  47.6737514  27.4102225
 135.0146552  47.1468135  28.1215147 136.2355460  47.2835983  27.2368711
 137.7769165  51.1644393  34.0729404 137.4769888  52.0669432  33.9645211
 137.4320224  50.8976576  34.9250557 131.2281646  47.6158190  30.1066109
 130.3032143  47.4834404  30.3143800 131.4766059  48.3952409  30.6036051
 141.1766308  43.6826933  31.7526841 140.2683186  43.6142341  31.4585602
 141.1253904  44.1598878  32.5808667 134.9983052  45.1585071  23.3910241
 134.8782677  45.6042122  24.2295721 134.3035641  45.5070389  22.8323779
 128.5890457  47.2591463  30.9409898 128.7182838  47.5125942  31.8549309
 127.9087908  47.8519171  30.6214553 132.7589944  57.9288713  27.0400372
 132.6813974  58.8796538  27.1188852 132.1551588  57.5834586  27.6975298
 135.2507174  45.1016579  39.6961739 134.4740508  45.6610499  39.6864603
 135.8897737  45.5873362  40.2176609 133.5053546  47.9102032  39.2579706
 134.2468231  48.4487076  38.9814529 132.7990532  48.5368321  39.4151257
 138.9808886  50.0531172  37.8551867 139.3892242  49.6113583  37.1106500
 138.2586148  49.4783800  38.1086060 135.3339956  44.9903779  35.2285424
 136.1801151  45.4143193  35.3720073 135.2738594  44.3337404  35.9223987
 139.3037701  50.6132363  31.6104156 138.6746563  50.7778077  30.9080224
 138.9163363  51.0273973  32.3815120 138.4839401  42.6508148  36.8866598
 138.2400333  43.4050208  36.3500873 138.7599332  43.0293495  37.7213845
 140.4377864  49.1946760  35.5643863 140.6494759  49.8378520  34.8878244
 140.3907612  48.3609077  35.0965793 138.0404093  41.8064581  32.4680435
 137.1788572  42.1045834  32.7597173 138.0666528  42.0234980  31.5361468
 134.8565663  50.3506771  28.8754241 135.3204008  50.6294474  28.0858864
 134.5922461  49.4490216  28.6927332 131.7489744  49.8978253  31.8134004
 132.3191101  50.3265521  31.1751489 132.3397856  49.6160837  32.5118190
 133.7934549  46.4729924  25.6843806 134.4958592  46.9250967  26.1517733
 133.4615177  45.8313742  26.3123699 132.2414910  45.0641680  40.0595016
 131.6113571  45.7457961  40.2930412 132.1350998  44.9524762  39.1148154
 127.5359883  44.7313476  30.9860940 126.7458937  44.9871005  30.5101050
 128.0271130  45.5461814  31.0912980 129.4874628  45.0958055  27.9444417
 128.6905791  45.2076750  28.4627912 129.2600220  45.4344708  27.0785307
 135.3180296  51.6202759  35.8926931 135.3824728  52.0823166  36.7285103
 134.6091219  50.9900124  36.0209241 125.8197586  44.9843967  33.4175931
 126.0705624  45.8690977  33.6833507 126.3557134  44.8048568  32.6451022
 135.0328313  53.2870866  25.7605911 134.8973988  54.1322402  26.1890759
 135.5738126  53.4890144  24.9971845 131.5195653  39.3662446  42.4220267
 131.1262598  38.8128645  43.0967911 132.3361793  39.6773024  42.8126784
 128.4857711  50.8046304  26.3333837 128.9982231  51.5989554  26.4839401
 129.1380423  50.1072595  26.2667438 130.2952595  53.9212060  28.4156590
 130.4719224  54.8430025  28.2277574 131.0909429  53.6070480  28.8450970
 134.4363614  40.7820325  40.0140523 135.1773327  41.3827478  39.9344986
 134.6681537  40.0397963  39.4558566 129.5804952  45.9676692  38.2918753
 129.4658467  45.0661950  38.5925852 128.7249470  46.2140389  37.9403570
 136.6596790  53.9094433  39.8906254 136.2160644  53.1230811  39.5727158
 137.3214003  54.0973583  39.2250144 131.4183911  55.4390234  34.4166932
 131.9691336  55.3107298  33.6443926 130.5795387  55.7385123  34.0661825
 138.7578028  54.1897233  37.9187655 138.7396503  55.0106114  37.4267924
 139.6797948  54.0651308  38.1437796 135.2151082  51.7041362  38.7611163
 135.7479419  50.9429650  38.5310471 134.6865163  51.4115014  39.5035318
 138.3820777  36.8101428  34.2904805 138.0385046  37.7003070  34.2143916
 138.7499739  36.6203086  33.4274390 126.4506627  49.1334959  27.1093407
 127.2881849  49.5431967  26.8927115 126.6284895  48.1934401  27.0793601
 135.9318171  41.6459740  27.8562478 135.0759767  41.2566590  27.6768117
 136.3445122  41.7251701  26.9962264 137.4617317  39.1806083  32.2554038
 136.9582113  39.1436218  31.4421844 137.7547924  40.0898826  32.3150695
 133.7060203  39.2644813  31.2620220 134.5713200  39.0687622  30.9026109
 133.7737712  39.0355165  32.1889577 136.5803795  50.8327355  26.2729975
 136.0525156  50.0980114  25.9603213 136.0791297  51.6102031  26.0269944
 131.3122522  41.4947021  28.6336587 131.8866274  41.2722202  27.9009780
 131.8993505  41.5635715  29.3865188 140.3702099  47.3820748  29.4400963
 140.8833981  48.0150740  29.9422673 141.0203323  46.7821943  29.0744323
 131.6392109  43.5251482  22.6532472 130.8029422  43.8626168  22.9741747
 131.4996879  43.3900462  21.7159609 133.6145190  38.3688270  27.3611656
 132.9609602  38.0537287  26.7368271 133.5725664  37.7464010  28.0871479
 137.6324474  57.3605072  22.1961634 136.9586172  57.6636769  22.8046592
 138.0190296  58.1634152  21.8467091 136.8482930  44.8570203  31.6859304
 135.9305492  45.0785150  31.5280992 137.2643074  44.9316514  30.8271011
 137.6317978  46.2561619  26.8161984 138.3789797  46.7683016  26.5069106
 137.9009568  45.9345672  27.6766378 135.9044628  48.7520160  23.7988938
 134.9955847  48.4679193  23.8961408 135.9339712  49.1719238  22.9392245
 141.1363896  52.3626749  27.5680106 140.6826223  51.5217659  27.6245296
 140.5057862  52.9988148  27.9054886 139.5796835  54.2003246  28.5029924
 139.8719809  54.7608303  27.7842290 140.0895455  54.4931807  29.2583083
 126.4732799  46.4725674  27.7804141 126.2757198  45.8795035  27.0555207
 125.9179463  46.1677884  28.4980079 134.4529522  46.3648780  29.8998734
 134.5078132  45.4122617  29.8241210 133.6420724  46.5208219  30.3840032
 132.3921882  44.9825840  27.6589113 131.5789748  45.2820011  28.0654305
 132.8880876  44.5881529  28.3763595 134.5430460  54.9783597  29.5923377
 134.5006639  55.2044443  28.6631909 135.4593159  54.7446972  29.7409178
 137.9896094  45.4467665  36.4904006 138.3445482  45.6739138  37.3498472
 138.6368225  45.7786041  35.8681262 131.8835957  42.5544196  33.2750348
 132.5235336  42.4132955  32.5773311 131.0513487  42.2678709  32.8988950
 132.6596261  51.8546626  29.3885340 133.4536859  51.3596946  29.1867915
 131.9487953  51.3264489  29.0253046 137.4791105  54.2364722  33.7397708
 137.5328128  54.8055658  34.5075424 136.6105887  54.4066607  33.3751745
 128.9679024  45.9989708  25.4645093 128.0376612  45.9374163  25.6815055
 129.0636496  45.4765660  24.6681734 128.8864573  42.5244521  28.0523334
 129.1471391  43.4389854  27.9432495 129.7081746  42.0568963  28.2019947
 130.3589499  43.9382278  35.2222159 131.0312552  43.7299640  34.5734808
 129.5319285  43.7404364  34.7827391 136.2615071  40.5644219  37.2387820
 135.6142986  41.2634168  37.1452296 137.0316086  40.9980363  37.6064068
 139.6693869  50.8293071  40.3138373 139.5179375  50.6003623  39.3968457
 139.6598548  51.7863672  40.3269718 136.4379205  48.4024984  35.2984639
 137.3671265  48.5536143  35.1253607 136.0170235  48.4909004  34.4433286
 135.2367537  52.4275648  33.0683177 135.0978623  52.0594432  33.9409115
 134.4482133  52.9423287  32.8967135 135.8315689  57.5284744  24.4108714
 136.0067444  57.0572788  25.2254336 135.1448477  58.1550511  24.6389974
 136.7872752  51.8057251  30.4572015 136.4522585  51.7658021  31.3529665
 136.2876698  51.1401967  29.9842425 130.7616996  47.2124881  35.9824596
 130.6236794  46.4805120  36.5836135 131.6721919  47.1233781  35.7008784
 133.3899297  46.9244840  35.4708276 134.0998915  46.2838032  35.4294894
 133.3468605  47.1757735  36.3934456 132.1028231  43.9110058  37.2903915
 131.5665588  43.4600796  37.9425511 131.5144939  44.0455967  36.5474380
 130.3976774  60.6774107  31.1848574 130.6373372  61.3092631  31.8627592
 129.5545971  60.3262147  31.4713933 123.0332630  48.1575869  29.9471886
 123.7203669  47.8437599  29.3592901 122.8780758  49.0617234  29.6739137
 127.8367352  43.0466066  34.3756910 127.7525541  42.4391735  33.6407320
 127.0150058  43.5375084  34.3766406 134.9104636  56.4853230  33.5890078
 134.8374807  57.2908201  34.1009382 134.4682029  56.6845195  32.7638099
 134.6994416  55.7225000  27.0992899 133.9161937  56.2646680  27.1931124
 135.3987161  56.2398979  27.4987140 138.0091066  41.5319629  29.7427105
 138.5059765  40.7789591  29.4228175 137.2378047  41.5683946  29.1770314
 137.3703319  56.3840064  35.7448236 138.0831292  57.0187529  35.6724138
 136.8793348  56.4803930  34.9288238 139.0920846  50.2891316  27.3165528
 138.1577125  50.4092779  27.1470232 139.2697515  49.3863783  27.0525538
 134.5926034  43.6737012  29.4698789 134.2223822  43.1208053  30.1579695
 135.0885127  43.0695146  28.9173789 132.4215233  54.1334507  36.5653807
 133.1224692  54.7670990  36.7183201 131.9510348  54.4749239  35.8049447
 140.5469629  52.4752457  24.8501714 140.8229473  52.3609052  25.7595588
 139.6774128  52.0769942  24.8113887 140.4510060  38.4989223  31.8906464
 139.5373140  38.7293449  32.0588671 140.8803162  38.5827667  32.7420496
 140.2216519  46.6879115  34.3906358 139.5687969  46.9355022  33.7358810
 140.5996899  45.8743253  34.0568835 137.1823693  56.7238808  28.4934528
 137.3646087  55.9060464  28.9562280 138.0056679  56.9406500  28.0559418
 137.5165858  55.6506993  25.7549576 138.0453625  55.1399447  25.1419738
 137.7794078  55.3349523  26.6195109 136.2704092  47.4298926  40.8772395
 135.5944729  47.3293055  41.5474770 137.0931726  47.2738139  41.3408392
 128.0182951  53.6670862  33.4984910 128.6036388  52.9214550  33.6312814
 127.8207790  53.9774819  34.3821574 130.8721606  56.7022110  28.5147352
 130.2031982  57.1868237  28.0311392 130.7334476  56.9491330  29.4290731
 122.6100606  46.2376462  32.2189353 122.6484705  45.7040053  33.0126471
 122.1040899  45.7111668  31.6000330 135.0126875  58.7365853  35.1130011
 135.5645183  58.8997475  35.8779096 135.3533068  59.3270291  34.4410036
 129.9891368  41.0841003  35.7151895 130.0532695  41.9455834  35.3029293
 129.9258488  40.4715005  34.9824254 129.4643641  43.1564135  39.3624930
 130.0915679  42.7741213  39.9762454 128.6071559  42.9378337  39.7280622
 139.8637749  53.5627111  40.9678665 140.4077653  54.1757069  40.4733620
 139.2824594  54.1206689  41.4845678 126.2409183  44.9640565  25.2943284
 126.5362624  44.0551243  25.2410338 125.3397219  44.9428304  24.9724287
 138.1495262  56.6847829  32.0993693 138.0246402  55.8837568  31.5904638
 138.8074353  57.1794022  31.6107663 129.7703430  43.0396561  31.2770833
 129.0490016  43.6532529  31.1378306 130.5596686  43.5754326  31.1987479
 140.2130171  54.4856849  33.7273243 139.2660506  54.3662200  33.6551570
 140.5612944  53.5979347  33.8099504 132.5729744  40.3750988  37.5511485
 133.0964146  40.6213284  38.3137794 132.3542077  41.2071022  37.1314622
 127.9697025  42.6454662  25.4182610 127.6409731  41.7652041  25.2357716
 128.3236396  42.5902331  26.3058999 137.2176604  54.2809565  29.9277595
 137.0701566  53.3526272  30.1085165 138.0430097  54.3029656  29.4434670
 131.0838848  42.9327632  25.7858087 131.4234921  43.4613553  25.0636696
 131.5310969  43.2708038  26.5616654 133.7782289  41.3164683  35.2361155
 133.4379109  40.5172496  35.6381835 133.0721295  41.6166394  34.6637989
 134.4298761  38.4013995  33.6888478 135.2524830  37.9274473  33.5667369
 134.6736824  39.1804479  34.1887165 131.9537340  45.0933116  31.4980457
 131.8081920  45.4073419  32.3904739 131.4762543  45.7118016  30.9451356
 133.8133722  42.0835664  31.5461347 133.7995291  41.1876757  31.2093644
 134.5306151  42.0906328  32.1799633 135.6659853  42.5173004  33.5914474
 135.4077631  43.4390075  33.5898804 135.1344893  42.1203439  34.2814938
 140.6106042  55.6223791  26.3704559 140.7842919  55.0570214  25.6178412
 141.1034933  56.4224686  26.1884049 126.4283002  47.6338460  34.4368118
 125.8836470  48.4098268  34.5688392 127.3062352  47.9809265  34.2787240
 133.2170618  40.9650044  26.8148917 133.3386530  40.0366690  27.0139804
 132.9272661  40.9788730  25.9027232 136.0861809  38.6504955  29.9515637
 136.1083506  38.7144288  28.9967616 136.5029868  37.8109463  30.1456143
 127.2149024  46.7608356  37.3298275 126.4730760  46.9090992  37.9162905
 126.8941768  47.0216622  36.4665024 135.1592686  56.3024335  37.1278665
 135.4679813  56.0573481  38.0001365 135.9568168  56.5070973  36.6397535
 135.1813298  58.4562244  29.3584042 134.7418289  57.9638623  30.0516898
 135.9321415  57.9135212  29.1176117 127.6605637  54.6473785  29.3608670
 128.4863657  54.3477557  28.9807313 127.3099689  53.8781408  29.8098458
 132.6287170  54.0000253  31.4306343 132.0067180  53.3370958  31.1308571
 133.2992037  54.0261385  30.7479991 125.8614242  52.5660112  30.3197603
 125.0246151  52.1382286  30.1381605 125.8337888  52.7592555  31.2568394
 132.7011698  42.4782041  41.0238849 132.7499853  43.3544164  40.6416619
 133.2434212  41.9359434  40.4510493 132.1900677  52.5504177  24.9064804
 132.3388798  53.2339641  24.2531477 132.9967121  52.5309267  25.4214260
 134.9310986  43.2313414  37.7785208 134.0614296  43.5246980  37.5067796
 135.1670467  43.8153859  38.4992472 129.9453310  48.5769354  25.9125873
 129.6999352  47.6731684  26.1106083 130.1149225  48.5786505  24.9705351
 137.6350020  39.4493031  35.2950628 138.1531964  40.1854058  34.9697117
 137.2805153  39.7557024  36.1297387 129.2148958  44.3097712  23.4112034
 128.5218203  44.3842067  22.7552070 128.9700710  43.5458056  23.9333551
 135.6896083  55.0452307  22.3776551 135.1170050  55.6642494  21.9247023
 136.2628876  55.5951669  22.9116473 139.7785852  41.3766531  34.7482501
 139.1835784  41.6571543  34.0528990 139.4935549  41.8660431  35.5199242
 138.9093343  55.3289457  23.5085134 139.8424016  55.2635019  23.7118009
 138.8216555  56.1645724  23.0499666 135.9581574  50.4330866  41.1793261
 136.8784583  50.6109465  41.3733307 135.9231157  49.4886911  41.0272960
 125.1763739  45.6269460  30.1046535 124.8566523  44.7734768  29.8120909
 124.6297167  45.8418038  30.8604503 128.9543646  48.3431901  33.8216042
 129.1729656  49.2749009  33.8404076 129.3669420  47.9839875  34.6070846
 133.8271512  43.9165107  43.2118791 133.7268239  44.8659463  43.1430882
 133.6093054  43.5883345  42.3394861 125.0451999  49.2472371  32.0739657
 124.3515470  48.8326324  31.5609611 125.7924990  49.2892908  31.4773076
 133.6902782  47.3462245  42.0283852 133.2069863  48.1462605  42.2347741
 133.7763721  47.3570190  41.0751296 126.9588741  49.1790625  29.9505672
 126.9359429  49.2778312  28.9987555 127.2689378  50.0255776  30.2722838
 129.6176119  51.2366780  34.0652286 130.5719373  51.2050722  33.9982218
 129.4188643  50.7757404  34.8802512 130.2075501  49.8067896  36.6323084
 131.0268390  50.3011975  36.6557921 130.4812309  48.8899864  36.6040651
 127.9726348  56.7786400  31.0822484 127.8380816  56.0186800  30.5160482
 127.5558410  57.5027299  30.6151273 131.1295474  57.6755717  31.2940927
 131.0127858  58.6201149  31.1919617 130.3087920  57.3729278  31.6826726
 125.4610416  44.1406030  37.3315281 126.1069279  43.6304984  37.8202506
 125.2527567  44.8774712  37.9058706 137.9863808  51.2086877  42.8307422
 138.8554967  51.3827530  42.4694056 137.5070559  52.0281294  42.7083151
 132.1549988  58.3283978  34.5096855 133.0577235  58.3607589  34.8263350
 131.9287358  57.3984429  34.5243191 133.9103590  57.0814965  31.1706934
 132.9599221  57.0816827  31.0571306 134.2136076  56.3347700  30.6542968
 129.8007907  41.2873647  41.4290295 130.6639368  40.9310452  41.6393620
 129.2273317  40.9487542  42.1165699 139.8597237  66.2189600  30.9995332
 140.6518529  65.8780424  30.5841632 140.0993888  66.3284575  31.9197486
 139.4284212  62.5883381  30.9409898 139.5576593  62.8417860  31.8549309
 138.7481663  63.1811089  30.6214553 138.3753637  60.0605394  30.9860940
 137.5852691  60.3162922  30.5101050 138.8664884  60.8753732  31.0912980
 140.3268382  60.4249973  27.9444417 139.5299546  60.5368667  28.4627912
 140.0993975  60.7636625  27.0785307 136.6591340  60.3135884  33.4175931
 136.9099378  61.1982894  33.6833507 137.1950888  60.1340486  32.6451022
 139.3251465  66.1338222  26.3333837 139.8375986  66.9281472  26.4839401
 139.9774178  65.4364512  26.2667438 140.4198706  61.2968610  38.2918753
 140.3052222  60.3953867  38.5925852 139.5643224  61.5432307  37.9403570
 137.2900382  64.4626876  27.1093407 138.1275604  64.8723885  26.8927115
 137.4678650  63.5226318  27.0793601 137.3126553  61.8017592  27.7804141
 137.1150953  61.2086952  27.0555207 136.7573217  61.4969802  28.4980079
 139.8072779  61.3281625  25.4645093 138.8770367  61.2666081  25.6815055
 139.9030251  60.8057578  24.6681734 139.7258328  57.8536438  28.0523334
 139.9865145  58.7681771  27.9432495 140.5475500  57.3860881  28.2019947
 133.8726384  63.4867787  29.9471886 134.5597424  63.1729517  29.3592901
 133.7174513  64.3909151  29.6739137 138.6761106  58.3757983  34.3756910
 138.5919295  57.7683653  33.6407320 137.8543813  58.8667002  34.3766406
 138.8576706  68.9962780  33.4984910 139.4430142  68.2506468  33.6312814
 138.6601544  69.3066737  34.3821574 133.4494360  61.5668380  32.2189353
 133.4878460  61.0331971  33.0126471 132.9434653  61.0403586  31.6000330
 140.8285123  56.4132921  35.7151895 140.8926449  57.2747751  35.3029293
 140.7652243  55.8006922  34.9824254 140.3037395  58.4856053  39.3624930
 140.9309434  58.1033130  39.9762454 139.4465314  58.2670255  39.7280622
 137.0802938  60.2932482  25.2943284 137.3756379  59.3843161  25.2410338
 136.1790974  60.2720222  24.9724287 138.8090779  57.9746580  25.4182610
 138.4803486  57.0943959  25.2357716 139.1630150  57.9194249  26.3058999
 137.2676756  62.9630378  34.4368118 136.7230224  63.7390186  34.5688392
 138.1456106  63.3101182  34.2787240 138.0542778  62.0900274  37.3298275
 137.3124514  62.2382910  37.9162905 137.7335522  62.3508540  36.4665024
 138.4999392  69.9765703  29.3608670 139.3257412  69.6769475  28.9807313
 138.1493444  69.2073325  29.8098458 136.7007997  67.8952029  30.3197603
 135.8639905  67.4674204  30.1381605 136.6731642  68.0884473  31.2568394
 140.7847065  63.9061272  25.9125873 140.5393107  63.0023602  26.1106083
 140.9542979  63.9078423  24.9705351 140.0542712  59.6389630  23.4112034
 139.3611957  59.7133985  22.7552070 139.8094464  58.8749973  23.9333551
 136.0157493  60.9561377  30.1046535 135.6960278  60.1026686  29.8120909
 135.4690922  61.1709956  30.8604503 139.7937401  63.6723818  33.8216042
 140.0123411  64.6040926  33.8404076 140.2063175  63.3131793  34.6070846
 135.8845753  64.5764289  32.0739657 135.1909225  64.1618242  31.5609611
 136.6318744  64.6184825  31.4773076 137.7982496  64.5082543  29.9505672
 137.7753184  64.6070230  28.9987555 138.1083132  65.3547694  30.2722838
 138.8120103  72.1078317  31.0822484 138.6774570  71.3478718  30.5160482
 138.3952165  72.8319217  30.6151273 136.3004170  59.4697948  37.3315281
 136.9463034  58.9596902  37.8202506 136.0921321  60.2066629  37.9058706
   2.2708115  59.2132766 121.8931370   1.5859154  59.5931667 121.3428404
   2.3551965  59.8228093 122.6263318   2.4086517  57.2188359 117.6613264
   1.6315959  56.8799518 117.2168426   3.0877997  57.2240982 116.9868229
   2.8075014  56.2332065 120.1236186   2.6692912  56.4233661 119.1957375
   2.4511232  56.9951448 120.5804237   5.5526616  56.0506179 120.9177710
   5.9957762  55.3013504 120.5196833   4.6753126  56.0416315 120.5351442
   0.6862397  62.6036521 116.3984308   1.3813302  63.2243213 116.6171623
   1.0285547  61.7531872 116.6736686   2.5853820  60.0536226 117.9271639
   3.1105144  60.3923499 117.2020959   2.4976173  59.1183241 117.7434773
   0.6262542  62.3101293 113.3971932   0.5476174  61.9761156 114.2907689
   1.4472209  62.8023061 113.3963404   8.7337466  70.5821468 125.1635547
   9.3715876  70.4628216 124.4598887   8.6158309  71.5302312 125.2223499
   5.5427173  70.5348897 125.0997071   5.2045684  70.4189961 124.2117606
   6.4116941  70.1340062 125.0798077   1.4013988  72.3884373 121.0893962
   0.8378853  72.2974310 120.3210250   1.2866383  71.5684277 121.5696455
   6.9813547  76.0555341 116.4008427   6.3301527  76.6409421 116.0142441
   7.7757910  76.5861536 116.4603465   0.9069174  73.1444478 116.7995562
   1.6800050  72.5973465 116.6608437   1.2594573  74.0088727 117.0110023
   3.6710424  71.8497709 126.5963821   4.2673996  71.6253731 125.8820783
   3.7285395  71.1082454 127.1989268   3.2435452  69.3037144 114.4314011
   3.4960973  68.7818665 113.6697474   2.3060011  69.1403289 114.5340695
   8.2878735  68.3072922 122.2388755   9.0741824  67.8892345 121.8879172
   8.5517439  69.2119014 122.4070403   8.4588812  73.7445773 116.9377412
   7.8234645  73.8180399 117.6498316   8.1286219  74.3339371 116.2596491
  13.6887162  68.2448156 123.1421733  14.4212334  67.6747372 123.3759563
  12.9326518  67.8569756 123.5828239   2.9631741  71.2065250 116.6338386
   2.8467999  70.5310153 117.3019471   3.0734001  70.7197624 115.8170539
   5.3063282  70.6675397 120.3385076   4.9421489  70.1406018 121.0497997
   6.1630398  70.2773866 120.1651561   4.9468769  65.6965297 115.3346424
   5.1143171  66.5645533 115.7016895   4.7565938  65.8592578 114.4107713
   7.7044102  74.1582276 127.0012255   7.4044825  75.0607314 126.8928062
   7.3595161  73.8914459 127.8533407  11.1041246  66.6764816 124.6809692
  10.1958123  66.6080224 124.3868453  11.0528841  67.1536761 125.5091517
   4.9257990  68.1522954 116.3193091   4.8057615  68.5980005 117.1578571
   4.2310578  68.5008272 115.7606629   2.6864882  80.9226596 119.9683222
   2.6088911  81.8734421 120.0471703   2.0826525  80.5772468 120.6258149
  12.9702892  64.8781254 126.4587566  12.3277272  65.1713787 125.8127360
  12.4657821  64.7634175 127.2640762  10.6243056  68.6244427 117.1473425
  11.5360912  68.8571814 116.9721123  10.1152703  69.2081472 116.5848504
   8.9083823  73.0469055 130.7834718   9.3167179  72.6051466 130.0389350
   8.1861085  72.4721683 131.0368911   9.2312638  73.6070246 124.5387007
   8.6021500  73.7715960 123.8363074   8.8438300  74.0211855 125.3097971
  13.1101870  74.5424684 121.8931370  12.4252908  74.9223585 121.3428404
  13.1945719  75.1520010 122.6263318  10.3652802  72.1884643 128.4926714
  10.5769697  72.8316403 127.8161095  10.3182550  71.3546959 128.0248644
   7.9679030  64.8002463 125.3963286   7.1063510  65.0983717 125.6880024
   7.9941465  65.0172862 124.4644319   4.7840600  73.3444654 121.8037092
   5.2478945  73.6232357 121.0141714   4.5197398  72.4428098 121.6210182
   1.6764681  72.8916135 124.7416855   2.2466038  73.3203404 124.1034339
   2.2672793  72.6098720 125.4401041   3.7209486  69.4667806 118.6126657
   4.4233529  69.9188850 119.0800583   3.3890114  68.8251625 119.2406550
  11.4798629  75.0656598 126.6649071  12.3016073  74.6636785 126.3831753
  11.4761032  74.9624832 127.6165187  19.5704623  71.4095347 123.0134043
  18.8168331  70.8402745 122.8578047  19.7052164  71.3758011 123.9604677
   4.9603251  76.2808749 118.6888762   4.8248925  77.1260285 119.1173610
   5.5013063  76.4828027 117.9254696   8.6852965  77.1835115 130.8470505
   8.6671440  78.0043996 130.3550774   9.6072885  77.0589191 131.0720646
   8.2745997  69.7947922 115.7260091   7.7592620  70.5652527 115.9648478
   8.0023305  69.1213058 116.3493152   5.8593108  64.6397623 120.7845329
   5.0034704  64.2504473 120.6050968   6.2720060  64.7189583 119.9245114
   7.3892255  62.1743966 125.1836889   6.8857050  62.1374101 124.3704694
   7.6822861  63.0836709 125.2433545  13.2480271  72.5480277 117.6613264
  12.4709714  72.2091436 117.2168426  13.9271752  72.5532900 116.9868229
   8.0632300  67.6675014 117.5519872   7.7582436  67.9821163 118.4030015
   9.0162742  67.7456434 117.5947205   6.5078732  73.8265237 119.2012826
   5.9800093  73.0917997 118.8886063   6.0066235  74.6039914 118.9552794
  11.4871578  72.0214258 124.3179872  10.8295252  72.7113519 124.4060001
  12.2911977  72.4110690 124.6613858   1.2397460  64.4884904 121.5619437
   1.8141211  64.2660085 120.8292630   1.8268442  64.5573598 122.3148039
  10.2977037  70.3758630 122.3683814  10.8108918  71.0088622 122.8705523
  10.9478261  69.7759826 122.0027174   1.5667047  66.5189365 115.5815322
   0.7304359  66.8564051 115.9024597   1.4271816  66.3838344 114.6442459
   3.5420127  61.3626152 120.2894507   2.8884540  61.0475170 119.6651121
   3.5000601  60.7401893 121.0154330   4.6531332  71.6445448 112.2047799
   3.7458394  71.4134701 112.4038948   5.1502364  70.8483067 112.3921780
   7.5599411  80.3542955 115.1244485   6.8861110  80.6574652 115.7329443
   7.9465233  81.1572035 114.7749942   6.7757868  67.8508086 124.6142154
   5.8580429  68.0723033 124.4563842   7.1918011  67.9254397 123.7553862
   7.5592915  69.2499502 119.7444835   8.3064734  69.7620899 119.4351957
   7.8284505  68.9283554 120.6049228   5.8319566  71.7458042 116.7271789
   4.9230785  71.4617075 116.8244259   5.8614649  72.1657121 115.8675096
  11.0638833  75.3564632 120.4962956  10.6101160  74.5155542 120.5528147
  10.4332800  75.9926030 120.8337737  10.0071752  66.2856618 121.7263624
   9.2694509  65.7734004 122.0573866  10.2598526  65.8457000 120.9146901
   9.5071772  77.1941129 121.4312775   9.7994747  77.7546186 120.7125140
  10.0170393  77.4869690 122.1865934  10.1083380  59.0632870 122.3205393
  10.4142257  58.2030233 122.0331308  10.8335985  59.6550490 122.1204387
   4.3804460  69.3586663 122.8281584   4.4353069  68.4060499 122.7524061
   3.5695662  69.5146102 123.3122883   5.5295653  73.2866786 114.0659867
   5.0915083  72.5702645 113.6065505   6.2706094  73.5142901 113.5044959
   2.3196819  67.9763723 120.5871963   1.5064685  68.2757893 120.9937155
   2.8155814  67.5819412 121.3046445   4.4705397  77.9721480 122.5206228
   4.4281576  78.1982326 121.5914760   5.3868096  77.7384854 122.6692029
  13.6468768  71.5623983 120.1236186  13.5086667  71.7525579 119.1957375
  13.2904987  72.3243366 120.5804237  13.6738148  73.6300510 125.1347457
  14.1074654  73.5375799 125.9830512  14.3869728  73.6058011 124.4967473
   2.5871198  74.8484509 122.3168190   3.3811797  74.3534829 122.1150765
   1.8762891  74.3202372 121.9535896   7.4066043  77.2302604 126.6680558
   7.4603065  77.7993541 127.4358274   6.5380824  77.4004489 126.3034595
  14.5353697  73.6724211 127.6680343  14.7289587  74.5770021 127.9139618
  14.4354315  73.2131630 128.5018928   9.5968806  73.8230954 133.2421223
   9.4454312  73.5941505 132.3251307   9.5873485  74.7801555 133.2552569
   6.3654142  71.3962866 128.2267490   7.2946202  71.5474026 128.0536457
   5.9445172  71.4846887 127.3716136   5.1642474  75.4213531 125.9966028
   5.0253560  75.0532315 126.8691966   4.3757070  75.9361170 125.8249985
   5.7590626  80.5222627 117.3391564   5.9342382  80.0510670 118.1537187
   5.0723414  81.1488393 117.5672825   6.7147689  74.7995133 123.3854865
   6.3797522  74.7595903 124.2812515   6.2151635  74.1339849 122.9125276
   9.6506881  72.1451168 113.6591925   9.0336052  71.4197996 113.5624978
   9.1823369  72.9060528 113.3158999  11.3061013  76.8550076 131.3197705
  11.2473559  76.1709296 130.6528288  11.7080531  77.5969066 130.8678331
   1.4405427  66.3636592 112.7813229   0.5634893  66.2425393 112.4175476
   1.9163180  65.5722670 112.5292118  11.3078420  74.8189660 129.5511685
  10.4205199  74.4815582 129.6738084  11.8776971  74.0872691 129.7880450
   4.6269353  78.7162882 120.0275750   3.8436875  79.2584563 120.1213974
   5.3262098  79.2336862 120.4269991   7.9366003  64.5257512 122.6709955
   8.4334703  63.7727474 122.3511025   7.1652984  64.5621829 122.1053164
  15.7895760  70.2297877 124.3128247  15.7785637  71.1122593 123.9422180
  14.9213140  69.8769428 124.1182784   7.2978257  79.3777946 128.6731087
   8.0106229  80.0125411 128.6006988   6.8068285  79.4741812 127.8571089
   9.0195784  73.2829199 120.2448379   8.0852062  73.4030662 120.0753083
   9.1972452  72.3801666 119.9808388   4.5200972  66.6674895 122.3981640
   4.1498759  66.1145935 123.0862545   5.0160064  66.0633028 121.8456640
  12.4068335  69.1246518 120.7798413  12.8728787  69.9574510 120.7058715
  12.8575836  68.6591500 121.4843671  10.4744566  75.4690340 117.7784565
  10.7504410  75.3546934 118.6878439   9.6049065  75.0707825 117.7396738
  10.3784998  61.4927105 124.8189314   9.4648078  61.7231332 124.9871521
  10.8078099  61.5765549 125.6703346  10.1491456  69.6816997 127.3189208
   9.4962907  69.9292905 126.6641661  10.5271836  68.8681136 126.9851685
   7.1098630  79.7176691 121.4217378   7.2921025  78.8998346 121.8845131
   7.9331616  79.9344383 120.9842268   7.4440796  78.6444876 118.6832427
   7.9728562  78.1337330 118.0702589   7.7069015  78.3287406 119.5477960
   8.0770199  79.6785711 125.0276543   7.9521339  78.8775451 124.5187489
   8.7349291  80.1731905 124.5390513  10.1405108  77.4794731 126.6556093
   9.1935443  77.3600083 126.5834420  10.4887881  76.5917230 126.7382355
   7.1451541  77.2747448 122.8560446   6.9976504  76.3464155 123.0368016
   7.9705035  77.2967538 122.3717521   1.0113785  65.9265515 118.7140938
   1.3509858  66.4551436 117.9919546   1.4585906  66.2645921 119.4899504
  10.7485663  78.0976006 123.9425318  11.6732210  77.8918868 123.8049770
  10.5800966  77.8492408 124.8514660   2.9981933  64.4240136 116.9134231
   3.7190295  64.8021389 116.4097947   2.3747237  65.1429013 117.0169208
   7.1413055  65.1285285 117.8492563   7.3576670  66.0109923 117.5481391
   6.6607123  64.7371499 117.1198205   1.8812277  68.0870999 124.4263307
   1.7356858  68.4011302 125.3187589   1.4037480  68.7055899 123.8734206
   3.7408660  65.0773547 124.4744197   3.7270228  64.1814640 124.1376495
   4.4581088  65.0844210 125.1082483  10.5380979  78.6161674 119.2987410
  10.7117857  78.0508096 118.5461262  11.0309870  79.4162569 119.1166900
   3.1445556  63.9587927 119.7431767   3.2661467  63.0304573 119.9422655
   2.8547598  63.9726613 118.8310083   6.0136746  61.6442837 122.8798487
   6.0358443  61.7082170 121.9250467   6.4304805  60.8047346 123.0738993
  16.3920370  71.3798097 120.9177710  16.8351516  70.6305422 120.5196833
  15.5146881  71.3708233 120.5351442  11.5256152  77.9328438 116.3984308
  12.2207056  78.5535131 116.6171623  11.8679302  77.0823789 116.6736686
  13.4247575  75.3828144 117.9271639  13.9498899  75.7215417 117.2020959
  13.3369927  74.4475159 117.7434773   5.1088236  81.4500127 122.2866892
   4.6693226  80.9576506 122.9799749   5.8596353  80.9073095 122.0458967
   2.5562108  76.9938136 124.3589194   1.9342117  76.3308841 124.0591422
   3.2266975  77.0199268 123.6762841  13.1141481  76.0161047 133.2322837
  12.3237025  75.9985186 132.6927336  12.8774835  76.5549341 133.9871873
  13.2339356  72.8653514 130.5455565  13.2837361  72.7003521 131.4871088
  13.1253279  71.9980773 130.1553446   2.1175615  75.5442060 117.8347654
   2.2663735  76.2277524 117.1814327   2.9242058  75.5247150 118.3497110
  14.7357553  75.2850455 130.7897587  14.4442361  75.6480436 131.6261048
  14.1229684  74.5717464 130.6110919  15.9353235  72.8503335 123.3100157
  16.7700126  73.2893139 123.4737717  16.0712364  72.3741988 122.4908403
  12.9844741  70.4083070 129.2577645  13.4598863  70.6010716 128.4496496
  12.0610306  70.4642256 129.0121029   5.6171020  78.0390190 115.3059402
   5.0444987  78.6580377 114.8529874   6.1903814  78.5889552 115.8399324
  11.6846410  67.2848830 127.4905950  12.6363833  67.3846928 127.5118175
  11.5149860  66.4927099 128.0004035   9.7060789  64.3704413 127.6765351
   9.1110722  64.6509426 126.9811840   9.4210486  64.8598314 128.4482093
   8.8368280  78.3227340 116.4367984   9.7698953  78.2572902 116.6400859
   8.7491493  79.1583607 115.9782517  11.4656297  77.6393210 113.3971932
  11.3869928  77.3053074 114.2907689  12.2865963  78.1314978 113.3963404
  14.1634488  70.5054950 126.6048250  14.1310808  69.5670950 126.7907934
  14.7735111  70.5838986 125.8714075   6.0017819  69.3751003 112.6475454
   6.9476923  69.2457211 112.7163872   5.6232064  68.6365665 113.1244882
  14.3128976  67.2965993 126.6506533  13.7968025  66.5124450 126.4636462
  15.1968925  66.9684710 126.8153053  11.9739703  61.0407009 122.6102346
  11.7764524  60.7322097 123.4945678  12.5839409  61.7668648 122.7400276
  19.9811038  71.5670957 125.7454287  20.7114426  71.3056245 126.3061990
  19.3717983  70.8299679 125.7856355  18.0626335  69.7078819 126.3428738
  17.3359498  69.5734784 125.7345230  17.6473622  70.0155648 127.1485456
   4.1860736  67.3000979 112.5830339   3.2792191  67.0034092 112.6593053
   4.4636717  67.0030797 111.7164626   5.8022802  61.8437869 118.7374581
   4.9923530  61.4984954 119.1129827   6.4907218  61.5345413 119.3262192
   7.7313350  60.9215916 120.3598877   8.2844388  61.3411369 121.0188900
   7.9683436  59.9951664 120.4021833   2.9559520  64.1587914 112.7242319
   3.8178684  64.4842813 112.9838136   3.1409865  63.3719410 112.2115384
  11.1092157  63.0316441 119.8677542  10.5290826  63.6901245 119.4855594
  10.8428090  62.2093785 119.4564959   9.5595723  62.4321498 122.0698862
  10.0595502  62.5438033 121.2613181  10.2031331  62.1282551 122.7099670
   9.8917035  65.1916531 118.9233890   9.0042890  65.4766182 118.7054085
  10.3071024  65.0310295 118.0761167  13.2431571  65.2163052 122.6388229
  14.0191961  65.7059505 122.9112846  12.5179705  65.6421106 123.0960099
  15.6804130  65.9290671 123.6962170  16.2748620  65.6886407 122.9855478
  15.7530713  65.2097802 124.3235706   9.0360248  74.9561206 113.0181910
   9.7396098  75.1611208 113.6339565   8.3122897  75.5237968 113.2830993
   9.8658059  70.7071067 119.1384180   9.8093260  71.1639619 118.2991812
  10.4186401  69.9461752 118.9607023  13.6762865  66.4960799 119.9634300
  13.4199799  66.0957435 120.7942507  13.0515733  67.2104593 119.8384439
  17.9875202  69.2356872 122.4705591  17.4274760  69.3050062 123.2437153
  17.3818706  69.0597857 121.7505087  10.9446946  75.3943735 115.0680370
  11.7792550  74.9624934 114.8857845  10.7831289  75.2225749 115.9957264
  10.5992838  71.8975848 116.4336709  10.5441642  71.7320120 115.4925153
   9.9738893  72.6051881 116.5898899   3.9088963  61.3983957 116.0122028
   3.8967633  62.3425797 116.1690298   4.8012385  61.2154103 115.7181489
   3.8378527  80.0752848 124.0989784   2.8874158  80.0754709 123.9854157
   4.1411014  79.3285582 123.5825819   7.7241083  57.9926734 120.2667964
   6.9573479  57.4385221 120.4124647   8.1351788  58.0648603 121.1282116
  19.5731221  85.9113386 125.1635547  20.2109631  85.7920133 124.4598887
  19.4552064  86.8594230 125.2223499  16.3820927  85.8640814 125.0997071
  16.0439439  85.7481879 124.2117606  17.2510695  85.4631979 125.0798077
  12.2407743  87.7176291 121.0893962  11.6772608  87.6266228 120.3210250
  12.1260138  86.8976195 121.5696455  16.8640710  87.0175666 131.0583277
  16.8529351  86.6228464 130.1863781  17.0261350  86.2841739 131.6517048
   9.7872175  89.2127482 123.9278183  10.5793467  88.8718307 123.5124482
  10.0268825  89.3222457 124.8480336  17.8207302  91.3847258 116.4008427
  17.1695281  91.9701339 116.0142441  18.6151664  91.9153453 116.4603465
  11.7462929  88.4736396 116.7995562  12.5193805  87.9265383 116.6608437
  12.0988328  89.3380645 117.0110023  14.5104178  87.1789626 126.5963821
  15.1067750  86.9545649 125.8820783  14.5679150  86.4374372 127.1989268
  14.0829207  84.6329062 114.4314011  14.3354727  84.1110583 113.6697474
  13.1453766  84.4695207 114.5340695  19.1272489  83.6364840 122.2388755
  19.9135579  83.2184263 121.8879172  19.3911194  84.5410932 122.4070403
  19.2982567  89.0737690 116.9377412  18.6628400  89.1472317 117.6498316
  18.9679973  89.6631289 116.2596491  24.5280916  83.5740073 123.1421733
  25.2606088  83.0039290 123.3759563  23.7720272  83.1861674 123.5828239
  13.8025495  86.5357168 116.6338386  13.6861753  85.8602071 117.3019471
  13.9127755  86.0489542 115.8170539  16.1457036  85.9967315 120.3385076
  15.7815243  85.4697936 121.0497997  17.0024152  85.6065784 120.1651561
  22.0506337  77.2861647 127.6016342  21.7189662  78.1557058 127.3777557
  21.4551950  76.9697931 128.2810372  15.7862523  81.0257214 115.3346424
  15.9536926  81.8937451 115.7016895  15.5959692  81.1884496 114.4107713
  18.5437856  89.4874193 127.0012255  18.2438579  90.3899232 126.8928062
  18.1988916  89.2206376 127.8533407  11.9950338  85.9387990 123.0348959
  11.0700834  85.8064204 123.2426651  12.2434751  86.7182209 123.5318901
  21.9435000  82.0056733 124.6809692  21.0351877  81.9372142 124.3868453
  21.8922596  82.4828678 125.5091517  15.7651744  83.4814872 116.3193091
  15.6451369  83.9271923 117.1578571  15.0704332  83.8300190 115.7606629
   9.3559149  85.5821264 123.8692748   9.4851530  85.8355743 124.7832160
   8.6756600  86.1748972 123.5497403  13.5258636  96.2518514 119.9683222
  13.4482666  97.2026339 120.0471703  12.9220280  95.9064386 120.6258149
  16.0175866  83.4246379 132.6244589  15.2409200  83.9840299 132.6147454
  16.6566429  83.9103162 133.1459459  23.8096647  80.2073172 126.4587566
  23.1671027  80.5005705 125.8127360  23.3051575  80.0926092 127.2640762
  21.4636810  83.9536345 117.1473425  22.3754666  84.1863732 116.9721123
  20.9546457  84.5373389 116.5848504  19.7477578  88.3760973 130.7834718
  20.1560934  87.9343383 130.0389350  19.0254839  87.8013600 131.0368911
  16.1008648  83.3133580 128.1568275  16.9469843  83.7372993 128.3002924
  16.0407286  82.6567204 128.8506838  20.0706393  88.9362164 124.5387007
  19.4415255  89.1007878 123.8363074  19.6832055  89.3503773 125.3097971
  23.9495624  89.8716601 121.8931370  23.2646663  90.2515503 121.3428404
  24.0339474  90.4811928 122.6263318  19.2508093  80.9737948 129.8149448
  19.0069025  81.7280009 129.2783724  19.5268024  81.3523296 130.6496695
  21.2046556  87.5176560 128.4926714  21.4163451  88.1608320 127.8161095
  21.1576304  86.6838877 128.0248644  18.8072785  80.1294381 125.3963286
  17.9457264  80.4275635 125.6880024  18.8335220  80.3464780 124.4644319
  15.6234354  88.6736572 121.8037092  16.0872700  88.9524275 121.0141714
  15.3591153  87.7720016 121.6210182  12.5158435  88.2208053 124.7416855
  13.0859793  88.6495322 124.1034339  13.1066547  87.9390638 125.4401041
  14.5603240  84.7959724 118.6126657  15.2627284  85.2480768 119.0800583
  14.2283869  84.1543543 119.2406550   8.3028574  83.0543277 123.9143790
   7.5127628  83.3100805 123.4383901   8.7939822  83.8691614 124.0195831
  22.3192384  90.3948516 126.6649071  23.1409828  89.9928703 126.3831753
  22.3154787  90.2916750 127.6165187  10.2543320  83.4187856 120.8727267
   9.4574483  83.5306550 121.3910763  10.0268912  83.7574508 120.0068158
  30.4098377  86.7387264 123.0134043  29.6562085  86.1694662 122.8578047
  30.5445918  86.7049929 123.9604677  15.7997005  91.6100667 118.6888762
  15.6642680  92.4552202 119.1173610  16.3406818  91.8119944 117.9254696
   9.2526402  89.1276105 119.2616687   9.7650923  89.9219355 119.4122252
   9.9049115  88.4302395 119.1950289  11.0621287  92.2441861 121.3439440
  11.2387916  93.1659826 121.1560424  11.8578121  91.9300280 121.7733820
  15.2032306  79.1050126 132.9423374  15.9442019  79.7057279 132.8627836
  15.4350229  78.3627763 132.3841416  19.5246720  92.5127033 130.8470505
  19.5065195  93.3335914 130.3550774  20.4466640  92.3881108 131.0720646
  19.1489469  75.1331228 127.2187655  18.8053738  76.0232870 127.1426766
  19.5168431  74.9432886 126.3557240   7.2175319  87.4564759 120.0376258
   8.0550541  87.8661767 119.8209965   7.3953587  86.5164201 120.0076451
  19.1139751  85.1239840 115.7260091  18.5986375  85.8944444 115.9648478
  18.8417060  84.4504976 116.3493152  16.6986862  79.9689540 120.7845329
  15.8428459  79.5796391 120.6050968  17.1113814  80.0481501 119.9245114
  18.2286009  77.5035884 125.1836889  17.7250805  77.4666019 124.3704694
  18.5216616  78.4128626 125.2433545  14.4728895  77.5874613 124.1903070
  15.3381892  77.3917422 123.8308960  14.5406404  77.3584965 125.1172427
  24.0874026  87.8772194 117.6613264  23.3103468  87.5383354 117.2168426
  24.7665506  87.8824817 116.9868229  18.9026055  82.9966932 117.5519872
  18.5976190  83.3113081 118.4030015  19.8556497  83.0748352 117.5947205
  17.3472486  89.1557155 119.2012826  16.8193848  88.4209915 118.8886063
  16.8459989  89.9331831 118.9552794  22.3265332  87.3506175 124.3179872
  21.6689007  88.0405437 124.4060001  23.1305732  87.7402607 124.6613858
  12.0791214  79.8176821 121.5619437  12.6534966  79.5952003 120.8292630
  12.6662196  79.8865516 122.3148039  21.1370791  85.7050548 122.3683814
  21.6502673  86.3380540 122.8705523  21.7872015  85.1051744 122.0027174
  12.4060801  81.8481282 115.5815322  11.5698113  82.1855969 115.9024597
  12.2665571  81.7130262 114.6442459  14.3813882  76.6918070 120.2894507
  13.7278294  76.3767087 119.6651121  14.3394356  76.0693811 121.0154330
  15.4925087  86.9737365 112.2047799  14.5852148  86.7426619 112.4038948
  15.9896119  86.1774985 112.3921780  18.3993165  95.6834872 115.1244485
  17.7254864  95.9866569 115.7329443  18.7858987  96.4863953 114.7749942
  17.6151622  83.1800004 124.6142154  16.6974183  83.4014951 124.4563842
  18.0311766  83.2546314 123.7553862  18.3986670  84.5791419 119.7444835
  19.1458489  85.0912817 119.4351957  18.6678259  84.2575472 120.6049228
  16.6713320  87.0749960 116.7271789  15.7624539  86.7908993 116.8244259
  16.7008404  87.4949039 115.8675096  21.9032587  90.6856550 120.4962956
  21.4494915  89.8447460 120.5528147  21.2726554  91.3217948 120.8337737
  20.8465507  81.6148536 121.7263624  20.1088264  81.1025922 122.0573866
  21.0992281  81.1748917 120.9146901  20.3465527  92.5233046 121.4312775
  20.6388501  93.0838103 120.7125140  20.8564147  92.8161607 122.1865934
  20.9477134  74.3924788 122.3205393  21.2536011  73.5322151 122.0331308
  21.6729739  74.9842408 122.1204387   7.2401490  84.7955474 120.7086991
   7.0425890  84.2024835 119.9838058   6.6848154  84.4907684 121.4262930
  15.2198214  84.6878581 122.8281584  15.2746824  83.7352417 122.7524061
  14.4089416  84.8438020 123.3122883  16.3689408  88.6158704 114.0659867
  15.9308838  87.8994563 113.6065505  17.1099849  88.8434819 113.5044959
  13.1590574  83.3055640 120.5871963  12.3458440  83.6049811 120.9937155
  13.6549568  82.9111329 121.3046445  15.3099152  93.3013397 122.5206228
  15.2675331  93.5274244 121.5914760  16.2261851  93.0676772 122.6692029
  18.7564786  83.7697465 129.4186857  19.1114173  83.9968938 130.2781323
  19.4036917  84.1015842 128.7964112  24.4862523  86.8915901 120.1236186
  24.3480421  87.0817497 119.1957375  24.1298741  87.6535284 120.5804237
  12.6504649  80.8773996 126.2033198  13.2904028  80.7362755 125.5056161
  11.8182179  80.5908509 125.8271800  24.5131902  88.9592428 125.1347457
  24.9468409  88.8667717 125.9830512  25.2263483  88.9349928 124.4967473
  13.4264953  90.1776426 122.3168190  14.2205551  89.6826747 122.1150765
  12.7156645  89.6494290 121.9535896  18.2459797  92.5594522 126.6680558
  18.2996819  93.1285458 127.4358274  17.3774578  92.7296407 126.3034595
   9.7347716  84.3219508 118.3927943   8.8045304  84.2603964 118.6097905
   9.8305188  83.7995461 117.5964584   9.6533265  80.8474321 120.9806185
   9.9140082  81.7619654 120.8715345  10.4750437  80.3798764 121.1302798
  11.1258190  82.2612078 128.1505009  11.7981244  82.0529440 127.5017658
  10.2987977  82.0634164 127.7110242  25.3747452  89.0016128 127.6680343
  25.5683342  89.9061939 127.9139618  25.2748070  88.5423548 128.5018928
  17.0283762  78.8874019 130.1670670  16.3811678  79.5863969 130.0735147
  17.7984778  79.3210163 130.5346918  20.4362560  89.1522871 133.2421223
  20.2848067  88.9233423 132.3251307  20.4267240  90.1093473 133.2552569
  17.2047897  86.7254784 128.2267490  18.1339957  86.8765944 128.0536457
  16.7838927  86.8138805 127.3716136  16.0036229  90.7505448 125.9966028
  15.8647314  90.3824233 126.8691966  15.2150825  91.2653088 125.8249985
  16.5984381  95.8514545 117.3391564  16.7736136  95.3802588 118.1537187
  15.9117169  96.4780311 117.5672825  17.5541444  90.1287051 123.3854865
  17.2191276  90.0887821 124.2812515  17.0545389  89.4631767 122.9125276
  20.4900635  87.4743085 113.6591925  19.8729806  86.7489914 113.5624978
  20.0217124  88.2352446 113.3158999  14.1567988  85.2474640 128.3991126
  14.8667607  84.6067833 128.3577745  14.1137297  85.4987535 129.3217307
  22.1454767  92.1841994 131.3197705  22.0867313  91.5001214 130.6528288
  22.5474285  92.9260984 130.8678331  12.8696922  82.2339858 130.2186766
  12.3334279  81.7830597 130.8708362  12.2813631  82.3685767 129.4757230
  12.2799181  81.6928510 112.7813229  11.4028648  81.5717311 112.4175476
  12.7556934  80.9014588 112.5292118  22.1472174  90.1481578 129.5511685
  21.2598953  89.8107500 129.6738084  22.7170725  89.4164609 129.7880450
   8.6036044  81.3695866 127.3039760   8.5194232  80.7621536 126.5690170
   7.7818750  81.8604884 127.3049256  15.4663107  94.0454800 120.0275750
  14.6830629  94.5876480 120.1213974  16.1655853  94.5628780 120.4269991
  18.7759757  79.8549430 122.6709955  19.2728457  79.1019392 122.3511025
  18.0046739  79.8913746 122.1053164  26.6289515  85.5589795 124.3128247
  26.6179391  86.4414511 123.9422180  25.7606894  85.2061346 124.1182784
  18.1372011  94.7069864 128.6731087  18.8499983  95.3417329 128.6006988
  17.6462040  94.8033730 127.8571089  19.8589538  88.6121117 120.2448379
  18.9245817  88.7322579 120.0753083  20.0366207  87.7093584 119.9808388
  15.3594726  81.9966813 122.3981640  14.9892514  81.4437853 123.0862545
  15.8553819  81.3924946 121.8456640  23.2462090  84.4538436 120.7798413
  23.7122542  85.2866428 120.7058715  23.6969590  83.9883418 121.4843671
  21.3138321  90.7982257 117.7784565  21.5898165  90.6838852 118.6878439
  20.4442819  90.3999742 117.7396738  21.2178752  76.8219023 124.8189314
  20.3041832  77.0523250 124.9871521  21.6471854  76.9057467 125.6703346
  20.9885211  85.0108915 127.3189208  20.3356661  85.2584822 126.6641661
  21.3665591  84.1973053 126.9851685  17.9492385  95.0468608 121.4217378
  18.1314779  94.2290264 121.8845131  18.7725371  95.2636300 120.9842268
  18.2834550  93.9736793 118.6832427  18.8122317  93.4629248 118.0702589
  18.5462770  93.6579324 119.5477960  11.6390298  95.0251910 121.4430203
  10.9700673  95.5098038 120.9594243  11.5003168  95.2721130 122.3573581
  10.7560060  79.4070803 128.6434746  10.8201386  80.2685634 128.2312144
  10.6927180  78.7944805 127.9107104   7.0077875  83.2870365 118.2226135
   7.3031316  82.3781043 118.1693189   6.1065911  83.2658104 117.9007137
  18.9163954  95.0077629 125.0276543  18.7915093  94.2067369 124.5187489
  19.5743045  95.5023822 124.5390513  10.5372122  81.3626362 124.2053684
   9.8158708  81.9762329 124.0661157  11.3265378  81.8984126 124.1270329
  20.9798862  92.8086649 126.6556093  20.0329198  92.6892000 126.5834420
  21.3281635  91.9209147 126.7382355  13.3398436  78.6980788 130.4794335
  13.8632838  78.9443085 131.2420645  13.1210769  79.5300823 130.0597473
   8.7365717  80.9684463 118.3465460   8.4078423  80.0881842 118.1640566
   9.0905087  80.9132131 119.2341849  17.9845296  92.6039365 122.8560446
  17.8370258  91.6756073 123.0368016  18.8098789  92.6259456 122.3717521
  11.8507540  81.2557432 118.7140938  12.1903612  81.7843354 117.9919546
  12.2979660  81.5937839 119.4899504  21.5879417  93.4267924 123.9425318
  22.5125965  93.2210785 123.8049770  21.4194721  93.1784325 124.8514660
  14.5450981  79.6394483 128.1644006  14.2047801  78.8402296 128.5664686
  13.8389987  79.9396194 127.5920839  15.1967453  76.7243796 126.6171329
  16.0193522  76.2504274 126.4950219  15.4405516  77.5034279 127.1170015
  13.8375687  79.7532054 116.9134231  14.5584050  80.1313307 116.4097947
  13.2140991  80.4720931 117.0169208  17.9806810  80.4577203 117.8492563
  18.1970424  81.3401841 117.5481391  17.5000877  80.0663416 117.1198205
  12.7206031  83.4162916 124.4263307  12.5750612  83.7303219 125.3187589
  12.2431235  84.0347817 123.8734206  14.5802414  80.4065464 124.4744197
  14.5663983  79.5106558 124.1376495  15.2974842  80.4136128 125.1082483
  16.4328545  80.8402804 126.5197324  16.1746323  81.7619875 126.5181655
  15.9013585  80.4433239 127.2097789  21.3774734  93.9453592 119.2987410
  21.5511611  93.3800014 118.5461262  21.8703625  94.7454486 119.1166900
  13.9839310  79.2879844 119.7431767  14.1055221  78.3596491 119.9422655
  13.6941353  79.3018530 118.8310083  16.8530501  76.9734755 122.8798487
  16.8752197  77.0374088 121.9250467  17.2698560  76.1339264 123.0738993
  27.2314125  86.7090014 120.9177710  27.6745271  85.9597340 120.5196833
  26.3540635  86.7000151 120.5351442  22.3649906  93.2620356 116.3984308
  23.0600811  93.8827049 116.6171623  22.7073056  92.4115707 116.6736686
  24.2641329  90.7120061 117.9271639  24.7892653  91.0507334 117.2020959
  24.1763682  89.7767077 117.7434773  15.9481990  96.7792045 122.2866892
  15.5086980  96.2868423 122.9799749  16.6990107  96.2365012 122.0458967
  13.3955862  92.3230054 124.3589194  12.7735871  91.6600759 124.0591422
  14.0660729  92.3491186 123.6762841  23.9535235  91.3452965 133.2322837
  23.1630779  91.3277104 132.6927336  23.7168590  91.8841259 133.9871873
  24.0733110  88.1945431 130.5455565  24.1231115  88.0295439 131.4871088
  23.9647034  87.3272691 130.1553446  12.9569369  90.8733977 117.8347654
  13.1057489  91.5569442 117.1814327  13.7635813  90.8539067 118.3497110
  21.3636873  84.1776360 131.8614872  22.2646736  84.0382824 131.5698870
  21.4384847  84.3430814 132.8013050  15.6979678  81.5543214 130.7068058
  14.8282988  81.8476780 130.4350647  15.9339158  82.1383659 131.4275322
  25.5751307  90.6142373 130.7897587  25.2836116  90.9772354 131.6261048
  24.9623439  89.9009381 130.6110919  26.7746990  88.1795253 123.3100157
  27.6093881  88.6185057 123.4737717  26.9106118  87.7033906 122.4908403
  23.8238495  85.7374988 129.2577645  24.2992617  85.9302634 128.4496496
  22.9004061  85.7934173 129.0121029  10.7122002  86.8999155 118.8408723
  10.4668044  85.9961485 119.0388933  10.8817917  86.9016305 117.8988201
  18.4018712  77.7722831 128.2233479  18.9200656  78.5083858 127.8979967
  18.0473845  78.0786824 129.0580238   9.9817650  82.6327512 116.3394885
   9.2886895  82.7071867 115.6834921   9.7369402  81.8687856 116.8616402
  18.6531306  74.1923114 123.7434375  18.9333060  73.5246303 124.3694802
  19.4381913  74.3852209 123.2309039  16.4564775  93.3682108 115.3059402
  15.8838742  93.9872295 114.8529874  17.0297568  93.9181469 115.8399324
  22.5240164  82.6140748 127.4905950  23.4757587  82.7138845 127.5118175
  22.3543615  81.8219016 128.0004035  20.5454544  79.6996331 127.6765351
  19.9504476  79.9801344 126.9811840  20.2604241  80.1890232 128.4482093
  19.6762034  93.6519258 116.4367984  20.6092708  93.5864819 116.6400859
  19.5885247  94.4875525 115.9782517  22.3050051  92.9685128 113.3971932
  22.2263683  92.6344992 114.2907689  23.1259718  93.4606896 113.3963404
  25.0028242  85.8346867 126.6048250  24.9704562  84.8962868 126.7907934
  25.6128866  85.9130904 125.8714075  16.8411573  84.7042920 112.6475454
  17.7870678  84.5749128 112.7163872  16.4625818  83.9657582 113.1244882
  25.1522731  82.6257911 126.6506533  24.6361779  81.8416367 126.4636462
  26.0362679  82.2976627 126.8153053  22.8133458  76.3698926 122.6102346
  22.6158279  76.0614015 123.4945678  23.4233163  77.0960565 122.7400276
  30.8204792  86.8962874 125.7454287  31.5508181  86.6348162 126.3061990
  30.2111738  86.1591596 125.7856355  28.9020089  85.0370737 126.3428738
  28.1753253  84.9026702 125.7345230  28.4867376  85.3447565 127.1485456
  15.0254490  82.6292897 112.5830339  14.1185946  82.3326009 112.6593053
  15.3030471  82.3322715 111.7164626   5.9432431  83.9499260 123.0329386
   5.6235215  83.0964568 122.7403760   5.3965859  84.1647838 123.7887353
  16.6416556  77.1729786 118.7374581  15.8317284  76.8276871 119.1129827
  17.3300973  76.8637330 119.3262192  18.5707104  76.2507833 120.3598877
  19.1238143  76.6703287 121.0188900  18.8077191  75.3243581 120.4021833
  13.7953275  79.4879832 112.7242319  14.6572439  79.8134730 112.9838136
  13.9803619  78.7011328 112.2115384  21.9485911  78.3608358 119.8677542
  21.3684580  79.0193162 119.4855594  21.6821844  77.5385703 119.4564959
  20.3989478  77.7613416 122.0698862  20.8989256  77.8729951 121.2613181
  21.0425086  77.4574469 122.7099670   7.7257433  87.5020425 122.8788522
   7.7028121  87.6008113 121.9270405   8.0358070  88.3485576 123.2005688
  20.7310789  80.5208449 118.9233890  19.8436644  80.8058099 118.7054085
  21.1464778  80.3602212 118.0761167  24.0825326  80.5454970 122.6388229
  24.8585716  81.0351422 122.9112846  23.3573460  80.9713024 123.0960099
  26.5197884  81.2582589 123.6962170  27.1142375  81.0178325 122.9855478
  26.5924468  80.5389720 124.3235706  19.8754003  90.2853123 113.0181910
  20.5789853  90.4903126 113.6339565  19.1516652  90.8529885 113.2830993
  20.7051813  86.0362985 119.1384180  20.6487015  86.4931536 118.2991812
  21.2580156  85.2753669 118.9607023  24.5156619  81.8252717 119.9634300
  24.2593553  81.4249352 120.7942507  23.8909487  82.5396511 119.8384439
  28.8268957  84.5648790 122.4705591  28.2668515  84.6341979 123.2437153
  28.2212460  84.3889774 121.7505087  21.7840700  90.7235653 115.0680370
  22.6186304  90.2916851 114.8857845  21.6225043  90.5517666 115.9957264
  21.4386592  87.2267766 116.4336709  21.3835396  87.0612037 115.4925153
  20.8132648  87.9343799 116.5898899  14.7482718  76.7275875 116.0122028
  14.7361388  77.6717715 116.1690298  15.6406140  76.5446020 115.7181489
  14.6772282  95.4044765 124.0989784  13.7267913  95.4046627 123.9854157
  14.9804768  94.6577500 123.5825819  18.5634837  73.3218652 120.2667964
  17.7967233  72.7677138 120.4124647  18.9745542  73.3940520 121.1282116
  30.4124975 101.2405304 125.1635547  31.0503385 101.1212051 124.4598887
  30.2945818 102.1886148 125.2223499  27.2214682 101.1932732 125.0997071
  26.8833193 101.0773797 124.2117606  28.0904450 100.7923897 125.0798077
  23.0801497 103.0468208 121.0893962  22.5166362 102.9558145 120.3210250
  22.9653892 102.2268113 121.5696455  27.7034465 102.3467584 131.0583277
  27.6923105 101.9520382 130.1863781  27.8655104 101.6133656 131.6517048
  20.6265929 104.5419400 123.9278183  21.4187221 104.2010225 123.5124482
  20.8662579 104.6514375 124.8480336  28.6601056 106.7139176 116.4008427
  28.0089036 107.2993256 116.0142441  29.4545419 107.2445371 116.4603465
  22.5856683 103.8028313 116.7995562  23.3587559 103.2557300 116.6608437
  22.9382082 104.6672563 117.0110023  25.3497933 102.5081544 126.5963821
  25.9461505 102.2837566 125.8820783  25.4072904 101.7666289 127.1989268
  24.9222961  99.9620979 114.4314011  25.1748482  99.4402501 113.6697474
  23.9847520  99.7987125 114.5340695  29.9666244  98.9656758 122.2388755
  30.7529333  98.5476181 121.8879172  30.2304948  99.8702850 122.4070403
  30.1376321 104.4029608 116.9377412  29.5022154 104.4764234 117.6498316
  29.8073728 104.9923207 116.2596491  35.3674671  98.9031991 123.1421733
  36.0999843  98.3331208 123.3759563  34.6114027  98.5153591 123.5828239
  24.6419250 101.8649085 116.6338386  24.5255508 101.1893989 117.3019471
  24.7521510 101.3781459 115.8170539  26.9850791 101.3259232 120.3385076
  26.6208998 100.7989853 121.0497997  27.8417907 100.9357701 120.1651561
  32.8900091  92.6153565 127.6016342  32.5583416  93.4848976 127.3777557
  32.2945705  92.2989849 128.2810372  26.6256278  96.3549132 115.3346424
  26.7930680  97.2229368 115.7016895  26.4353447  96.5176414 114.4107713
  29.3831611 104.8166111 127.0012255  29.0832334 105.7191150 126.8928062
  29.0382670 104.5498294 127.8533407  22.8344092 101.2679908 123.0348959
  21.9094589 101.1356122 123.2426651  23.0828506 102.0474127 123.5318901
  32.7828755  97.3348651 124.6809692  31.8745632  97.2664060 124.3868453
  32.7316350  97.8120596 125.5091517  26.6045499  98.8106790 116.3193091
  26.4845124  99.2563840 117.1578571  25.9098087  99.1592107 115.7606629
  20.1952903 100.9113181 123.8692748  20.3245285 101.1647660 124.7832160
  19.5150355 101.5040889 123.5497403  24.3652391 111.5810431 119.9683222
  24.2876420 112.5318256 120.0471703  23.7614034 111.2356304 120.6258149
  26.8569620  98.7538297 132.6244589  26.0802954  99.3132217 132.6147454
  27.4960183  99.2395080 133.1459459  34.6490401  95.5365090 126.4587566
  34.0064781  95.8297623 125.8127360  34.1445330  95.4218010 127.2640762
  32.3030565  99.2828263 117.1473425  33.2148421  99.5155649 116.9721123
  31.7940212  99.8665307 116.5848504  30.5871332 103.7052891 130.7834718
  30.9954688 103.2635301 130.0389350  29.8648594 103.1305518 131.0368911
  26.9402402  98.6425497 128.1568275  27.7863598  99.0664911 128.3002924
  26.8801040  97.9859122 128.8506838  30.9100147 104.2654081 124.5387007
  30.2809009 104.4299795 123.8363074  30.5225809 104.6795691 125.3097971
  34.7889379 105.2008519 121.8931370  34.1040417 105.5807420 121.3428404
  34.8733228 105.8103846 122.6263318  30.0901848  96.3029866 129.8149448
  29.8462780  97.0571926 129.2783724  30.3661778  96.6815213 130.6496695
  32.0440311 102.8468478 128.4926714  32.2557206 103.4900238 127.8161095
  31.9970059 102.0130795 128.0248644  29.6466539  95.4586299 125.3963286
  28.7851019  95.7567552 125.6880024  29.6728974  95.6756698 124.4644319
  26.4628109 104.0028489 121.8037092  26.9266454 104.2816192 121.0141714
  26.1984907 103.1011934 121.6210182  23.3552190 103.5499971 124.7416855
  23.9253547 103.9787239 124.1034339  23.9460302 103.2682556 125.4401041
  25.3996995 100.1251642 118.6126657  26.1021038 100.5772685 119.0800583
  25.0677623  99.4835461 119.2406550  19.1422329  98.3835194 123.9143790
  18.3521383  98.6392723 123.4383901  19.6333576  99.1983532 124.0195831
  33.1586138 105.7240433 126.6649071  33.9803582 105.3220621 126.3831753
  33.1548541 105.6208668 127.6165187  21.0937074  98.7479774 120.8727267
  20.2968238  98.8598468 121.3910763  20.8662666  99.0866426 120.0068158
  41.2492132 102.0679182 123.0134043  40.4955840 101.4986580 122.8578047
  41.3839673 102.0341846 123.9604677  26.6390760 106.9392584 118.6888762
  26.5036434 107.7844120 119.1173610  27.1800572 107.1411862 117.9254696
  20.0920157 104.4568022 119.2616687  20.6044678 105.2511273 119.4122252
  20.7442870 103.7594313 119.1950289  21.9015042 107.5733779 121.3439440
  22.0781670 108.4951743 121.1560424  22.6971875 107.2592198 121.7733820
  26.0426060  94.4342043 132.9423374  26.7835774  95.0349196 132.8627836
  26.2743983  93.6919681 132.3841416  30.3640474 107.8418951 130.8470505
  30.3458949 108.6627832 130.3550774  31.2860394 107.7173026 131.0720646
  29.9883223  90.4623146 127.2187655  29.6447493  91.3524788 127.1426766
  30.3562186  90.2724804 126.3557240  18.0569074 102.7856677 120.0376258
  18.8944296 103.1953685 119.8209965  18.2347341 101.8456119 120.0076451
  29.9533506 100.4531757 115.7260091  29.4380129 101.2236362 115.9648478
  29.6810814  99.7796893 116.3493152  27.5380617  95.2981458 120.7845329
  26.6822213  94.9088308 120.6050968  27.9507569  95.3773419 119.9245114
  29.0679764  92.8327801 125.1836889  28.5644559  92.7957936 124.3704694
  29.3610370  93.7420544 125.2433545  25.3122649  92.9166531 124.1903070
  26.1775646  92.7209340 123.8308960  25.3800158  92.6876883 125.1172427
  34.9267780 103.2064112 117.6613264  34.1497223 102.8675271 117.2168426
  35.6059261 103.2116735 116.9868229  29.7419809  98.3258849 117.5519872
  29.4369945  98.6404999 118.4030015  30.6950251  98.4040269 117.5947205
  28.1866241 104.4849073 119.2012826  27.6587602 103.7501832 118.8886063
  27.6853744 105.2623749 118.9552794  33.1659087 102.6798093 124.3179872
  32.5082761 103.3697355 124.4060001  33.9699486 103.0694525 124.6613858
  22.9184968  95.1468739 121.5619437  23.4928720  94.9243920 120.8292630
  23.5055951  95.2157433 122.3148039  31.9764546 101.0342466 122.3683814
  32.4896427 101.6672458 122.8705523  32.6265770 100.4343661 122.0027174
  23.2454556  97.1773200 115.5815322  22.4091868  97.5147887 115.9024597
  23.1059325  97.0422180 114.6442459  25.2207636  92.0209988 120.2894507
  24.5672049  91.7059005 119.6651121  25.1788110  91.3985728 121.0154330
  26.3318841 102.3029283 112.2047799  25.4245903 102.0718536 112.4038948
  26.8289873 101.5066902 112.3921780  29.2386920 111.0126790 115.1244485
  28.5648619 111.3158487 115.7329443  29.6252742 111.8155870 114.7749942
  28.4545377  98.5091921 124.6142154  27.5367938  98.7306868 124.4563842
  28.8705520  98.5838232 123.7553862  29.2380424  99.9083337 119.7444835
  29.9852243 100.4204734 119.4351957  29.5072014  99.5867390 120.6049228
  27.5107074 102.4041878 116.7271789  26.6018294 102.1200911 116.8244259
  27.5402158 102.8240956 115.8675096  32.7426342 106.0148467 120.4962956
  32.2888669 105.1739377 120.5528147  32.1120309 106.6509866 120.8337737
  31.6859261  96.9440453 121.7263624  30.9482018  96.4317840 122.0573866
  31.9386035  96.5040835 120.9146901  31.1859281 107.8524964 121.4312775
  31.4782256 108.4130021 120.7125140  31.6957902 108.1453525 122.1865934
  31.7870889  89.7216705 122.3205393  32.0929766  88.8614069 122.0331308
  32.5123494  90.3134326 122.1204387  18.0795245 100.1247392 120.7086991
  17.8819645  99.5316753 119.9838058  17.5241909  99.8199602 121.4262930
  26.0591969 100.0170498 122.8281584  26.1140578  99.0644335 122.7524061
  25.2483171 100.1729937 123.3122883  27.2083162 103.9450621 114.0659867
  26.7702592 103.2286480 113.6065505  27.9493603 104.1726736 113.5044959
  23.9984328  98.6347558 120.5871963  23.1852194  98.9341729 120.9937155
  24.4943323  98.2403247 121.3046445  26.1492906 108.6305315 122.5206228
  26.1069085 108.8566161 121.5914760  27.0655605 108.3968690 122.6692029
  29.5958540  99.0989383 129.4186857  29.9507928  99.3260856 130.2781323
  30.2430671  99.4307759 128.7964112  35.3256277 102.2207819 120.1236186
  35.1874176 102.4109414 119.1957375  34.9692496 102.9827201 120.5804237
  23.4898403  96.2065914 126.2033198  24.1297783  96.0654673 125.5056161
  22.6575934  95.9200427 125.8271800  35.3525657 104.2884346 125.1347457
  35.7862163 104.1959635 125.9830512  36.0657237 104.2641846 124.4967473
  24.2658707 105.5068344 122.3168190  25.0599306 105.0118664 122.1150765
  23.5550400 104.9786207 121.9535896  29.0853552 107.8886440 126.6680558
  29.1390574 108.4577376 127.4358274  28.2168333 108.0588325 126.3034595
  20.5741471  99.6511426 118.3927943  19.6439059  99.5895881 118.6097905
  20.6698943  99.1287379 117.5964584  20.4927020  96.1766239 120.9806185
  20.7533837  97.0911572 120.8715345  21.3144192  95.7090681 121.1302798
  21.9651945  97.5903996 128.1505009  22.6374998  97.3821358 127.5017658
  21.1381731  97.3926082 127.7110242  36.2141206 104.3308046 127.6680343
  36.4077096 105.2353857 127.9139618  36.1141824 103.8715465 128.5018928
  27.8677517  94.2165937 130.1670670  27.2205432  94.9155886 130.0735147
  28.6378532  94.6502081 130.5346918  31.2756315 104.4814789 133.2421223
  31.1241821 104.2525341 132.3251307  31.2660994 105.4385390 133.2552569
  28.0441651 102.0546702 128.2267490  28.9733711 102.2057861 128.0536457
  27.6232681 102.1430722 127.3716136  26.8429983 106.0797366 125.9966028
  26.7041069 105.7116150 126.8691966  26.0544579 106.5945006 125.8249985
  27.4378135 111.1806463 117.3391564  27.6129891 110.7094506 118.1537187
  26.7510923 111.8072229 117.5672825  28.3935198 105.4578969 123.3854865
  28.0585031 105.4179739 124.2812515  27.8939144 104.7923685 122.9125276
  31.3294390 102.8035003 113.6591925  30.7123561 102.0781831 113.5624978
  30.8610878 103.5644363 113.3158999  24.9961743 100.5766558 128.3991126
  25.7061361  99.9359750 128.3577745  24.9531051 100.8279453 129.3217307
  32.9848522 107.5133911 131.3197705  32.9261068 106.8293132 130.6528288
  33.3868040 108.2552901 130.8678331  23.7090677  97.5631776 130.2186766
  23.1728034  97.1122514 130.8708362  23.1207385  97.6977685 129.4757230
  23.1192936  97.0220427 112.7813229  22.2422402  96.9009228 112.4175476
  23.5950689  96.2306506 112.5292118  32.9865929 105.4773495 129.5511685
  32.0992708 105.1399417 129.6738084  33.5564480 104.7456527 129.7880450
  19.4429798  96.6987784 127.3039760  19.3587987  96.0913453 126.5690170
  18.6212505  97.1896802 127.3049256  26.3056862 109.3746718 120.0275750
  25.5224384 109.9168398 120.1213974  27.0049607 109.8920697 120.4269991
  29.6153512  95.1841347 122.6709955  30.1122212  94.4311310 122.3511025
  28.8440493  95.2205664 122.1053164  37.4683269 100.8881713 124.3128247
  37.4573146 101.7706428 123.9422180  36.6000649 100.5353264 124.1182784
  28.9765766 110.0361782 128.6731087  29.6893738 110.6709247 128.6006988
  28.4855794 110.1325648 127.8571089  30.6983293 103.9413034 120.2448379
  29.7639571 104.0614497 120.0753083  30.8759961 103.0385501 119.9808388
  26.1988481  97.3258730 122.3981640  25.8286268  96.7729771 123.0862545
  26.6947573  96.7216864 121.8456640  34.0855844  99.7830354 120.7798413
  34.5516296 100.6158345 120.7058715  34.5363345  99.3175335 121.4843671
  32.1532075 106.1274175 117.7784565  32.4291919 106.0130770 118.6878439
  31.2836574 105.7291660 117.7396738  32.0572507  92.1510941 124.8189314
  31.1435587  92.3815168 124.9871521  32.4865608  92.2349385 125.6703346
  31.8278965 100.3400833 127.3189208  31.1750415 100.5876740 126.6641661
  32.2059345  99.5264971 126.9851685  28.7886139 110.3760526 121.4217378
  28.9708534 109.5582182 121.8845131  29.6119125 110.5928218 120.9842268
  29.1228305 109.3028711 118.6832427  29.6516071 108.7921166 118.0702589
  29.3856524 108.9871241 119.5477960  22.4784053 110.3543828 121.4430203
  21.8094428 110.8389955 120.9594243  22.3396922 110.6013048 122.3573581
  21.5953814  94.7362721 128.6434746  21.6595141  95.5977552 128.2312144
  21.5320935  94.1236723 127.9107104  17.8471630  98.6162283 118.2226135
  18.1425071  97.7072961 118.1693189  16.9459665  98.5950022 117.9007137
  29.7557708 110.3369547 125.0276543  29.6308848 109.5359287 124.5187489
  30.4136800 110.8315740 124.5390513  21.3765877  96.6918279 124.2053684
  20.6552462  97.3054247 124.0661157  22.1659132  97.2276044 124.1270329
  31.8192617 108.1378567 126.6556093  30.8722952 108.0183918 126.5834420
  32.1675390 107.2501065 126.7382355  24.1792190  94.0272706 130.4794335
  24.7026592  94.2735002 131.2420645  23.9604523  94.8592741 130.0597473
  19.5759471  96.2976380 118.3465460  19.2472177  95.4173759 118.1640566
  19.9298842  96.2424049 119.2341849  28.8239050 107.9331283 122.8560446
  28.6764013 107.0047990 123.0368016  29.6492544 107.9551374 122.3717521
  22.6901294  96.5849350 118.7140938  23.0297367  97.1135271 117.9919546
  23.1373415  96.9229756 119.4899504  32.4273172 108.7559842 123.9425318
  33.3519719 108.5502703 123.8049770  32.2588475 108.5076243 124.8514660
  25.3844735  94.9686401 128.1644006  25.0441556  94.1694214 128.5664686
  24.6783742  95.2688112 127.5920839  26.0361207  92.0535713 126.6171329
  26.8587276  91.5796191 126.4950219  26.2799271  92.8326197 127.1170015
  24.6769442  95.0823972 116.9134231  25.3977804  95.4605224 116.4097947
  24.0534746  95.8012849 117.0169208  28.8200564  95.7869121 117.8492563
  29.0364179  96.6693759 117.5481391  28.3394632  95.3955334 117.1198205
  23.5599786  98.7454834 124.4263307  23.4144367  99.0595137 125.3187589
  23.0824989  99.3639734 123.8734206  25.4196169  95.7357382 124.4744197
  25.4057737  94.8398475 124.1376495  26.1368597  95.7428046 125.1082483
  27.2722299  96.1694722 126.5197324  27.0140077  97.0911793 126.5181655
  26.7407340  95.7725157 127.2097789  32.2168488 109.2745509 119.2987410
  32.3905366 108.7091932 118.5461262  32.7097379 110.0746404 119.1166900
  24.8233065  94.6171762 119.7431767  24.9448976  93.6888408 119.9422655
  24.5335107  94.6310448 118.8310083  27.6924255  92.3026673 122.8798487
  27.7145952  92.3666006 121.9250467  28.1092314  91.4631181 123.0738993
  38.0707879 102.0381932 120.9177710  38.5139025 101.2889257 120.5196833
  37.1934390 102.0292069 120.5351442  33.2043661 108.5912274 116.3984308
  33.8994565 109.2118966 116.6171623  33.5466811 107.7407625 116.6736686
  35.1035084 106.0411979 117.9271639  35.6286408 106.3799252 117.2020959
  35.0157436 105.1058994 117.7434773  26.7875745 112.1083962 122.2866892
  26.3480735 111.6160341 122.9799749  27.5383861 111.5656930 122.0458967
  24.2349617 107.6521972 124.3589194  23.6129626 106.9892677 124.0591422
  24.9054484 107.6783103 123.6762841  34.7928990 106.6744883 133.2322837
  34.0024534 106.6569022 132.6927336  34.5562344 107.2133176 133.9871873
  34.9126865 103.5237349 130.5455565  34.9624870 103.3587357 131.4871088
  34.8040788 102.6564608 130.1553446  23.7963124 106.2025895 117.8347654
  23.9451244 106.8861359 117.1814327  24.6029567 106.1830985 118.3497110
  32.2030627  99.5068277 131.8614872  33.1040490  99.3674742 131.5698870
  32.2778602  99.6722732 132.8013050  26.5373433  96.8835132 130.7068058
  25.6676742  97.1768698 130.4350647  26.7732913  97.4675577 131.4275322
  36.4145062 105.9434291 130.7897587  36.1229870 106.3064271 131.6261048
  35.8017193 105.2301299 130.6110919  37.6140744 103.5087170 123.3100157
  38.4487635 103.9476975 123.4737717  37.7499873 103.0325824 122.4908403
  34.6632250 101.0666905 129.2577645  35.1386372 101.2594552 128.4496496
  33.7397815 101.1226091 129.0121029  21.5515757 102.2291072 118.8408723
  21.3061799 101.3253402 119.0388933  21.7211671 102.2308223 117.8988201
  29.2412466  93.1014749 128.2233479  29.7594410  93.8375776 127.8979967
  28.8867599  93.4078742 129.0580238  20.8211404  97.9619430 116.3394885
  20.1280649  98.0363785 115.6834921  20.5763156  97.1979774 116.8616402
  29.4925061  89.5215031 123.7434375  29.7726814  88.8538220 124.3694802
  30.2775668  89.7144127 123.2309039  27.2958529 108.6974025 115.3059402
  26.7232496 109.3164212 114.8529874  27.8691323 109.2473387 115.8399324
  33.3633919  97.9432665 127.4905950  34.3151342  98.0430763 127.5118175
  33.1937369  97.1510934 128.0004035  31.3848298  95.0288249 127.6765351
  30.7898231  95.3093261 126.9811840  31.0997995  95.5182150 128.4482093
  30.5155789 108.9811175 116.4367984  31.4486462 108.9156737 116.6400859
  30.4279002 109.8167442 115.9782517  33.1443806 108.2977046 113.3971932
  33.0657437 107.9636909 114.2907689  33.9653472 108.7898814 113.3963404
  35.8421997 101.1638785 126.6048250  35.8098317 100.2254786 126.7907934
  36.4522620 101.2422822 125.8714075  27.6805328 100.0334838 112.6475454
  28.6264432  99.9041046 112.7163872  27.3019573  99.2949500 113.1244882
  35.9916485  97.9549829 126.6506533  35.4755534  97.1708285 126.4636462
  36.8756434  97.6268545 126.8153053  33.6527212  91.6990844 122.6102346
  33.4552033  91.3905932 123.4945678  34.2626918  92.4252483 122.7400276
  41.6598547 102.2254792 125.7454287  42.3901935 101.9640080 126.3061990
  41.0505492 101.4883514 125.7856355  39.7413844 100.3662655 126.3428738
  39.0147007 100.2318619 125.7345230  39.3261131 100.6739483 127.1485456
  25.8648245  97.9584814 112.5830339  24.9579700  97.6617927 112.6593053
  26.1424226  97.6614633 111.7164626  16.7826185  99.2791178 123.0329386
  16.4628969  98.4256486 122.7403760  16.2359613  99.4939756 123.7887353
  27.4810310  92.5021704 118.7374581  26.6711039  92.1568789 119.1129827
  28.1694727  92.1929248 119.3262192  29.4100859  91.5799751 120.3598877
  29.9631897  91.9995204 121.0188900  29.6470945  90.6535499 120.4021833
  24.6347029  94.8171750 112.7242319  25.4966193  95.1426648 112.9838136
  24.8197374  94.0303246 112.2115384  32.7879666  93.6900276 119.8677542
  32.2078335  94.3485080 119.4855594  32.5215599  92.8677621 119.4564959
  31.2383232  93.0905334 122.0698862  31.7383011  93.2021868 121.2613181
  31.8818840  92.7866387 122.7099670  18.5651188 102.8312343 122.8788522
  18.5421876 102.9300030 121.9270405  18.8751824 103.6777494 123.2005688
  31.5704544  95.8500367 118.9233890  30.6830399  96.1350017 118.7054085
  31.9858533  95.6894130 118.0761167  34.9219080  95.8746887 122.6388229
  35.6979470  96.3643340 122.9112846  34.1967214  96.3004942 123.0960099
  37.3591639  96.5874507 123.6962170  37.9536129  96.3470243 122.9855478
  37.4318222  95.8681637 124.3235706  30.7147757 105.6145041 113.0181910
  31.4183607 105.8195044 113.6339565  29.9910406 106.1821803 113.2830993
  31.5445568 101.3654902 119.1384180  31.4880769 101.8223454 118.2991812
  32.0973910 100.6045587 118.9607023  35.3550374  97.1544634 119.9634300
  35.0987308  96.7541270 120.7942507  34.7303242  97.8688428 119.8384439
  39.6662711  99.8940708 122.4705591  39.1062269  99.9633897 123.2437153
  39.0606215  99.7181692 121.7505087  32.6234455 106.0527570 115.0680370
  33.4580059 105.6208769 114.8857845  32.4618798 105.8809584 115.9957264
  32.2780347 102.5559684 116.4336709  32.2229151 102.3903955 115.4925153
  31.6526402 103.2635717 116.5898899  25.5876472  92.0567793 116.0122028
  25.5755142  93.0009633 116.1690298  26.4799894  91.8737938 115.7181489
  25.5166036 110.7336683 124.0989784  24.5661667 110.7338545 123.9854157
  25.8198523 109.9869418 123.5825819  29.4028592  88.6510569 120.2667964
  28.6360988  88.0969056 120.4124647  29.8139297  88.7232438 121.1282116
  41.2518730 116.5697221 125.1635547  41.8897140 116.4503969 124.4598887
  41.1339573 117.5178065 125.2223499  38.0608436 116.5224650 125.0997071
  37.7226948 116.4065714 124.2117606  38.9298204 116.1215815 125.0798077
  33.9195252 118.3760126 121.0893962  33.3560117 118.2850063 120.3210250
  33.8047647 117.5560030 121.5696455  38.5428219 117.6759501 131.0583277
  38.5316860 117.2812300 130.1863781  38.7048859 116.9425574 131.6517048
  31.4659684 119.8711318 123.9278183  32.2580976 119.5302142 123.5124482
  31.7056334 119.9806293 124.8480336  39.4994811 122.0431094 116.4008427
  38.8482790 122.6285174 116.0142441  40.2939173 122.5737289 116.4603465
  33.4250438 119.1320231 116.7995562  34.1981314 118.5849218 116.6608437
  33.7775837 119.9964480 117.0110023  36.1891687 117.8373462 126.5963821
  36.7855259 117.6129484 125.8820783  36.2466659 117.0958207 127.1989268
  35.7616716 115.2912897 114.4314011  36.0142236 114.7694418 113.6697474
  34.8241275 115.1279042 114.5340695  40.8059998 114.2948675 122.2388755
  41.5923088 113.8768099 121.8879172  41.0698703 115.1994768 122.4070403
  40.9770076 119.7321526 116.9377412  40.3415909 119.8056152 117.6498316
  40.6467482 120.3215124 116.2596491  46.2068425 114.2323909 123.1421733
  46.9393597 113.6623125 123.3759563  45.4507781 113.8445509 123.5828239
  35.4813004 117.1941003 116.6338386  35.3649262 116.5185906 117.3019471
  35.5915264 116.7073377 115.8170539  37.8244545 116.6551150 120.3385076
  37.4602752 116.1281771 121.0497997  38.6811661 116.2649619 120.1651561
  43.7293846 107.9445483 127.6016342  43.3977171 108.8140894 127.3777557
  43.1339459 107.6281767 128.2810372  37.4650032 111.6841050 115.3346424
  37.6324435 112.5521286 115.7016895  37.2747201 111.8468331 114.4107713
  40.2225365 120.1458029 127.0012255  39.9226088 121.0483067 126.8928062
  39.8776425 119.8790212 127.8533407  33.6737847 116.5971825 123.0348959
  32.7488343 116.4648040 123.2426651  33.9222260 117.3766045 123.5318901
  43.6222509 112.6640569 124.6809692  42.7139386 112.5955977 124.3868453
  43.5710105 113.1412514 125.5091517  37.4439253 114.1398707 116.3193091
  37.3238878 114.5855758 117.1578571  36.7491841 114.4884025 115.7606629
  31.0346658 116.2405099 123.8692748  31.1639039 116.4939578 124.7832160
  30.3544109 116.8332807 123.5497403  35.2046145 126.9102349 119.9683222
  35.1270175 127.8610174 120.0471703  34.6007789 126.5648221 120.6258149
  37.6963375 114.0830214 132.6244589  36.9196709 114.6424135 132.6147454
  38.3353938 114.5686997 133.1459459  45.4884156 110.8657007 126.4587566
  44.8458536 111.1589540 125.8127360  44.9839084 110.7509928 127.2640762
  43.1424319 114.6120180 117.1473425  44.0542175 114.8447567 116.9721123
  42.6333966 115.1957225 116.5848504  41.4265087 119.0344808 130.7834718
  41.8348443 118.5927219 130.0389350  40.7042348 118.4597436 131.0368911
  37.7796157 113.9717415 128.1568275  38.6257352 114.3956829 128.3002924
  37.7194795 113.3151039 128.8506838  41.7493902 119.5945999 124.5387007
  41.1202764 119.7591713 123.8363074  41.3619564 120.0087608 125.3097971
  45.6283133 120.5300437 121.8931370  44.9434172 120.9099338 121.3428404
  45.7126983 121.1395763 122.6263318  40.9295602 111.6321783 129.8149448
  40.6856534 112.3863844 129.2783724  41.2055533 112.0107131 130.6496695
  42.8834065 118.1760396 128.4926714  43.0950960 118.8192156 127.8161095
  42.8363813 117.3422712 128.0248644  40.4860294 110.7878216 125.3963286
  39.6244773 111.0859470 125.6880024  40.5122729 111.0048615 124.4644319
  37.3021863 119.3320407 121.8037092  37.7660209 119.6108110 121.0141714
  37.0378661 118.4303852 121.6210182  34.1945944 118.8791888 124.7416855
  34.7647302 119.3079157 124.1034339  34.7854056 118.5974473 125.4401041
  36.2390749 115.4543559 118.6126657  36.9414793 115.9064603 119.0800583
  35.9071378 114.8127378 119.2406550  29.9816083 113.7127112 123.9143790
  29.1915137 113.9684641 123.4383901  30.4727331 114.5275450 124.0195831
  43.9979893 121.0532351 126.6649071  44.8197337 120.6512538 126.3831753
  43.9942296 120.9500585 127.6165187  31.9330829 114.0771691 120.8727267
  31.1361992 114.1890385 121.3910763  31.7056421 114.4158343 120.0068158
  52.0885886 117.3971100 123.0134043  51.3349594 116.8278498 122.8578047
  52.2233427 117.3633764 123.9604677  37.4784514 122.2684502 118.6888762
  37.3430189 123.1136038 119.1173610  38.0194327 122.4703780 117.9254696
  30.9313911 119.7859940 119.2616687  31.4438432 120.5803190 119.4122252
  31.5836624 119.0886230 119.1950289  32.7408796 122.9025696 121.3439440
  32.9175424 123.8243661 121.1560424  33.5365630 122.5884115 121.7733820
  36.8819815 109.7633961 132.9423374  37.6229528 110.3641114 132.8627836
  37.1137738 109.0211599 132.3841416  41.2034229 123.1710868 130.8470505
  41.1852704 123.9919749 130.3550774  42.1254149 123.0464944 131.0720646
  40.8276978 105.7915064 127.2187655  40.4841247 106.6816706 127.1426766
  41.1955940 105.6016721 126.3557240  28.8962828 118.1148594 120.0376258
  29.7338050 118.5245603 119.8209965  29.0741096 117.1748036 120.0076451
  40.7927260 115.7823675 115.7260091  40.2773884 116.5528280 115.9648478
  40.5204569 115.1088811 116.3493152  38.3774371 110.6273376 120.7845329
  37.5215968 110.2380226 120.6050968  38.7901323 110.7065337 119.9245114
  39.9073518 108.1619719 125.1836889  39.4038314 108.1249854 124.3704694
  40.2004125 109.0712462 125.2433545  36.1516404 108.2458449 124.1903070
  37.0169401 108.0501257 123.8308960  36.2193913 108.0168800 125.1172427
  45.7661534 118.5356030 117.6613264  44.9890977 118.1967189 117.2168426
  46.4453015 118.5408653 116.9868229  40.5813564 113.6550767 117.5519872
  40.2763699 113.9696916 118.4030015  41.5344006 113.7332187 117.5947205
  39.0259995 119.8140990 119.2012826  38.4981357 119.0793750 118.8886063
  38.5247498 120.5915667 118.9552794  44.0052841 118.0090011 124.3179872
  43.3476516 118.6989272 124.4060001  44.8093241 118.3986443 124.6613858
  33.7578723 110.4760657 121.5619437  34.3322475 110.2535838 120.8292630
  34.3449705 110.5449351 122.3148039  42.8158300 116.3634384 122.3683814
  43.3290182 116.9964375 122.8705523  43.4659524 115.7635579 122.0027174
  34.0848310 112.5065118 115.5815322  33.2485622 112.8439804 115.9024597
  33.9453080 112.3714097 114.6442459  36.0601391 107.3501906 120.2894507
  35.4065803 107.0350923 119.6651121  36.0181865 106.7277646 121.0154330
  37.1712596 117.6321201 112.2047799  36.2639657 117.4010454 112.4038948
  37.6683628 116.8358820 112.3921780  40.0780674 126.3418708 115.1244485
  39.4042373 126.6450405 115.7329443  40.4646496 127.1447788 114.7749942
  39.2939131 113.8383839 124.6142154  38.3761692 114.0598786 124.4563842
  39.7099275 113.9130150 123.7553862  40.0774179 115.2375255 119.7444835
  40.8245998 115.7496652 119.4351957  40.3465768 114.9159307 120.6049228
  38.3500829 117.7333795 116.7271789  37.4412048 117.4492828 116.8244259
  38.3795913 118.1532874 115.8675096  43.5820096 121.3440385 120.4962956
  43.1282424 120.5031295 120.5528147  42.9514063 121.9801783 120.8337737
  42.5253016 112.2732371 121.7263624  41.7875773 111.7609757 122.0573866
  42.7779789 111.8332753 120.9146901  42.0253036 123.1816882 121.4312775
  42.3176010 123.7421939 120.7125140  42.5351656 123.4745443 122.1865934
  42.6264643 105.0508623 122.3205393  42.9323520 104.1905986 122.0331308
  43.3517248 105.6426243 122.1204387  28.9188999 115.4539310 120.7086991
  28.7213399 114.8608670 119.9838058  28.3635663 115.1491520 121.4262930
  36.8985723 115.3462416 122.8281584  36.9534333 114.3936252 122.7524061
  36.0876925 115.5021855 123.3122883  38.0476917 119.2742539 114.0659867
  37.6096347 118.5578398 113.6065505  38.7887358 119.5018654 113.5044959
  34.8378083 113.9639476 120.5871963  34.0245948 114.2633646 120.9937155
  35.3337077 113.5695165 121.3046445  36.9886661 123.9597233 122.5206228
  36.9462840 124.1858079 121.5914760  37.9049360 123.7260607 122.6692029
  40.4352295 114.4281300 129.4186857  40.7901682 114.6552773 130.2781323
  41.0824426 114.7599677 128.7964112  46.1650032 117.5499736 120.1236186
  46.0267930 117.7401332 119.1957375  45.8086250 118.3119119 120.5804237
  34.3292158 111.5357831 126.2033198  34.9691537 111.3946590 125.5056161
  33.4969688 111.2492345 125.8271800  46.1919411 119.6176263 125.1347457
  46.6255918 119.5251552 125.9830512  46.9050992 119.5933764 124.4967473
  35.1052462 120.8360262 122.3168190  35.8993060 120.3410582 122.1150765
  34.3944154 120.3078125 121.9535896  39.9247306 123.2178357 126.6680558
  39.9784328 123.7869294 127.4358274  39.0562087 123.3880242 126.3034595
  31.4135225 114.9803344 118.3927943  30.4832813 114.9187799 118.6097905
  31.5092697 114.4579296 117.5964584  31.3320774 111.5058156 120.9806185
  31.5927591 112.4203490 120.8715345  32.1537946 111.0382599 121.1302798
  32.8045699 112.9195914 128.1505009  33.4768753 112.7113276 127.5017658
  31.9775486 112.7217999 127.7110242  47.0534961 119.6599964 127.6680343
  47.2470851 120.5645774 127.9139618  46.9535579 119.2007383 128.5018928
  38.7071271 109.5457854 130.1670670  38.0599187 110.2447804 130.0735147
  39.4772287 109.9793998 130.5346918  42.1150069 119.8106707 133.2421223
  41.9635576 119.5817258 132.3251307  42.1054749 120.7677308 133.2552569
  38.8835406 117.3838619 128.2267490  39.8127466 117.5349779 128.0536457
  38.4626436 117.4722640 127.3716136  37.6823738 121.4089284 125.9966028
  37.5434823 121.0408068 126.8691966  36.8938334 121.9236923 125.8249985
  38.2771890 126.5098380 117.3391564  38.4523645 126.0386423 118.1537187
  37.5904678 127.1364146 117.5672825  39.2328953 120.7870886 123.3854865
  38.8978785 120.7471656 124.2812515  38.7332898 120.1215602 122.9125276
  42.1688144 118.1326921 113.6591925  41.5517315 117.4073749 113.5624978
  41.7004633 118.8936281 113.3158999  35.8355497 115.9058476 128.3991126
  36.5455116 115.2651668 128.3577745  35.7924806 116.1571371 129.3217307
  43.8242276 122.8425829 131.3197705  43.7654822 122.1585049 130.6528288
  44.2261794 123.5844819 130.8678331  34.5484431 112.8923694 130.2186766
  34.0121788 112.4414432 130.8708362  33.9601140 113.0269603 129.4757230
  33.9586690 112.3512345 112.7813229  33.0816157 112.2301146 112.4175476
  34.4344443 111.5598423 112.5292118  43.8259683 120.8065413 129.5511685
  42.9386462 120.4691335 129.6738084  44.3958234 120.0748444 129.7880450
  30.2823553 112.0279701 127.3039760  30.1981741 111.4205371 126.5690170
  29.4606259 112.5188720 127.3049256  37.1450616 124.7038635 120.0275750
  36.3618138 125.2460316 120.1213974  37.8443362 125.2212615 120.4269991
  40.4547266 110.5133265 122.6709955  40.9515966 109.7603227 122.3511025
  39.6834248 110.5497582 122.1053164  48.3077024 116.2173630 124.3128247
  48.2966900 117.0998346 123.9422180  47.4394403 115.8645181 124.1182784
  39.8159520 125.3653699 128.6731087  40.5287492 126.0001164 128.6006988
  39.3249549 125.4617565 127.8571089  41.5377047 119.2704952 120.2448379
  40.6033326 119.3906415 120.0753083  41.7153716 118.3677419 119.9808388
  37.0382235 112.6550648 122.3981640  36.6680023 112.1021688 123.0862545
  37.5341328 112.0508781 121.8456640  44.9249598 115.1122271 120.7798413
  45.3910051 115.9450263 120.7058715  45.3757099 114.6467253 121.4843671
  42.9925830 121.4566093 117.7784565  43.2685674 121.3422687 118.6878439
  42.1230328 121.0583578 117.7396738  42.8966261 107.4802858 124.8189314
  41.9829341 107.7107085 124.9871521  43.3259363 107.5641302 125.6703346
  42.6672720 115.6692750 127.3189208  42.0144170 115.9168658 126.6641661
  43.0453100 114.8556889 126.9851685  39.6279894 125.7052444 121.4217378
  39.8102288 124.8874099 121.8845131  40.4512880 125.9220136 120.9842268
  39.9622059 124.6320629 118.6832427  40.4909826 124.1213083 118.0702589
  40.2250279 124.3163159 119.5477960  33.3177807 125.6835745 121.4430203
  32.6488182 126.1681873 120.9594243  33.1790677 125.9304966 122.3573581
  32.4347569 110.0654639 128.6434746  32.4988895 110.9269470 128.2312144
  32.3714689 109.4528640 127.9107104  28.6865384 113.9454200 118.2226135
  28.9818825 113.0364879 118.1693189  27.7853420 113.9241940 117.9007137
  40.5951463 125.6661464 125.0276543  40.4702602 124.8651204 124.5187489
  41.2530554 126.1607658 124.5390513  32.2159631 112.0210197 124.2053684
  31.4946217 112.6346165 124.0661157  33.0052887 112.5567962 124.1270329
  42.6586371 123.4670484 126.6556093  41.7116707 123.3475836 126.5834420
  43.0069144 122.5792983 126.7382355  35.0185945 109.3564623 130.4794335
  35.5420346 109.6026920 131.2420645  34.7998278 110.1884658 130.0597473
  30.4153226 111.6268298 118.3465460  30.0865932 110.7465677 118.1640566
  30.7692596 111.5715967 119.2341849  39.6632805 123.2623201 122.8560446
  39.5157767 122.3339908 123.0368016  40.4886298 123.2843291 122.3717521
  33.5295049 111.9141268 118.7140938  33.8691121 112.4427189 117.9919546
  33.9767169 112.2521674 119.4899504  43.2666926 124.0851759 123.9425318
  44.1913474 123.8794621 123.8049770  43.0982230 123.8368161 124.8514660
  36.2238490 110.2978319 128.1644006  35.8835310 109.4986132 128.5664686
  35.5177496 110.5980029 127.5920839  36.8754962 107.3827631 126.6171329
  37.6981031 106.9088109 126.4950219  37.1193025 108.1618115 127.1170015
  35.5163196 110.4115889 116.9134231  36.2371559 110.7897142 116.4097947
  34.8928500 111.1304766 117.0169208  39.6594319 111.1161038 117.8492563
  39.8757933 111.9985676 117.5481391  39.1788386 110.7247252 117.1198205
  34.3993540 114.0746752 124.4263307  34.2538121 114.3887055 125.3187589
  33.9218744 114.6931652 123.8734206  36.2589923 111.0649300 124.4744197
  36.2451492 110.1690393 124.1376495  36.9762351 111.0719963 125.1082483
  38.1116054 111.4986640 126.5197324  37.8533832 112.4203710 126.5181655
  37.5801094 111.1017074 127.2097789  43.0562243 124.6037427 119.2987410
  43.2299120 124.0383849 118.5461262  43.5491134 125.4038322 119.1166900
  35.6626819 109.9463680 119.7431767  35.7842730 109.0180326 119.9422655
  35.3728861 109.9602366 118.8310083  38.5318010 107.6318590 122.8798487
  38.5539706 107.6957923 121.9250467  38.9486069 106.7923099 123.0738993
  48.9101634 117.3673850 120.9177710  49.3532780 116.6181175 120.5196833
  48.0328144 117.3583986 120.5351442  44.0437415 123.9204191 116.3984308
  44.7388320 124.5410884 116.6171623  44.3860565 123.0699543 116.6736686
  45.9428838 121.3703897 117.9271639  46.4680162 121.7091170 117.2020959
  45.8551191 120.4350912 117.7434773  37.6269499 127.4375880 122.2866892
  37.1874489 126.9452259 122.9799749  38.3777616 126.8948848 122.0458967
  35.0743371 122.9813889 124.3589194  34.4523380 122.3184594 124.0591422
  35.7448238 123.0075021 123.6762841  45.6322744 122.0036800 133.2322837
  44.8418288 121.9860939 132.6927336  45.3956099 122.5425094 133.9871873
  45.7520619 118.8529267 130.5455565  45.8018624 118.6879274 131.4871088
  45.6434543 117.9856526 130.1553446  34.6356878 121.5317813 117.8347654
  34.7844998 122.2153277 117.1814327  35.4423322 121.5122903 118.3497110
  43.0424382 114.8360195 131.8614872  43.9434245 114.6966660 131.5698870
  43.1172356 115.0014650 132.8013050  37.3767187 112.2127050 130.7068058
  36.5070497 112.5060616 130.4350647  37.6126667 112.7967495 131.4275322
  47.2538816 121.2726208 130.7897587  46.9623625 121.6356189 131.6261048
  46.6410947 120.5593217 130.6110919  48.4534499 118.8379088 123.3100157
  49.2881390 119.2768892 123.4737717  48.5893627 118.3617741 122.4908403
  45.5026004 116.3958823 129.2577645  45.9780126 116.5886469 128.4496496
  44.5791570 116.4518009 129.0121029  32.3909511 117.5582990 118.8408723
  32.1455553 116.6545320 119.0388933  32.5605426 117.5600141 117.8988201
  40.0806221 108.4306667 128.2233479  40.5988165 109.1667693 127.8979967
  39.7261354 108.7370660 129.0580238  31.6605159 113.2911348 116.3394885
  30.9674404 113.3655703 115.6834921  31.4156910 112.5271691 116.8616402
  40.3318815 104.8506949 123.7434375  40.6120569 104.1830138 124.3694802
  41.1169422 105.0436045 123.2309039  38.1352284 124.0265943 115.3059402
  37.5626251 124.6456130 114.8529874  38.7085077 124.5765305 115.8399324
  44.2027673 113.2724583 127.4905950  45.1545096 113.3722681 127.5118175
  44.0331124 112.4802852 128.0004035  42.2242053 110.3580166 127.6765351
  41.6291985 110.6385179 126.9811840  41.9391750 110.8474067 128.4482093
  41.3549543 124.3103093 116.4367984  42.2880217 124.2448655 116.6400859
  41.2672756 125.1459360 115.9782517  43.9837560 123.6268963 113.3971932
  43.9051192 123.2928827 114.2907689  44.8047227 124.1190731 113.3963404
  46.6815751 116.4930703 126.6048250  46.6492071 115.5546703 126.7907934
  47.2916375 116.5714739 125.8714075  38.5199082 115.3626756 112.6475454
  39.4658187 115.2332964 112.7163872  38.1413327 114.6241418 113.1244882
  46.8310240 113.2841746 126.6506533  46.3149288 112.5000203 126.4636462
  47.7150188 112.9560463 126.8153053  44.4920967 107.0282762 122.6102346
  44.2945788 106.7197850 123.4945678  45.1020672 107.7544401 122.7400276
  52.4992301 117.5546710 125.7454287  53.2295690 117.2931998 126.3061990
  51.8899247 116.8175432 125.7856355  50.5807598 115.6954572 126.3428738
  49.8540762 115.5610537 125.7345230  50.1654885 116.0031401 127.1485456
  36.7041999 113.2876732 112.5830339  35.7973455 112.9909845 112.6593053
  36.9817980 112.9906550 111.7164626  27.6219940 114.6083096 123.0329386
  27.3022724 113.7548404 122.7403760  27.0753368 114.8231674 123.7887353
  38.3204065 107.8313622 118.7374581  37.5104793 107.4860707 119.1129827
  39.0088482 107.5221166 119.3262192  40.2494613 106.9091669 120.3598877
  40.8025652 107.3287122 121.0188900  40.4864700 105.9827417 120.4021833
  35.4740784 110.1463667 112.7242319  36.3359948 110.4718566 112.9838136
  35.6591128 109.3595163 112.2115384  43.6273420 109.0192194 119.8677542
  43.0472089 109.6776998 119.4855594  43.3609353 108.1969538 119.4564959
  42.0776987 108.4197252 122.0698862  42.5776765 108.5313786 121.2613181
  42.7212595 108.1158304 122.7099670  29.4044942 118.1604261 122.8788522
  29.3815630 118.2591948 121.9270405  29.7145579 119.0069412 123.2005688
  42.4098298 111.1792284 118.9233890  41.5224153 111.4641935 118.7054085
  42.8252287 111.0186048 118.0761167  45.7612835 111.2038805 122.6388229
  46.5373225 111.6935258 122.9112846  45.0360969 111.6296859 123.0960099
  48.1985393 111.9166424 123.6962170  48.7929884 111.6762160 122.9855478
  48.2711977 111.1973555 124.3235706  41.5541512 120.9436959 113.0181910
  42.2577362 121.1486961 113.6339565  40.8304161 121.5113721 113.2830993
  42.3839322 116.6946820 119.1384180  42.3274524 117.1515372 118.2991812
  42.9367665 115.9337505 118.9607023  46.1944128 112.4836552 119.9634300
  45.9381062 112.0833188 120.7942507  45.5696996 113.1980346 119.8384439
  50.5056466 115.2232625 122.4705591  49.9456024 115.2925815 123.2437153
  49.8999969 115.0473610 121.7505087  43.4628209 121.3819488 115.0680370
  44.2973813 120.9500687 114.8857845  43.3012552 121.2101502 115.9957264
  43.1174101 117.8851601 116.4336709  43.0622905 117.7195873 115.4925153
  42.4920157 118.5927634 116.5898899  36.4270227 107.3859710 116.0122028
  36.4148897 108.3301550 116.1690298  37.3193649 107.2029856 115.7181489
  36.3559791 126.0628601 124.0989784  35.4055422 126.0630462 123.9854157
  36.6592277 125.3161335 123.5825819  40.2422346 103.9802487 120.2667964
  39.4754742 103.4260974 120.4124647  40.6533051 104.0524356 121.1282116
  52.0912484 131.8989139 125.1635547  52.7290894 131.7795887 124.4598887
  51.9733327 132.8469983 125.2223499  48.9002191 131.8516567 125.0997071
  48.5620702 131.7357632 124.2117606  49.7691959 131.4507732 125.0798077
  44.7589006 133.7052044 121.0893962  44.1953871 133.6141981 120.3210250
  44.6441401 132.8851948 121.5696455  42.3053438 135.2003235 123.9278183
  43.0974730 134.8594060 123.5124482  42.5450088 135.3098210 124.8480336
  44.2644192 134.4612149 116.7995562  45.0375068 133.9141136 116.6608437
  44.6169591 135.3256398 117.0110023  47.0285442 133.1665379 126.5963821
  47.6249014 132.9421402 125.8820783  47.0860413 132.4250125 127.1989268
  46.6010470 130.6204815 114.4314011  46.8535991 130.0986336 113.6697474
  45.6635029 130.4570960 114.5340695  51.6453753 129.6240593 122.2388755
  52.4316842 129.2060016 121.8879172  51.9092457 130.5286685 122.4070403
  51.8163830 135.0613443 116.9377412  51.1809663 135.1348070 117.6498316
  51.4861237 135.6507042 116.2596491  57.0462180 129.5615826 123.1421733
  57.7787352 128.9915043 123.3759563  56.2901536 129.1737427 123.5828239
  46.3206759 132.5232921 116.6338386  46.2043017 131.8477824 117.3019471
  46.4309019 132.0365295 115.8170539  48.6638300 131.9843068 120.3385076
  48.2996507 131.4573689 121.0497997  49.5205416 131.5941537 120.1651561
  54.5687600 123.2737400 127.6016342  54.2370925 124.1432811 127.3777557
  53.9733214 122.9573684 128.2810372  48.3043787 127.0132967 115.3346424
  48.4718189 127.8813204 115.7016895  48.1140956 127.1760249 114.4107713
  51.0619120 135.4749946 127.0012255  50.7619843 136.3774985 126.8928062
  50.7170179 135.2082130 127.8533407  44.5131601 131.9263743 123.0348959
  43.5882098 131.7939957 123.2426651  44.7616015 132.7057962 123.5318901
  54.4616264 127.9932487 124.6809692  53.5533141 127.9247895 124.3868453
  54.4103859 128.4704431 125.5091517  48.2833008 129.4690625 116.3193091
  48.1632633 129.9147676 117.1578571  47.5885596 129.8175943 115.7606629
  41.8740412 131.5697017 123.8692748  42.0032794 131.8231496 124.7832160
  41.1937864 132.1624725 123.5497403  56.3277910 126.1948925 126.4587566
  55.6852290 126.4881458 125.8127360  55.8232839 126.0801845 127.2640762
  53.9818074 129.9412098 117.1473425  54.8935930 130.1739485 116.9721123
  53.4727721 130.5249142 116.5848504  48.6189911 129.3009333 128.1568275
  49.4651107 129.7248746 128.3002924  48.5588549 128.6442957 128.8506838
  52.5887656 134.9237917 124.5387007  51.9596518 135.0883631 123.8363074
  52.2013318 135.3379526 125.3097971  56.4676888 135.8592354 121.8931370
  55.7827926 136.2391256 121.3428404  56.5520737 136.4687681 122.6263318
  51.7689357 126.9613701 129.8149448  51.5250289 127.7155762 129.2783724
  52.0449287 127.3399049 130.6496695  51.3254048 126.1170134 125.3963286
  50.4638527 126.4151388 125.6880024  51.3516483 126.3340533 124.4644319
  48.1415618 134.6612325 121.8037092  48.6053963 134.9400028 121.0141714
  47.8772416 133.7595769 121.6210182  45.0339699 134.2083806 124.7416855
  45.6041056 134.6371075 124.1034339  45.6247811 133.9266391 125.4401041
  47.0784504 130.7835477 118.6126657  47.7808547 131.2356521 119.0800583
  46.7465132 130.1419296 119.2406550  40.8209838 129.0419030 123.9143790
  40.0308892 129.2976558 123.4383901  41.3121085 129.8567368 124.0195831
  42.7724583 129.4063609 120.8727267  41.9755747 129.5182303 121.3910763
  42.5450175 129.7450261 120.0068158  62.9279640 132.7263017 123.0134043
  62.1743349 132.1570415 122.8578047  63.0627182 132.6925682 123.9604677
  47.7213569 125.0925879 132.9423374  48.4623283 125.6933032 132.8627836
  47.9531492 124.3503516 132.3841416  51.6670732 121.1206982 127.2187655
  51.3235002 122.0108623 127.1426766  52.0349695 120.9308639 126.3557240
  39.7356583 133.4440512 120.0376258  40.5731805 133.8537520 119.8209965
  39.9134850 132.5039954 120.0076451  51.6321015 131.1115593 115.7260091
  51.1167638 131.8820197 115.9648478  51.3598323 130.4380729 116.3493152
  49.2168126 125.9565293 120.7845329  48.3609722 125.5672144 120.6050968
  49.6295078 126.0357254 119.9245114  50.7467273 123.4911637 125.1836889
  50.2432068 123.4541772 124.3704694  51.0397879 124.4004379 125.2433545
  46.9910158 123.5750366 124.1903070  47.8563155 123.3793175 123.8308960
  47.0587667 123.3460718 125.1172427  56.6055289 133.8647947 117.6613264
  55.8284732 133.5259107 117.2168426  57.2846770 133.8700570 116.9868229
  51.4207318 128.9842685 117.5519872  51.1157454 129.2988834 118.4030015
  52.3737760 129.0624105 117.5947205  49.8653750 135.1432908 119.2012826
  49.3375111 134.4085668 118.8886063  49.3641253 135.9207584 118.9552794
  54.8446596 133.3381929 124.3179872  54.1870270 134.0281190 124.4060001
  55.6486995 133.7278360 124.6613858  44.5972477 125.8052574 121.5619437
  45.1716229 125.5827756 120.8292630  45.1843460 125.8741269 122.3148039
  53.6552055 131.6926301 122.3683814  54.1683936 132.3256293 122.8705523
  54.3053279 131.0927497 122.0027174  44.9242065 127.8357035 115.5815322
  44.0879377 128.1731722 115.9024597  44.7846834 127.7006015 114.6442459
  46.8995145 122.6793823 120.2894507  46.2459558 122.3642840 119.6651121
  46.8575619 122.0569564 121.0154330  48.0106350 132.9613118 112.2047799
  47.1033412 132.7302372 112.4038948  48.5077382 132.1650738 112.3921780
  50.1332886 129.1675757 124.6142154  49.2155447 129.3890704 124.4563842
  50.5493029 129.2422067 123.7553862  50.9167933 130.5667172 119.7444835
  51.6639752 131.0788570 119.4351957  51.1859523 130.2451225 120.6049228
  49.1894583 133.0625713 116.7271789  48.2805803 132.7784746 116.8244259
  49.2189667 133.4824792 115.8675096  54.4213851 136.6732303 120.4962956
  53.9676178 135.8323213 120.5528147  53.7907818 137.3093701 120.8337737
  53.3646770 127.6024289 121.7263624  52.6269527 127.0901675 122.0573866
  53.6173544 127.1624670 120.9146901  52.8646790 138.5108799 121.4312775
  53.1569765 139.0713856 120.7125140  53.3745411 138.8037360 122.1865934
  53.4658398 120.3800541 122.3205393  53.7717275 119.5197904 122.0331308
  54.1911003 120.9718161 122.1204387  39.7582754 130.7831227 120.7086991
  39.5607154 130.1900588 119.9838058  39.2029418 130.4783437 121.4262930
  47.7379478 130.6754334 122.8281584  47.7928087 129.7228170 122.7524061
  46.9270680 130.8313773 123.3122883  48.8870671 134.6034457 114.0659867
  48.4490101 133.8870316 113.6065505  49.6281112 134.8310572 113.5044959
  45.6771837 129.2931393 120.5871963  44.8639703 129.5925564 120.9937155
  46.1730832 128.8987082 121.3046445  51.2746049 129.7573218 129.4186857
  51.6295437 129.9844691 130.2781323  51.9218180 130.0891595 128.7964112
  57.0043786 132.8791654 120.1236186  56.8661685 133.0693250 119.1957375
  56.6480005 133.6411037 120.5804237  45.1685912 126.8649749 126.2033198
  45.8085292 126.7238508 125.5056161  44.3363443 126.5784262 125.8271800
  45.9446216 136.1652179 122.3168190  46.7386815 135.6702500 122.1150765
  45.2337908 135.6370043 121.9535896  42.2528980 130.3095261 118.3927943
  41.3226568 130.2479717 118.6097905  42.3486452 129.7871214 117.5964584
  42.1714529 126.8350074 120.9806185  42.4321346 127.7495407 120.8715345
  42.9931701 126.3674517 121.1302798  43.6439454 128.2487831 128.1505009
  44.3162507 128.0405193 127.5017658  42.8169240 128.0509917 127.7110242
  49.5465026 124.8749772 130.1670670  48.8992941 125.5739722 130.0735147
  50.3166041 125.3085916 130.5346918  49.7229160 132.7130537 128.2267490
  50.6521220 132.8641697 128.0536457  49.3020190 132.8014558 127.3716136
  50.0722707 136.1162804 123.3854865  49.7372540 136.0763574 124.2812515
  49.5726653 135.4507520 122.9125276  53.0081899 133.4618838 113.6591925
  52.3911070 132.7365667 113.5624978  52.5398387 134.2228199 113.3158999
  46.6749252 131.2350393 128.3991126  47.3848870 130.5943586 128.3577745
  46.6318560 131.4863288 129.3217307  45.3878186 128.2215611 130.2186766
  44.8515543 127.7706350 130.8708362  44.7994894 128.3561520 129.4757230
  44.7980445 127.6804263 112.7813229  43.9209911 127.5593064 112.4175476
  45.2738198 126.8890341 112.5292118  41.1217307 127.3571619 127.3039760
  41.0375496 126.7497289 126.5690170  40.3000013 127.8480637 127.3049256
  51.2941021 125.8425183 122.6709955  51.7909720 125.0895145 122.3511025
  50.5228002 125.8789499 122.1053164  59.1470778 131.5465548 124.3128247
  59.1360655 132.4290264 123.9422180  58.2788158 131.1937099 124.1182784
  52.3770802 134.5996870 120.2448379  51.4427080 134.7198332 120.0753083
  52.5547470 133.6969337 119.9808388  47.8775990 127.9842566 122.3981640
  47.5073777 127.4313606 123.0862545  48.3735082 127.3800699 121.8456640
  55.7643353 130.4414189 120.7798413  56.2303805 131.2742181 120.7058715
  56.2150853 129.9759171 121.4843671  53.8319584 136.7858010 117.7784565
  54.1079428 136.6714605 118.6878439  52.9624083 136.3875495 117.7396738
  53.7360016 122.8094776 124.8189314  52.8223096 123.0399003 124.9871521
  54.1653117 122.8933220 125.6703346  53.5066474 130.9984668 127.3189208
  52.8537924 131.2460575 126.6641661  53.8846854 130.1848806 126.9851685
  43.2741323 125.3946556 128.6434746  43.3382650 126.2561387 128.2312144
  43.2108444 124.7820558 127.9107104  39.5259139 129.2746118 118.2226135
  39.8212580 128.3656796 118.1693189  38.6247174 129.2533857 117.9007137
  43.0553386 127.3502115 124.2053684  42.3339971 127.9638082 124.0661157
  43.8446641 127.8859879 124.1270329  45.8579699 124.6856541 130.4794335
  46.3814101 124.9318838 131.2420645  45.6392032 125.5176576 130.0597473
  41.2546980 126.9560216 118.3465460  40.9259686 126.0757595 118.1640566
  41.6086351 126.9007884 119.2341849  44.3688803 127.2433185 118.7140938
  44.7084876 127.7719107 117.9919546  44.8160924 127.5813592 119.4899504
  47.0632244 125.6270236 128.1644006  46.7229065 124.8278049 128.5664686
  46.3571250 125.9271947 127.5920839  47.7148716 122.7119549 126.6171329
  48.5374785 122.2380027 126.4950219  47.9586780 123.4910032 127.1170015
  46.3556951 125.7407807 116.9134231  47.0765313 126.1189060 116.4097947
  45.7322255 126.4596684 117.0169208  50.4988073 126.4452956 117.8492563
  50.7151688 127.3277594 117.5481391  50.0182141 126.0539169 117.1198205
  45.2387295 129.4038669 124.4263307  45.0931876 129.7178972 125.3187589
  44.7612498 130.0223570 123.8734206  47.0983678 126.3941217 124.4744197
  47.0845246 125.4982311 124.1376495  47.8156106 126.4011881 125.1082483
  48.9509808 126.8278557 126.5197324  48.6927586 127.7495628 126.5181655
  48.4194849 126.4308992 127.2097789  46.5020574 125.2755598 119.7431767
  46.6236485 124.3472244 119.9422655  46.2122616 125.2894283 118.8310083
  49.3711764 122.9610508 122.8798487  49.3933461 123.0249841 121.9250467
  49.7879823 122.1215017 123.0738993  59.7495388 132.6965768 120.9177710
  60.1926534 131.9473093 120.5196833  58.8721899 132.6875904 120.5351442
  54.8831170 139.2496109 116.3984308  55.5782074 139.8702802 116.6171623
  55.2254320 138.3991460 116.6736686  56.7822593 136.6995815 117.9271639
  57.3073917 137.0383087 117.2020959  56.6944945 135.7642830 117.7434773
  48.2160942 127.5418967 130.7068058  47.3464251 127.8352533 130.4350647
  48.4520422 128.1259412 131.4275322  59.2928253 134.1671006 123.3100157
  60.1275144 134.6060810 123.4737717  59.4287382 133.6909659 122.4908403
  43.2303266 132.8874908 118.8408723  42.9849307 131.9837238 119.0388933
  43.3999180 132.8892058 117.8988201  50.9199975 123.7598584 128.2233479
  51.4381919 124.4959611 127.8979967  50.5655108 124.0662578 129.0580238
  42.4998913 128.6203265 116.3394885  41.8068158 128.6947620 115.6834921
  42.2550665 127.8563609 116.8616402  51.1712570 120.1798867 123.7434375
  51.4514323 119.5122056 124.3694802  51.9563177 120.3727962 123.2309039
  55.0421428 128.6016501 127.4905950  55.9938851 128.7014598 127.5118175
  54.8724878 127.8094769 128.0004035  53.0635807 125.6872084 127.6765351
  52.4685740 125.9677097 126.9811840  52.7785504 126.1765985 128.4482093
  54.8231315 138.9560881 113.3971932  54.7444946 138.6220745 114.2907689
  55.6440981 139.4482649 113.3963404  57.5209506 131.8222620 126.6048250
  57.4885826 130.8838621 126.7907934  58.1310129 131.9006657 125.8714075
  49.3592837 130.6918673 112.6475454  50.3051941 130.5624882 112.7163872
  48.9807082 129.9533335 113.1244882  57.6703994 128.6133664 126.6506533
  57.1543043 127.8292121 126.4636462  58.5543943 128.2852380 126.8153053
  55.3314721 122.3574679 122.6102346  55.1339542 122.0489768 123.4945678
  55.9414427 123.0836318 122.7400276  47.5435754 128.6168650 112.5830339
  46.6367209 128.3201763 112.6593053  47.8211735 128.3198468 111.7164626
  38.4613694 129.9375013 123.0329386  38.1416478 129.0840321 122.7403760
  37.9147122 130.1523591 123.7887353  49.1597819 123.1605540 118.7374581
  48.3498548 122.8152624 119.1129827  49.8482236 122.8513083 119.3262192
  51.0888368 122.2383586 120.3598877  51.6419406 122.6579040 121.0188900
  51.3258454 121.3119334 120.4021833  46.3134538 125.4755585 112.7242319
  47.1753702 125.8010483 112.9838136  46.4984883 124.6887081 112.2115384
  54.4667175 124.3484111 119.8677542  53.8865844 125.0068916 119.4855594
  54.2003108 123.5261456 119.4564959  52.9170741 123.7489169 122.0698862
  53.4170520 123.8605704 121.2613181  53.5606349 123.4450222 122.7099670
  40.2438697 133.4896178 122.8788522  40.2209385 133.5883866 121.9270405
  40.5539333 134.3361329 123.2005688  53.2492053 126.5084202 118.9233890
  52.3617908 126.7933852 118.7054085  53.6646042 126.3477965 118.0761167
  56.6006589 126.5330723 122.6388229  57.3766979 127.0227175 122.9112846
  55.8754723 126.9588777 123.0960099  59.0379148 127.2458342 123.6962170
  59.6323638 127.0054078 122.9855478  59.1105731 126.5265473 124.3235706
  52.3935266 136.2728877 113.0181910  53.0971116 136.4778879 113.6339565
  51.6697915 136.8405638 113.2830993  53.2233077 132.0238738 119.1384180
  53.1668278 132.4807289 118.2991812  53.7761419 131.2629422 118.9607023
  57.0337883 127.8128470 119.9634300  56.7774817 127.4125105 120.7942507
  56.4090751 128.5272264 119.8384439  61.3450220 130.5524543 122.4705591
  60.7849778 130.6217732 123.2437153  60.7393724 130.3765528 121.7505087
  54.3021964 136.7111406 115.0680370  55.1367568 136.2792604 114.8857845
  54.1406307 136.5393419 115.9957264  53.9567856 133.2143519 116.4336709
  53.9016660 133.0487790 115.4925153  53.3313911 133.9219552 116.5898899
  47.2663981 122.7151628 116.0122028  47.2542651 123.6593468 116.1690298
  48.1587403 122.5321773 115.7181489  51.0816101 119.3094405 120.2667964
  50.3148497 118.7552891 120.4124647  51.4926806 119.3816273 121.1282116
  57.7388900 138.0085741 120.2894507  57.0853312 137.6934758 119.6651121
  57.6969374 137.3861481 121.0154330  59.9991574 138.4897457 118.7374581
  59.1892302 138.1444542 119.1129827  60.6875991 138.1805001 119.3262192
  61.9282122 137.5675504 120.3598877  62.4813161 137.9870957 121.0188900
  62.1652209 136.6411252 120.4021833  58.1057736 138.0443546 116.0122028
  58.0936406 138.9885386 116.1690298  58.9981158 137.8613691 115.7181489
  61.9209855 134.6386322 120.2667964  61.1542251 134.0844809 120.4124647
  62.3320560 134.7108191 121.1282116   2.2708117  36.2194889 108.6176677
   1.5859155  36.5993790 108.0673710   2.3551966  36.8290215 109.3508625
   2.4086518  34.2250481 104.3858571   1.6315961  33.8861641 103.9413733
   3.0877999  34.2303105 103.7113536   2.8075015  33.2394188 106.8481493
   2.6692913  33.4295784 105.9202682   2.4511234  34.0013571 107.3049544
   5.5526617  33.0568302 107.6423016   5.9957763  32.3075627 107.2442139
   4.6753127  33.0478438 107.2596748   0.6862398  39.6098643 103.1229615
   1.3813303  40.2305336 103.3416929   1.0285549  38.7593994 103.3981993
   2.5853822  37.0598349 104.6516946   3.1105146  37.3985621 103.9266266
   2.4976174  36.1245364 104.4680080   0.6262543  39.3163415 100.1217238
   0.5476175  38.9823279 101.0152996   1.4472210  39.8085183 100.1208711
   8.7337468  47.5883591 111.8880853   9.3715878  47.4690338 111.1844193
   8.6158311  48.5364435 111.9468805   5.5427174  47.5411019 111.8242378
   5.2045685  47.4252084 110.9362913   6.4116942  47.1402184 111.8043384
   1.4013990  49.3946496 107.8139269   0.8378855  49.3036433 107.0455557
   1.2866385  48.5746400 108.2941761   6.9813548  53.0617463 103.1253734
   6.3301528  53.6471544 102.7387748   7.7757911  53.5923658 103.1848771
   0.9069175  50.1506600 103.5240868   1.6800051  49.6035588 103.3853744
   1.2594574  51.0150850 103.7355330   2.7454218  51.4782983 116.7307767
   2.4544084  52.3828614 116.6154434   3.3811202  51.5199510 117.4451837
   3.6710425  48.8559831 113.3209127   4.2673997  48.6315854 112.6066090
   3.7285396  48.1144577 113.9234575   3.2435453  46.3099267 101.1559318
   3.4960974  45.7880788 100.3942781   2.3060012  46.1465412 101.2586002
   8.2878736  45.3135045 108.9634061   9.0741825  44.8954468 108.6124478
   8.5517440  46.2181137 109.1315710   8.4588813  50.7507895 103.6622718
   7.8234646  50.8242522 104.3743623   8.1286220  51.3401494 102.9841797
  13.6887163  45.2510278 109.8667040  14.4212335  44.6809495 110.1004869
  12.9326519  44.8631879 110.3073545   2.9631742  48.2127373 103.3583693
   2.8468000  47.5372276 104.0264777   3.0734002  47.7259746 102.5415846
   5.3063283  47.6737520 107.0630382   4.9421490  47.1468141 107.7743304
   6.1630399  47.2835989 106.8896868   4.9468770  42.7027419 102.0591731
   5.1143172  43.5707656 102.4262202   4.7565939  42.8654701 101.1353020
   7.7044103  51.1644398 113.7257561   7.4044826  52.0669437 113.6173368
   7.3595163  50.8976581 114.5778714  11.1041247  43.6826938 111.4054998
  10.1958124  43.6142347 111.1113759  11.0528843  44.1598883 112.2336824
   4.9257991  45.1585077 103.0438398   4.8057616  45.6042128 103.8823878
   4.2310579  45.5070394 102.4851936   2.6864883  57.9288719 106.6928529
   2.6088913  58.8796544 106.7717009   2.0826527  57.5834591 107.3503455
  12.9702893  41.8843377 113.1832872  12.3277274  42.1775910 112.5372667
  12.4657822  41.7696297 113.9886069  10.6243057  45.6306550 103.8718732
  11.5360913  45.8633937 103.6966429  10.1152704  46.2143594 103.3093810
   8.9083825  50.0531178 117.5080024   9.3167181  49.6113588 116.7634657
   8.1861086  49.4783805 117.7614217   9.2312639  50.6132368 111.2632313
   8.6021502  50.7778083 110.5608381   8.8438301  51.0273978 112.0343277
  13.1101871  51.5486806 108.6176677  12.4252909  51.9285708 108.0673710
  13.1945721  52.1582133 109.3508625  10.3652803  49.1946765 115.2172020
  10.5769698  49.8378525 114.5406402  10.3182551  48.3609082 114.7493951
   7.9679032  41.8064586 112.1208593   7.1063511  42.1045840 112.4125330
   7.9941466  42.0234985 111.1889625   4.7840601  50.3506777 108.5282398
   5.2478947  50.6294480 107.7387021   4.5197399  49.4490221 108.3455489
   1.6764682  49.8978258 111.4662161   2.2466039  50.3265526 110.8279646
   2.2672794  49.6160843 112.1646347   3.7209487  46.4729929 105.3371963
   4.4233531  46.9250973 105.8045890   3.3890116  45.8313748 105.9651857
  11.4798631  52.0718721 113.3894378  12.3016074  51.6698908 113.1077059
  11.4761034  51.9686955 114.3410494   5.2455234  51.6202764 115.5455088
   5.3099667  52.0823171 116.3813260   4.5366158  50.9900129 115.6737398
  19.5704624  48.4157469 109.7379349  18.8168332  47.8464867 109.5823354
  19.7052165  48.3820134 110.6849984   4.9603252  53.2870872 105.4134069
   4.8248927  54.1322407 105.8418916   5.5013064  53.4890149 104.6500002
   6.5871728  53.9094438 119.5434411   6.1435582  53.1230817 119.2255315
   7.2488942  54.0973589 118.8778301   1.3458849  55.4390240 114.0695089
   1.8966275  55.3107303 113.2972083   0.5070325  55.7385129 113.7189982
   8.6852966  54.1897238 117.5715812   8.6671442  55.0106119 117.0796081
   9.6072886  54.0651313 117.7965953   8.2745998  46.8010044 102.4505397
   7.7592622  47.5714649 102.6893785   8.0023307  46.1275181 103.0738459
   5.8593109  41.6459745 107.5090636   5.0034706  41.2566596 107.3296274
   6.2720061  41.7251706 106.6490421   7.3892256  39.1806089 111.9082195
   6.8857051  39.1436224 111.0950001   7.6822863  40.0898831 111.9678852
  13.2480272  49.5542399 104.3858571  12.4709715  49.2153559 103.9413733
  13.9271753  49.5595022 103.7113536   8.0632301  44.6737137 104.2765178
   7.7582437  44.9883286 105.1275322   9.0162743  44.7518556 104.3192511
   6.5078733  50.8327360 105.9258132   5.9800095  50.0980119 105.6131370
   6.0066236  51.6102036 105.6798101  11.4871579  49.0276380 111.0425179
  10.8295254  49.7175642 111.1305307  12.2911978  49.4172812 111.3859165
   1.2397461  41.4947026 108.2864744   1.8141213  41.2722208 107.5537937
   1.8268443  41.5635721 109.0393345  10.2977038  47.3820753 109.0929120
  10.8108920  48.0150745 109.5950830  10.9478262  46.7821949 108.7272480
   1.5667048  43.5251487 102.3060629   0.7304360  43.8626174 102.6269904
   1.4271818  43.3900467 101.3687766   3.5420128  38.3688275 107.0139813
   2.8884541  38.0537292 106.3896428   3.5000603  37.7464016 107.7399636
   4.6531333  48.6507570  98.9293105   3.7458395  48.4196824  99.1284254
   5.1502365  47.8545189  99.1167087   7.5599412  57.3605077 101.8489792
   6.8861111  57.6636774 102.4574749   7.9465234  58.1634158 101.4995249
   6.7757869  44.8570209 111.3387461   5.8580430  45.0785156 111.1809149
   7.1918012  44.9316519 110.4799168   7.5592917  46.2561624 106.4690141
   8.3064736  46.7683022 106.1597263   7.8284506  45.9345677 107.3294535
   5.8319567  48.7520165 103.4517095   4.9230786  48.4679198 103.5489565
   5.8614651  49.1719244 102.5920402  11.0638834  52.3626755 107.2208263
  10.6101161  51.5217664 107.2773453  10.4332801  52.9988153 107.5583043
  10.0071754  43.2918741 108.4508930   9.2694511  42.7796127 108.7819173
  10.2598527  42.8519122 107.6392207   9.5071773  54.2003251 108.1558081
   9.7994748  54.7608308 107.4370447  10.0170394  54.4931812 108.9111240
  10.1083381  36.0694993 109.0450700  10.4142258  35.2092356 108.7576615
  10.8335986  36.6612613 108.8449694   4.3804461  46.3648786 109.5526891
   4.4353071  45.4122622 109.4769367   3.5695663  46.5208225 110.0368189
   5.5295655  50.2928909 100.7905174   5.0915085  49.5764768 100.3310811
   6.2706095  50.5205024 100.2290265   2.3196821  44.9825845 107.3117270
   1.5064686  45.2820016 107.7182462   2.8155815  44.5881534 108.0291752
   4.4705399  54.9783602 109.2451534   4.4281577  55.2044449 108.3160066
   5.3868097  54.7446977 109.3937336  13.6468769  48.5686106 106.8481493
  13.5086668  48.7587702 105.9202682  13.2904988  49.3305489 107.3049544
  13.6738149  50.6362633 111.8592764  14.1074656  50.5437922 112.7075818
  14.3869730  50.6120133 111.2212780   2.5871199  51.8546631 109.0413497
   3.3811798  51.3596951 108.8396072   1.8762892  51.3264494 108.6781203
   7.4066044  54.2364727 113.3925865   7.4603066  54.8055663 114.1603581
   6.5380825  54.4066612 113.0279902  14.5353699  50.6786333 114.3925650
  14.7289589  51.5832144 114.6384924  14.4354317  50.2193752 115.2264235
   9.5968807  50.8293076 119.9666530   9.4454314  50.6003628 119.0496614
   9.5873487  51.7863678 119.9797875   6.3654144  48.4024989 114.9512797
   7.2946204  48.5536149 114.7781764   5.9445174  48.4909010 114.0961443
   5.1642475  52.4275653 112.7211334   5.0253561  52.0594438 113.5937272
   4.3757072  52.9423293 112.5495292   5.7590627  57.5284750 104.0636871
   5.9342383  57.0572793 104.8782493   5.0723415  58.1550516 104.2918131
   6.7147691  51.8057256 110.1100172   6.3797523  51.7658026 111.0057822
   6.2151636  51.1401972 109.6370582   9.6506882  49.1513290 100.3837232
   9.0336053  48.4260119 100.2870284   9.1823371  49.9122651 100.0404306
  11.3061014  53.8612199 118.0443012  11.2473560  53.1771419 117.3773595
  11.7080532  54.6031189 117.5923638   1.4405428  43.3698715  99.5058536
   0.5634894  43.2487515  99.1420783   1.9163181  42.5784793  99.2537425
  11.3078421  51.8251783 116.2756992  10.4205200  51.4877704 116.3983391
  11.8776972  51.0934814 116.5125757   4.8379575  56.4853235 113.2418235
   4.7649746  57.2908206 113.7537539   4.3956968  56.6845201 112.4166256
   4.6269354  55.7225005 106.7521056   3.8436876  56.2646685 106.8459281
   5.3262099  56.2398985 107.1515298   7.9366004  41.5319634 109.3955262
   8.4334704  40.7789597 109.0756332   7.1652986  41.5683951 108.8298471
  15.7895762  47.2360000 111.0373553  15.7785638  48.1184715 110.6667486
  14.9213141  46.8831551 110.8428090   7.2978258  56.3840069 115.3976394
   8.0106230  57.0187534 115.3252295   6.8068287  56.4803935 114.5816395
   9.0195785  50.2891322 106.9693685   8.0852064  50.4092784 106.7998390
   9.1972453  49.3863788 106.7053695   4.5200973  43.6737017 109.1226946
   4.1498761  43.1208058 109.8107852   5.0160065  43.0695151 108.5701946
  12.4068336  46.1308641 107.5043719  12.8728788  46.9636633 107.4304022
  12.8575837  45.6653623 108.2088978   2.3490172  54.1334512 116.2181964
   3.0499631  54.7670995 116.3711359   1.8785287  54.4749244 115.4577604
  10.4744567  52.4752462 104.5029871  10.7504411  52.3609057 105.4123745
   9.6049066  52.0769947 104.4642044  10.3784999  38.4989228 111.5434621
   9.4648079  38.7293455 111.7116828  10.8078101  38.5827672 112.3948653
  10.1491458  46.6879120 114.0434515   9.4962908  46.9355027 113.3886967
  10.5271837  45.8743258 113.7096992   7.1098631  56.7238813 108.1462685
   7.2921026  55.9060469 108.6090437   7.9331617  56.9406505 107.7087575
   7.4440797  55.6506998 105.4077733   7.9728563  55.1399453 104.7947896
   7.7069016  55.3349528 106.2723267   4.9401813  58.7365858 114.7658168
   5.4920121  58.8997480 115.5307253   5.2808007  59.3270296 114.0938193
   9.7912688  53.5627116 120.6206822  10.3352592  54.1757074 120.1261777
   9.2099533  54.1206694 121.1373835   8.0770201  56.6847834 111.7521850
   7.9521340  55.8837574 111.2432795   8.7349292  57.1794027 111.2635820
  10.1405109  54.4856854 113.3801400   9.1935445  54.3662205 113.3079727
  10.4887882  53.5979352 113.4627661   7.1451542  54.2809570 109.5805752
   6.9976505  53.3526278 109.7613322   7.9705036  54.3029661 109.0962827
   1.0113787  42.9327637 105.4386244   1.3509859  43.4613559 104.7164853
   1.4585907  43.2708043 106.2144811  10.7485664  55.1038129 110.6670625
  11.6732212  54.8980990 110.5295076  10.5800968  54.8554530 111.5759966
   2.9981934  41.4302259 103.6379537   3.7190296  41.8083512 103.1343254
   2.3747238  42.1491136 103.7414515   7.1413057  42.1347408 104.5737869
   7.3576671  43.0172046 104.2726698   6.6607124  41.7433621 103.8443511
   1.8812278  45.0933121 111.1508614   1.7356859  45.4073424 112.0432896
   1.4037482  45.7118021 110.5979513   3.7408661  42.0835669 111.1989504
   3.7270230  41.1876762 110.8621802   4.4581089  42.0906333 111.8327790
  10.5380980  55.6223796 106.0232716  10.7117858  55.0570219 105.2706569
  11.0309872  56.4224691 105.8412206   3.1445557  40.9650049 106.4677074
   3.2661468  40.0366696 106.6667961   2.8547599  40.9788735 105.5555389
   6.0136747  38.6504960 109.6043794   6.0358444  38.7144293 108.6495773
   6.4304806  37.8109468 109.7984300  16.3920372  48.3860219 107.6423016
  16.8351518  47.6367545 107.2442139  15.5146882  48.3770356 107.2596748
  11.5256153  54.9390561 103.1229615  12.2207058  55.5597254 103.3416929
  11.8679303  54.0885912 103.3981993  13.4247576  52.3890266 104.6516946
  13.9498900  52.7277539 103.9266266  13.3369929  51.4537282 104.4680080
   5.0867625  56.3024340 116.7806822   5.3954751  56.0573487 117.6529522
   5.8843107  56.5070979 116.2925692   5.1088237  58.4562250 109.0112199
   4.6693227  57.9638628 109.7045055   5.8596354  57.9135217 108.7704274
   2.5562109  54.0000259 111.0834500   1.9342118  53.3370964 110.7836728
   3.2266976  54.0261391 110.4008148  13.1141482  53.0223170 119.9568143
  12.3237026  53.0047309 119.4172643  12.8774837  53.5611464 120.7117180
  13.2339357  49.8715636 117.2700872  13.2837362  49.7065644 118.2116395
  13.1253281  49.0042895 116.8798753   2.1175616  52.5504182 104.5592961
   2.2663736  53.2339646 103.9059634   2.9242059  52.5309272 105.0742417
  14.7357554  52.2912578 117.5142894  14.4442362  52.6542558 118.3506355
  14.1229685  51.5779586 117.3356226  15.9353236  49.8565458 110.0345464
  16.7700128  50.2955262 110.1983024  16.0712365  49.3804111 109.2153710
  12.9844742  47.4145193 115.9822952  13.4598864  47.6072839 115.1741803
  12.0610308  47.4704378 115.7366335   5.6171021  55.0452313 102.0304708
   5.0444988  55.6642500 101.5775180   6.1903815  55.5951674 102.5644630
  11.6846411  44.2910953 114.2151257  12.6363834  44.3909050 114.2363481
  11.5149862  43.4989221 114.7249341   9.7060791  41.3766536 114.4010658
   9.1110723  41.6571549 113.7057147   9.4210487  41.8660437 115.1727399
   8.8368281  55.3289463 103.1613291   9.7698954  55.2635024 103.3646166
   8.7491494  56.1645730 102.7027823  11.4656298  54.6455333 100.1217238
  11.3869929  54.3115197 101.0152996  12.2865965  55.1377101 100.1208711
  14.1634489  47.5117072 113.3293557  14.1310809  46.5733073 113.5153241
  14.7735113  47.5901109 112.5959382   6.0017820  46.3813125  99.3720761
   6.9476925  46.2519333  99.4409179   5.6232065  45.6427787  99.8490189
  14.3128978  44.3028116 113.3751840  13.7968026  43.5186572 113.1881769
  15.1968926  43.9746832 113.5398359  11.9739704  38.0469131 109.3347653
  11.7764526  37.7384220 110.2190985  12.5839410  38.7730770 109.4645582
  19.9811039  48.5733079 112.4699594  20.7114427  48.3118367 113.0307297
  19.3717984  47.8361801 112.5101662  18.0626336  46.7140942 113.0674045
  17.3359500  46.5796907 112.4590536  17.6473623  47.0217770 113.8730763
   4.1860737  44.3063102  99.3075646   3.2792192  44.0096214  99.3838360
   4.4636718  44.0092920  98.4409932   5.8022803  38.8499991 105.4619887
   4.9923531  38.5047076 105.8375133   6.4907220  38.5407535 106.0507499
   7.7313351  37.9278038 107.0844184   8.2844390  38.3473492 107.7434207
   7.9683437  37.0013786 107.1267140   2.9559522  41.1650037  99.4487625
   3.8178686  41.4904935  99.7083443   3.1409866  40.3781533  98.9360691
  11.1092158  40.0378563 106.5922848  10.5290827  40.6963367 106.2100901
  10.8428091  39.2155908 106.1810266   9.5595725  39.4383621 108.7944169
  10.0595503  39.5500156 107.9858487  10.2031332  39.1344674 109.4344977
   9.8917036  42.1978654 105.6479197   9.0042891  42.4828304 105.4299391
  10.3071025  42.0372417 104.8006473  13.2431572  42.2225175 109.3633536
  14.0191962  42.7121627 109.6358153  12.5179706  42.6483229 109.8205405
  15.6804131  42.9352794 110.4207476  16.2748622  42.6948530 109.7100785
  15.7530715  42.2159925 111.0481013   9.0360250  51.9623328  99.7427216
   9.7396100  52.1673331 100.3584872   8.3122898  52.5300090 100.0076300
   9.8658060  47.7133190 105.8629487   9.8093261  48.1701741 105.0237119
  10.4186402  46.9523874 105.6852329  13.6762866  43.5022922 106.6879606
  13.4199800  43.1019557 107.5187814  13.0515734  44.2166715 106.5629745
  17.9875204  46.2418995 109.1950898  17.4274762  46.3112184 109.9682460
  17.3818707  46.0659979 108.4750394  10.9446947  52.4005858 101.7925677
  11.7792551  51.9687056 101.6103151  10.7831290  52.2287871 102.7202571
  10.5992839  48.9037971 103.1582016  10.5441643  48.7382242 102.2170460
   9.9738894  49.6114004 103.3144206   3.9088965  38.4046080 102.7367334
   3.8967635  39.3487920 102.8935605   4.8012387  38.2216225 102.4426795
   2.0824927  58.3283984 114.1625012   2.9852173  58.3607594 114.4791507
   1.8562297  57.3984435 114.1771348   3.8378529  57.0814970 110.8235091
   2.8874160  57.0816832 110.7099463   4.1411015  56.3347705 110.3071126
   7.7241084  34.9988857 106.9913271   6.9573480  34.4447343 107.1369953
   8.1351789  35.0710725 107.8527423  19.5731222  62.9175509 111.8880853
  20.2109632  62.7982256 111.1844193  19.4552065  63.8656353 111.9468805
  16.3820928  62.8702937 111.8242378  16.0439440  62.7544002 110.9362913
  17.2510697  62.4694102 111.8043384  12.2407744  64.7238413 107.8139269
  11.6772609  64.6328350 107.0455557  12.1260139  63.9038318 108.2941761
  16.8640711  64.0237789 117.7828584  16.8529352  63.6290587 116.9109087
  17.0261351  63.2903861 118.3762355   9.7872176  66.2189605 110.6523489
  10.5793468  65.8780429 110.2369789  10.0268826  66.3284580 111.5725643
  17.8207303  68.3909381 103.1253734  17.1695283  68.9763461 102.7387748
  18.6151666  68.9215576 103.1848771  11.7462930  65.4798518 103.5240868
  12.5193806  64.9327505 103.3853744  12.0988329  66.3442767 103.7355330
  13.5847973  66.8074900 116.7307767  13.2937839  67.7120531 116.6154434
  14.2204957  66.8491428 117.4451837  14.5104179  64.1851749 113.3209127
  15.1067752  63.9607771 112.6066090  14.5679151  63.4436494 113.9234575
  14.0829208  61.6391184 101.1559318  14.3354728  61.1172705 100.3942781
  13.1453767  61.4757330 101.2586002  19.1272491  60.6426963 108.9634061
  19.9135580  60.2246386 108.6124478  19.3911195  61.5473055 109.1315710
  19.2982568  66.0799813 103.6622718  18.6628401  66.1534439 104.3743623
  18.9679974  66.6693412 102.9841797  24.5280918  60.5802196 109.8667040
  25.2606090  60.0101413 110.1004869  23.7720273  60.1923796 110.3073545
  13.8025497  63.5419290 103.3583693  13.6861755  62.8664194 104.0264777
  13.9127756  63.0551664 102.5415846  16.1457037  63.0029437 107.0630382
  15.7815245  62.4760058 107.7743304  17.0024153  62.6127906 106.8896868
  22.0506338  54.2923770 114.3261648  21.7189663  55.1619181 114.1022863
  21.4551951  53.9760054 115.0055679  15.7862524  58.0319337 102.0591731
  15.9536927  58.8999573 102.4262202  15.5959694  58.1946619 101.1353020
  18.5437858  66.4936316 113.7257561  18.2438581  67.3961355 113.6173368
  18.1988917  66.2268499 114.5778714  11.9950339  62.9450113 109.7594266
  11.0700836  62.8126327 109.9671957  12.2434752  63.7244332 110.2564208
  21.9435001  59.0118856 111.4054998  21.0351879  58.9434264 111.1113759
  21.8922597  59.4890801 112.2336824  15.7651745  60.4876994 103.0438398
  15.6451371  60.9334045 103.8823878  15.0704334  60.8362312 102.4851936
   9.3559150  62.5883386 110.5938055   9.4851531  62.8417865 111.5077466
   8.6756601  63.1811094 110.2742710  13.5258637  73.2580636 106.6928529
  13.4482667  74.2088461 106.7717009  12.9220281  72.9126509 107.3503455
  16.0175867  60.4308502 119.3489896  15.2409201  60.9902422 119.3392760
  16.6566430  60.9165285 119.8704766  23.8096648  57.2135294 113.1832872
  23.1671028  57.5067828 112.5372667  23.3051576  57.0988215 113.9886069
  21.4636811  60.9598468 103.8718732  22.3754668  61.1925854 103.6966429
  20.9546459  61.5435512 103.3093810  14.2722240  63.2393955 118.9107863
  15.0136924  63.7778999 118.6342686  13.5659225  63.8660244 119.0679415
  19.7477579  65.3823095 117.5080024  20.1560935  64.9405506 116.7634657
  19.0254841  64.8075723 117.7614217  16.1008649  60.3195702 114.8813581
  16.9469844  60.7435116 115.0248230  16.0407287  59.6629327 115.5752144
  20.0706394  65.9424286 111.2632313  19.4415256  66.1070000 110.5608381
  19.6832056  66.3565896 112.0343277  23.9495626  66.8778724 108.6176677
  23.2646664  67.2577625 108.0673710  24.0339475  67.4874051 109.3508625
  19.2508095  57.9800071 116.5394755  19.0069026  58.7342131 116.0029031
  19.5268025  58.3585418 117.3742002  21.2046557  64.5238683 115.2172020
  21.4163453  65.1670443 114.5406402  21.1576306  63.6901000 114.7493951
  18.8072786  57.1356504 112.1208593  17.9457265  57.4337757 112.4125330
  18.8335221  57.3526903 111.1889625  15.6234356  65.6798694 108.5282398
  16.0872701  65.9586397 107.7387021  15.3591154  64.7782139 108.3455489
  12.5158437  65.2270176 111.4662161  13.0859794  65.6557444 110.8279646
  13.1066549  64.9452760 112.1646347  14.5603242  61.8021847 105.3371963
  15.2627285  62.2542890 105.8045890  14.2283870  61.1605665 105.9651857
  13.0083603  60.3933603 119.7123173  12.3782264  61.0749884 119.9458570
  12.9019691  60.2816685 118.7676311   8.3028576  60.0605399 110.6389097
   7.5127630  60.3162928 110.1629208   8.7939823  60.8753737 110.7441137
  22.3192385  67.4010638 113.3894378  23.1409829  66.9990826 113.1077059
  22.3154788  67.2978873 114.3410494  10.2543321  60.4249978 107.5972574
   9.4574484  60.5368673 108.1156069  10.0268913  60.7636631 106.7313464
  16.0848989  66.9494682 115.5455088  16.1493421  67.4115089 116.3813260
  15.3759913  66.3192047 115.6737398   6.5866279  60.3135890 113.0704088
   6.8374317  61.1982900 113.3361664   7.1225827  60.1340491 112.2979180
  30.4098378  63.7449387 109.7379349  29.6562087  63.1756785 109.5823354
  30.5445919  63.7112051 110.6849984  15.7997006  68.6162789 105.4134069
  15.6642681  69.4614325 105.8418916  16.3406819  68.8182067 104.6500002
  12.2864346  54.6954369 122.0748424  11.8931292  54.1420568 122.7496068
  13.1030486  55.0064948 122.4654941   9.2526404  66.1338227 105.9861994
   9.7650924  66.9281477 106.1367558   9.9049117  65.4364518 105.9195595
  11.0621288  69.2503984 108.0684747  11.2387917  70.1721948 107.8805731
  11.8578122  68.9362403 108.4979127  15.2032307  56.1112248 119.6668680
  15.9442020  56.7119401 119.5873143  15.4350230  55.3689886 119.1086723
  10.3473645  61.2968615 117.9446910  10.2327160  60.3953873 118.2454009
   9.4918163  61.5432312 117.5931727  17.4265483  69.2386356 119.5434411
  16.9829337  68.4522734 119.2255315  18.0882696  69.4265506 118.8778301
  12.1852604  70.7682157 114.0695089  12.7360029  70.6399221 113.2972083
  11.3464080  71.0677046 113.7189982  19.5246721  69.5189156 117.5715812
  19.5065196  70.3398037 117.0796081  20.4466641  69.3943231 117.7965953
  15.9819775  67.0333285 118.4139320  16.5148112  66.2721573 118.1838628
  15.4533856  66.7406937 119.1563475  19.1489470  52.1393351 113.9432962
  18.8053739  53.0294993 113.8672073  19.5168433  51.9495009 113.0802547
   7.2175321  64.4626882 106.7621564   8.0550543  64.8723890 106.5455272
   7.3953588  63.5226324 106.7321758  19.1139753  62.1301962 102.4505397
  18.5986376  62.9006567 102.6893785  18.8417061  61.4567098 103.0738459
  16.6986864  56.9751663 107.5090636  15.8428460  56.5858513 107.3296274
  17.1113815  57.0543624 106.6490421  18.2286010  54.5098006 111.9082195
  17.7250806  54.4728141 111.0950001  18.5216617  55.4190749 111.9678852
  14.4728896  54.5936736 110.9148377  15.3381893  54.3979545 110.5554267
  14.5406405  54.3647088 111.8417734  24.0874027  64.8834317 104.3858571
  23.3103470  64.5445476 103.9413733  24.7665508  64.8886940 103.7113536
  18.9026056  60.0029054 104.2765178  18.5976191  60.3175203 105.1275322
  19.8556498  60.0810474 104.3192511  17.3472488  66.1619278 105.9258132
  16.8193849  65.4272037 105.6131370  16.8459990  66.9393954 105.6798101
  22.3265334  64.3568298 111.0425179  21.6689008  65.0467559 111.1305307
  23.1305733  64.7464730 111.3859165  12.0791215  56.8238944 108.2864744
  12.6534967  56.6014125 107.5537937  12.6662198  56.8927638 109.0393345
  21.1370792  62.7112671 109.0929120  21.6502674  63.3442663 109.5950830
  21.7872016  62.1113866 108.7272480  12.4060802  58.8543405 102.3060629
  11.5698115  59.1918091 102.6269904  12.2665572  58.7192385 101.3687766
  14.3813883  53.6980193 107.0139813  13.7278295  53.3829210 106.3896428
  14.3394357  53.0755933 107.7399636  15.4925088  63.9799488  98.9293105
  14.5852150  63.7488741  99.1284254  15.9896120  63.1837107  99.1167087
  18.3993167  72.6896995 101.8489792  17.7254865  72.9928692 102.4574749
  18.7858989  73.4926075 101.4995249  17.6151623  60.1862126 111.3387461
  16.6974185  60.4077073 111.1809149  18.0311767  60.2608437 110.4799168
  18.3986671  61.5853542 106.4690141  19.1458490  62.0974939 106.1597263
  18.6678261  61.2637595 107.3294535  16.6713321  64.0812083 103.4517095
  15.7624541  63.7971116 103.5489565  16.7008405  64.5011161 102.5920402
  21.9032589  67.6918672 107.2208263  21.4494916  66.8509582 107.2773453
  21.2726555  68.3280071 107.5583043  20.8465508  58.6210658 108.4508930
  20.1088265  58.1088044 108.7819173  21.0992282  58.1811040 107.6392207
  20.3465528  69.5295169 108.1558081  20.6388502  70.0900226 107.4370447
  20.8564148  69.8223730 108.9111240  20.9477136  51.3986910 109.0450700
  21.2536012  50.5384274 108.7576615  21.6729740  51.9904530 108.8449694
   7.2401492  61.8017597 107.4332298   7.0425891  61.2086958 106.7083364
   6.6848156  61.4969807 108.1508236  15.2198215  61.6940703 109.5526891
  15.2746825  60.7414540 109.4769367  14.4089417  61.8500142 110.0368189
  16.3689409  65.6220826 100.7905174  15.9308839  64.9056685 100.3310811
  17.1099850  65.8496941 100.2290265  13.1590575  60.3117763 107.3117270
  12.3458441  60.6111934 107.7182462  13.6549569  59.9173452 108.0291752
  15.3099153  70.3075520 109.2451534  15.2675332  70.5336366 108.3160066
  16.2261852  70.0738895 109.3937336  18.7564787  60.7759588 116.1432164
  19.1114175  61.0031061 117.0026629  19.4036918  61.1077964 115.5209419
  24.4862524  63.8978023 106.8481493  24.3480422  64.0879619 105.9202682
  24.1298743  64.6597406 107.3049544  12.6504650  57.8836119 112.9278505
  13.2904029  57.7424878 112.2301468  11.8182181  57.5970632 112.5517107
  24.5131903  65.9654550 111.8592764  24.9468410  65.8729840 112.7075818
  25.2263484  65.9412051 111.2212780  13.4264954  67.1838549 109.0413497
  14.2205552  66.6888869 108.8396072  12.7156646  66.6556412 108.6781203
  18.2459798  69.5656645 113.3925865  18.2996821  70.1347581 114.1603581
  17.3774580  69.7358530 113.0279902   9.7347717  61.3281631 105.1173250
   8.8045305  61.2666086 105.3343212   9.8305189  60.8057584 104.3209891
   9.6533266  57.8536444 107.7051491   9.9140084  58.7681777 107.5960652
  10.4750439  57.3860886 107.8548104  11.1258192  59.2674201 114.8750316
  11.7981245  59.0591563 114.2262965  10.2987978  59.0696287 114.4355548
  25.3747453  66.0078251 114.3925650  25.5683343  66.9124062 114.6384924
  25.2748071  65.5485670 115.2264235  17.0283764  55.8936142 116.8915977
  16.3811679  56.5926091 116.7980453  17.7984779  56.3272286 117.2592225
  20.4362562  66.1584994 119.9666530  20.2848068  65.9295546 119.0496614
  20.4267241  67.1155595 119.9797875  17.2047898  63.7316907 114.9512797
  18.1339958  63.8828066 114.7781764  16.7838928  63.8200927 114.0961443
  16.0036230  67.7567571 112.7211334  15.8647316  67.3886355 113.5937272
  15.2150826  68.2715210 112.5495292  16.5984382  72.8576667 104.0636871
  16.7736138  72.3864711 104.8782493  15.9117170  73.4842434 104.2918131
  17.5541445  67.1349174 110.1100172  17.2191278  67.0949944 111.0057822
  17.0545391  66.4693890 109.6370582  11.5285689  62.5416804 115.6352753
  11.3905487  61.8097043 116.2364292  12.4390612  62.4525704 115.3536941
  20.4900637  64.4805208 100.3837232  19.8729807  63.7552036 100.2870284
  20.0217125  65.2414568 100.0404306  14.1567990  62.2536763 115.1236433
  14.8667608  61.6129955 115.0823051  14.1137298  62.5049658 116.0462614
  22.1454768  69.1904116 118.0443012  22.0867314  68.5063337 117.3773595
  22.5474287  69.9323106 117.5923638  12.8696924  59.2401981 116.9432072
  12.3334281  58.7892719 117.5953669  12.2813632  59.3747890 116.2002537
  11.1645467  76.0066030 110.8376731  11.4042065  76.6384554 111.5155749
  10.3214664  75.6554070 111.1242090  12.2799183  58.6990632  99.5058536
  11.4028649  58.5779433  99.1420783  12.7556936  57.9076711  99.2537425
  22.1472176  67.1543700 116.2756992  21.2598954  66.8169622 116.3983391
  22.7170727  66.4226732 116.5125757   3.8001323  63.4867792 109.6000043
   4.4872363  63.1729522 109.0121058   3.6449451  64.3909157 109.3267294
   8.6036045  58.3757989 114.0285067   8.5194234  57.7683658 113.2935477
   7.7818751  58.8667007 114.0294563  15.6773329  71.8145153 113.2418235
  15.6043500  72.6200124 113.7537539  15.2350722  72.0137118 112.4166256
  15.4663109  71.0516923 106.7521056  14.6830631  71.5938603 106.8459281
  16.1655854  71.5690902 107.1515298  18.7759759  56.8611552 109.3955262
  19.2728458  56.1081514 109.0756332  18.0046740  56.8975869 108.8298471
  26.6289516  62.5651918 111.0373553  26.6179392  63.4476633 110.6667486
  25.7606896  62.2123469 110.8428090  18.1372013  71.7131987 115.3976394
  18.8499985  72.3479452 115.3252295  17.6462041  71.8095853 114.5816395
  19.8589539  65.6183239 106.9693685  18.9245818  65.7384702 106.7998390
  20.0366208  64.7155706 106.7053695  15.3594727  59.0028935 109.1226946
  14.9892515  58.4499976 109.8107852  15.8553820  58.3987069 108.5701946
  23.2462091  61.4600559 107.5043719  23.7122543  62.2928550 107.4304022
  23.6969591  60.9945540 108.2088978  13.1883926  69.4626430 116.2181964
  13.8893386  70.0962913 116.3711359  12.7179041  69.8041162 115.4577604
  21.3138322  67.8044380 104.5029871  21.5898166  67.6900975 105.4123745
  20.4442821  67.4061865 104.4642044  21.2178754  53.8281146 111.5434621
  20.3041833  54.0585372 111.7116828  21.6471855  53.9119590 112.3948653
  20.9885212  62.0171038 114.0434515  20.3356662  62.2646945 113.3886967
  21.3665592  61.2035176 113.7096992  17.9492386  72.0530731 108.1462685
  18.1314780  71.2352387 108.6090437  18.7725372  72.2698423 107.7087575
  18.2834551  70.9798916 105.4077733  18.8122318  70.4691371 104.7947896
  18.5462771  70.6641446 106.2723267  17.0372785  62.7590849 120.5300552
  16.3613422  62.6584978 121.2002927  17.8600419  62.6030062 120.9936549
   8.7851644  68.9962785 113.1513067   9.3705081  68.2506473 113.2840971
   8.5876483  69.3066742 114.0349731  11.6390299  72.0314033 108.1675509
  10.9700675  72.5160160 107.6839549  11.5003169  72.2783253 109.0818888
   3.3769299  61.5668385 111.8717510   3.4153398  61.0331976 112.6654628
   2.8709592  61.0403591 111.2528487  15.7795568  74.0657776 114.7658168
  16.3313876  74.2289398 115.5307253  16.1201761  74.6562214 114.0938193
  10.7560061  56.4132926 115.3680052  10.8201388  57.2747757 114.9557450
  10.6927181  55.8006928 114.6352411  10.2312334  58.4856058 119.0153087
  10.8584372  58.1033136 119.6290611   9.3740253  58.2670260 119.3808779
  20.6306442  68.8919034 120.6206822  21.1746346  69.5048992 120.1261777
  20.0493287  69.4498612 121.1373835   7.0077876  60.2932488 104.9471442
   7.3031318  59.3843166 104.8938495   6.1065912  60.2720227 104.6252444
  18.9163955  72.0139752 111.7521850  18.7915095  71.2129491 111.2432795
  19.5743046  72.5085945 111.2635820  10.5372123  58.3688484 110.9298990
   9.8158709  58.9824452 110.7906463  11.3265379  58.9046249 110.8515636
  20.9798864  69.8148772 113.3801400  20.0329199  69.6954123 113.3079727
  21.3281637  68.9271270 113.4627661  13.3398437  55.7042911 117.2039642
  13.8632839  55.9505207 117.9665951  13.1210770  56.5362945 116.7842779
   8.7365718  57.9746585 105.0710767   8.4078424  57.0943964 104.8885873
   9.0905089  57.9194254 105.9587156  17.9845297  69.6101488 109.5805752
  17.8370259  68.6818195 109.7613322  18.8098790  69.6321579 109.0962827
  11.8507541  58.2619555 105.4386244  12.1903614  58.7905476 104.7164853
  12.2979662  58.5999961 106.2144811  21.5879419  70.4330047 110.6670625
  22.5125966  70.2272908 110.5295076  21.4194722  70.1846448 111.5759966
  14.5450982  56.6456606 114.8889312  14.2047802  55.8464419 115.2909992
  13.8389988  56.9458317 114.3166146  15.1967454  53.7305918 113.3416635
  16.0193523  53.2566396 113.2195526  15.4405517  54.5096402 113.8415322
  13.8375688  56.7594177 103.6379537  14.5584051  57.1375429 103.1343254
  13.2140992  57.4783053 103.7414515  17.9806811  57.4639326 104.5737869
  18.1970426  58.3463963 104.2726698  17.5000878  57.0725539 103.8443511
  12.7206033  60.4225039 111.1508614  12.5750613  60.7365342 112.0432896
  12.2431236  61.0409939 110.5979513  14.5802415  57.4127587 111.1989504
  14.5663984  56.5168680 110.8621802  15.2974844  57.4198251 111.8327790
  16.4328546  57.8464927 113.2442631  16.1746324  58.7681998 113.2426961
  15.9013587  57.4495362 113.9343095  21.3774735  70.9515714 106.0232716
  21.5511612  70.3862137 105.2706569  21.8703626  71.7516609 105.8412206
   7.1951695  62.9630383 114.0896275   6.6505163  63.7390191 114.2216550
   8.0731045  63.3101188 113.9315397  13.9839311  56.2941967 106.4677074
  14.1055223  55.3658613 106.6667961  13.6941354  56.3080653 105.5555389
  16.8530502  53.9796878 109.6043794  16.8752199  54.0436211 108.6495773
  17.2698561  53.1401386 109.7984300  27.2314126  63.7152137 107.6423016
  27.6745272  62.9659462 107.2442139  26.3540636  63.7062273 107.2596748
  22.3649907  70.2682479 103.1229615  23.0600812  70.8889171 103.3416929
  22.7073058  69.4177830 103.3981993   7.9817717  62.0900279 116.9826432
   7.2399453  62.2382915 117.5691063   7.6610461  62.3508545 116.1193182
  24.2641331  67.7182184 104.6516946  24.7892655  68.0569457 103.9266266
  24.1763683  66.7829199 104.4680080  15.9261379  71.6316258 116.7806822
  16.2348506  71.3865404 117.6529522  16.7236861  71.8362896 116.2925692
  15.9481991  73.7854167 109.0112199  15.5086982  73.2930546 109.7045055
  16.6990108  73.2427135 108.7704274   8.4274330  69.9765708 109.0136827
   9.2532350  69.6769480 108.6335470   8.0768382  69.2073331 109.4626615
  13.3955863  69.3292176 111.0834500  12.7735873  68.6662881 110.7836728
  14.0660730  69.3553308 110.4008148   6.6282935  67.8952035 109.9725760
   5.7914844  67.4674209 109.7909762   6.6006581  68.0884478 110.9096552
  13.4680391  57.8073964 120.6767006  13.5168546  58.6836087 120.2944776
  14.0102905  57.2651358 120.1038650  23.9535237  68.3515088 119.9568143
  23.1630780  68.3339227 119.4172643  23.7168591  68.8903381 120.7117180
  24.0733112  65.2007554 117.2700872  24.1231117  65.0357562 118.2116395
  23.9647035  64.3334813 116.8798753  12.9569370  67.8796100 104.5592961
  13.1057491  68.5631564 103.9059634  13.7635814  67.8601190 105.0742417
  21.3636874  61.1838482 118.5860179  22.2646737  61.0444947 118.2944177
  21.4384849  61.3492937 119.5258356  15.6979679  58.5605337 117.4313365
  14.8282989  58.8538903 117.1595954  15.9339160  59.1445782 118.1520629
  25.5751308  67.6204496 117.5142894  25.2836117  67.9834476 118.3506355
  24.9623440  66.9071504 117.3356226  26.7746991  65.1857375 110.0345464
  27.6093882  65.6247179 110.1983024  26.9106120  64.7096029 109.2153710
  23.8238497  62.7437110 115.9822952  24.2992618  62.9364757 115.1741803
  22.9004062  62.7996296 115.7366335  10.7122003  63.9061277 105.5654030
  10.4668045  63.0023607 105.7634240  10.8817918  63.9078428 104.6233508
  18.4018713  54.7784954 114.9478785  18.9200657  55.5145981 114.6225274
  18.0473846  55.0848947 115.7825545   9.9817651  59.6389635 103.0640191
   9.2886896  59.7133990 102.4080227   9.7369403  58.8749979 103.5861708
  18.6531307  51.1985236 110.4679682  18.9333061  50.5308425 111.0940109
  19.4381914  51.3914332 109.9554346  16.4564776  70.3744230 102.0304708
  15.8838743  70.9934417 101.5775180  17.0297570  70.9243592 102.5644630
  22.5240166  59.6202870 114.2151257  23.4757589  59.7200968 114.2363481
  22.3543616  58.8281139 114.7249341  20.5454545  56.7058454 114.4010658
  19.9504477  56.9863466 113.7057147  20.2604242  57.1952354 115.1727399
  19.6762036  70.6581380 103.1613291  20.6092709  70.5926942 103.3646166
  19.5885248  71.4937647 102.7027823  22.3050052  69.9747251 100.1217238
  22.2263684  69.6407114 101.0152996  23.1259719  70.4669019 100.1208711
  25.0028244  62.8408990 113.3293557  24.9704564  61.9024991 113.5153241
  25.6128867  62.9193027 112.5959382  16.8411574  61.7105043  99.3720761
  17.7870679  61.5811251  99.4409179  16.4625819  60.9719705  99.8490189
  25.1522732  59.6320033 113.3751840  24.6361781  58.8478490 113.1881769
  26.0362681  59.3038750 113.5398359  22.8133459  53.3761049 109.3347653
  22.6158280  53.0676137 110.2190985  23.4233165  54.1022688 109.4645582
  30.8204793  63.9024997 112.4699594  31.5508182  63.6410285 113.0307297
  30.2111739  63.1653719 112.5101662  28.9020090  62.0432859 113.0674045
  28.1753254  61.9088824 112.4590536  28.4867377  62.3509688 113.8730763
  16.7250267  65.7622789 120.8321418  17.6453276  65.9401388 121.0261464
  16.6899850  64.8178834 120.6801117  15.0254492  59.6355019  99.3075646
  14.1185947  59.3388132  99.3838360  15.3030473  59.3384837  98.4409932
   5.9432432  60.9561383 109.7574692   5.6235216  60.1026691 109.4649066
   5.3965860  61.1709961 110.5132660   9.7212339  63.6723824 113.4744199
   9.9398349  64.6040932 113.4932233  10.1338113  63.3131798 114.2599003
  16.6416557  54.1791909 105.4619887  15.8317286  53.8338994 105.8375133
  17.3300974  53.8699453 106.0507499  18.5707106  53.2569956 107.0844184
  19.1238144  53.6765409 107.7434207  18.8077192  52.3305704 107.1267140
  14.5940205  59.2457030 122.8646948  14.4936932  60.1951386 122.7959039
  14.3761747  58.9175268 121.9923018  13.7953276  56.4941955  99.4487625
  14.6572440  56.8196853  99.7083443  13.9803620  55.7073450  98.9360691
   5.8120692  64.5764294 111.7267814   5.1184163  64.1618247 111.2137768
   6.5593683  64.6184831 111.1301233  21.9485913  55.3670481 106.5922848
  21.3684582  56.0255285 106.2100901  21.6821845  54.5447826 106.1810266
  20.3989479  54.7675539 108.7944169  20.8989257  54.8792073 107.9858487
  21.0425087  54.4636592 109.4344977  14.4571475  62.6754168 121.6812010
  13.9738557  63.4754528 121.8875899  14.5432414  62.6862113 120.7279454
   7.7257434  64.5082548 109.6033829   7.7028123  64.6070235 108.6515712
   8.0358071  65.3547699 109.9250995  10.3844812  66.5658703 113.7180443
  11.3388066  66.5342645 113.6510375  10.1857336  66.1049327 114.5330669
  10.9744194  65.1359819 116.2851241  11.7937083  65.6303898 116.3086078
  11.2481002  64.2191787 116.2568808  20.7310791  57.5270571 105.6479197
  19.8436646  57.8120222 105.4299391  21.1464780  57.3664335 104.8006473
  24.0825327  57.5517092 109.3633536  24.8585717  58.0413545 109.6358153
  23.3573461  57.9775147 109.8205405  26.5197885  58.2644712 110.4207476
  27.1142376  58.0240448 109.7100785  26.5924469  57.5451842 111.0481013
   8.7395041  72.1078323 110.7350641   8.6049509  71.3478723 110.1688639
   8.3227103  72.8319222 110.2679430  19.8754004  67.2915246  99.7427216
  20.5789854  67.4965249 100.3584872  19.1516653  67.8592008 100.0076300
  20.7051814  63.0425107 105.8629487  20.6487016  63.4993659 105.0237119
  21.2580157  62.2815792 105.6852329  24.5156620  58.8314839 106.6879606
  24.2593555  58.4311475 107.5187814  23.8909488  59.5458633 106.5629745
  28.8268958  61.5710912 109.1950898  28.2668516  61.6404102 109.9682460
  28.2212462  61.3951897 108.4750394  11.8964167  73.0047640 110.9469084
  11.7796551  73.9493072 110.8447774  11.0756613  72.7021201 111.3354883
  21.7840702  67.7297775 101.7925677  22.6186305  67.2978974 101.6103151
  21.6225044  67.5579789 102.7202571  21.4386594  64.2329889 103.1582016
  21.3835397  64.0674160 102.2170460  20.8132649  64.9405922 103.3144206
   6.2279109  59.4697953 116.9843438   6.8737972  58.9596907 117.4730663
   6.0196260  60.2066635 117.5586863  18.7532501  66.5378800 122.4835579
  19.6223661  66.7119453 122.1222214  18.2739252  67.3573217 122.3611308
  14.7482719  53.7337998 102.7367334  14.7361389  54.6779838 102.8935605
  15.6406141  53.5508143 102.4426795  12.9218681  73.6575901 114.1625012
  13.8245928  73.6899512 114.4791507  12.6956051  72.7276352 114.1771348
  14.6772283  72.4106888 110.8235091  13.7267914  72.4108750 110.7099463
  14.9804769  71.6639623 110.3071126  18.5634839  50.3280774 106.9913271
  17.7967234  49.7739261 107.1369953  18.9745544  50.4002643 107.8527423
  10.5676600  56.6165570 121.0818452  11.4308061  56.2602375 121.2921777
   9.9942010  56.2779465 121.7693857  30.4124977  78.2467426 111.8880853
  31.0503387  78.1274174 111.1844193  30.2945820  79.1948270 111.9468805
  27.2214683  78.1994855 111.8242378  26.8833194  78.0835919 110.9362913
  28.0904451  77.7986020 111.8043384  23.0801499  80.0530331 107.8139269
  22.5166364  79.9620268 107.0455557  22.9653894  79.2330235 108.2941761
  27.7034466  79.3529706 117.7828584  27.6923107  78.9582505 116.9109087
  27.8655105  78.6195779 118.3762355  20.6265931  81.5481523 110.6523489
  21.4187222  81.2072347 110.2369789  20.8662581  81.6576498 111.5725643
  28.6601057  83.7201299 103.1253734  28.0089037  84.3055379 102.7387748
  29.4545420  84.2507494 103.1848771  22.5856684  80.8090436 103.5240868
  23.3587560  80.2619423 103.3853744  22.9382083  81.6734685 103.7355330
  24.4241727  82.1366818 116.7307767  24.1331593  83.0412449 116.6154434
  25.0598711  82.1783346 117.4451837  25.3497934  79.5143667 113.3209127
  25.9461506  79.2899689 112.6066090  25.4072905  78.7728412 113.9234575
  24.9222962  76.9683102 101.1559318  25.1748483  76.4464623 100.3942781
  23.9847521  76.8049247 101.2586002  29.9666245  75.9718880 108.9634061
  30.7529334  75.5538303 108.6124478  30.2304949  76.8764972 109.1315710
  30.1376322  81.4091731 103.6622718  29.5022155  81.4826357 104.3743623
  29.8073729  81.9985329 102.9841797  35.3674672  75.9094113 109.8667040
  36.0999844  75.3393330 110.1004869  34.6114028  75.5215714 110.3073545
  24.6419251  78.8711208 103.3583693  24.5255509  78.1956111 104.0264777
  24.7521511  78.3843582 102.5415846  26.9850792  78.3321355 107.0630382
  26.6208999  77.8051976 107.7743304  27.8417908  77.9419824 106.8896868
  32.8900093  69.6215688 114.3261648  32.5583417  70.4911099 114.1022863
  32.2945706  69.3051972 115.0055679  26.6256279  73.3611255 102.0591731
  26.7930681  74.2291491 102.4262202  26.4353448  73.5238536 101.1353020
  29.3831612  81.8228234 113.7257561  29.0832335  82.7253272 113.6173368
  29.0382672  81.5560417 114.5778714  22.8344094  78.2742030 109.7594266
  21.9094590  78.1418245 109.9671957  23.0828507  79.0536250 110.2564208
  32.7828756  74.3410774 111.4054998  31.8745633  74.2726182 111.1113759
  32.7316352  74.8182719 112.2336824  26.6045500  75.8168912 103.0438398
  26.4845125  76.2625963 103.8823878  25.9098088  76.1654230 102.4851936
  20.1952905  77.9175304 110.5938055  20.3245286  78.1709783 111.5077466
  19.5150356  78.5103012 110.2742710  24.3652392  88.5872554 106.6928529
  24.2876422  89.5380379 106.7717009  23.7614036  88.2418426 107.3503455
  26.8569622  75.7600419 119.3489896  26.0802956  76.3194339 119.3392760
  27.4960185  76.2457202 119.8704766  34.6490402  72.5427212 113.1832872
  34.0064783  72.8359745 112.5372667  34.1445331  72.4280132 113.9886069
  32.3030566  76.2890385 103.8718732  33.2148422  76.5217772 103.6966429
  31.7940213  76.8727430 103.3093810  25.1115994  78.5685873 118.9107863
  25.8530678  79.1070917 118.6342686  24.4052979  79.1952161 119.0679415
  30.5871334  80.7115013 117.5080024  30.9954690  80.2697424 116.7634657
  29.8648595  80.1367641 117.7614217  26.9402404  75.6487620 114.8813581
  27.7863599  76.0727033 115.0248230  26.8801041  74.9921244 115.5752144
  30.9100148  81.2716204 111.2632313  30.2809011  81.4361918 110.5608381
  30.5225810  81.6857813 112.0343277  34.7889380  82.2070642 108.6176677
  34.1040418  82.5869543 108.0673710  34.8733229  82.8165968 109.3508625
  30.0901849  73.3091988 116.5394755  29.8462781  74.0634049 116.0029031
  30.3661780  73.6877336 117.3742002  32.0440312  79.8530601 115.2172020
  32.2557207  80.4962361 114.5406402  31.9970060  79.0192917 114.7493951
  29.6466541  72.4648421 112.1208593  28.7851020  72.7629675 112.4125330
  29.6728975  72.6818820 111.1889625  26.4628110  81.0090612 108.5282398
  26.9266456  81.2878315 107.7387021  26.1984908  80.1074056 108.3455489
  23.3552191  80.5562093 111.4662161  23.9253548  80.9849362 110.8279646
  23.9460303  80.2744678 112.1646347  25.3996996  77.1313764 105.3371963
  26.1021040  77.5834808 105.8045890  25.0677625  76.4897583 105.9651857
  23.8477358  75.7225521 119.7123173  23.2176018  76.4041802 119.9458570
  23.7413446  75.6108602 118.7676311  19.1422330  75.3897317 110.6389097
  18.3521384  75.6454845 110.1629208  19.6333578  76.2045655 110.7441137
  33.1586140  82.7302556 113.3894378  33.9803583  82.3282743 113.1077059
  33.1548543  82.6270790 114.3410494  21.0937076  75.7541896 107.5972574
  20.2968239  75.8660590 108.1156069  20.8662668  76.0928548 106.7313464
  26.9242743  82.2786599 115.5455088  26.9887176  82.7407007 116.3813260
  26.2153667  81.6483964 115.6737398  17.4260033  75.6427807 113.0704088
  17.6768072  76.5274817 113.3361664  17.9619582  75.4632409 112.2979180
  41.2492133  79.0741305 109.7379349  40.4955841  78.5048703 109.5823354
  41.3839674  79.0403969 110.6849984  26.6390761  83.9454707 105.4134069
  26.5036436  84.7906243 105.8418916  27.1800573  84.1473985 104.6500002
  23.1258100  70.0246287 122.0748424  22.7325046  69.4712485 122.7496068
  23.9424241  70.3356865 122.4654941  20.0920158  81.4630145 105.9861994
  20.6044679  82.2573395 106.1367558  20.7442871  80.7656435 105.9195595
  21.9015043  84.5795901 108.0684747  22.0781671  85.5013866 107.8805731
  22.6971876  84.2654320 108.4979127  26.0426061  71.4404166 119.6668680
  26.7835775  72.0411319 119.5873143  26.2743984  70.6981804 119.1086723
  21.1867399  76.6260533 117.9446910  21.0720915  75.7245790 118.2454009
  20.3311917  76.8724230 117.5931727  28.2659237  84.5678273 119.5434411
  27.8223091  83.7814652 119.2255315  28.9276451  84.7557424 118.8778301
  23.0246358  86.0974075 114.0695089  23.5753784  85.9691138 113.2972083
  22.1857834  86.3968964 113.7189982  30.3640475  84.8481073 117.5715812
  30.3458951  85.6689954 117.0796081  31.2860395  84.7235149 117.7965953
  26.8213529  82.3625203 118.4139320  27.3541866  81.6013491 118.1838628
  26.2927611  82.0698855 119.1563475  29.9883224  67.4685269 113.9432962
  29.6447494  68.3586910 113.8672073  30.3562187  67.2786926 113.0802547
  18.0569075  79.7918799 106.7621564  18.8944297  80.2015808 106.5455272
  18.2347343  78.8518241 106.7321758  29.9533507  77.4593880 102.4505397
  29.4380131  78.2298484 102.6893785  29.6810816  76.7859016 103.0738459
  27.5380618  72.3043581 107.5090636  26.6822214  71.9150431 107.3296274
  27.9507570  72.3835541 106.6490421  29.0679765  69.8389924 111.9082195
  28.5644560  69.8020059 111.0950001  29.3610372  70.7482667 111.9678852
  25.3122651  69.9228654 110.9148377  26.1775647  69.7271462 110.5554267
  25.3800160  69.6939005 111.8417734  34.9267781  80.2126235 104.3858571
  34.1497224  79.8737394 103.9413733  35.6059262  80.2178858 103.7113536
  29.7419810  75.3320972 104.2765178  29.4369946  75.6467121 105.1275322
  30.6950252  75.4102392 104.3192511  28.1866242  81.4911195 105.9258132
  27.6587604  80.7563955 105.6131370  27.6853745  82.2685872 105.6798101
  33.1659088  79.6860216 111.0425179  32.5082763  80.3759477 111.1305307
  33.9699487  80.0756648 111.3859165  22.9184970  72.1530862 108.2864744
  23.4928722  71.9306043 107.5537937  23.5055952  72.2219556 109.0393345
  31.9764547  78.0404588 109.0929120  32.4896429  78.6734580 109.5950830
  32.6265771  77.4405784 108.7272480  23.2454557  74.1835323 102.3060629
  22.4091869  74.5210009 102.6269904  23.1059327  74.0484302 101.3687766
  25.2207637  69.0272110 107.0139813  24.5672050  68.7121128 106.3896428
  25.1788112  68.4047851 107.7399636  26.3318842  79.3091406  98.9293105
  25.4245904  79.0780659  99.1284254  26.8289874  78.5129025  99.1167087
  29.2386921  88.0188913 101.8489792  28.5648620  88.3220609 102.4574749
  29.6252743  88.8217993 101.4995249  28.4545378  75.5154044 111.3387461
  27.5367939  75.7368991 111.1809149  28.8705521  75.5900354 110.4799168
  29.2380426  76.9145460 106.4690141  29.9852245  77.4266857 106.1597263
  29.5072015  76.5929512 107.3294535  27.5107076  79.4104000 103.4517095
  26.6018295  79.1263033 103.5489565  27.5402160  79.8303079 102.5920402
  32.7426343  83.0210590 107.2208263  32.2888670  82.1801500 107.2773453
  32.1120310  83.6571988 107.5583043  31.6859263  73.9502576 108.4508930
  30.9482020  73.4379962 108.7819173  31.9386036  73.5102958 107.6392207
  31.1859282  84.8587087 108.1558081  31.4782257  85.4192144 107.4370447
  31.6957903  85.1515648 108.9111240  31.7870890  66.7278828 109.0450700
  32.0929767  65.8676191 108.7576615  32.5123495  67.3196448 108.8449694
  18.0795246  77.1309515 107.4332298  17.8819646  76.5378875 106.7083364
  17.5241910  76.8261725 108.1508236  26.0591970  77.0232621 109.5526891
  26.1140580  76.0706457 109.4769367  25.2483172  77.1792060 110.0368189
  27.2083164  80.9512744 100.7905174  26.7702593  80.2348603 100.3310811
  27.9493604  81.1788859 100.2290265  23.9984330  75.6409681 107.3117270
  23.1852195  75.9403851 107.7182462  24.4943324  75.2465370 108.0291752
  26.1492908  85.6367438 109.2451534  26.1069086  85.8628284 108.3160066
  27.0655606  85.4030812 109.3937336  29.5958541  76.1051505 116.1432164
  29.9507929  76.3322978 117.0026629  30.2430673  76.4369882 115.5209419
  35.3256278  79.2269941 106.8481493  35.1874177  79.4171537 105.9202682
  34.9692497  79.9889324 107.3049544  23.4898404  73.2128036 112.9278505
  24.1297784  73.0716795 112.2301468  22.6575935  72.9262550 112.5517107
  35.3525658  81.2946468 111.8592764  35.7862165  81.2021757 112.7075818
  36.0657239  81.2703969 111.2212780  24.2658708  82.5130467 109.0413497
  25.0599307  82.0180787 108.8396072  23.5550401  81.9848330 108.6781203
  29.0853553  84.8948562 113.3925865  29.1390575  85.4639499 114.1603581
  28.2168334  85.0650447 113.0279902  20.5741472  76.6573548 105.1173250
  19.6439060  76.5958004 105.3343212  20.6698944  76.1349501 104.3209891
  20.4927021  73.1828361 107.7051491  20.7533838  74.0973695 107.5960652
  21.3144193  72.7152804 107.8548104  21.9651946  74.5966118 114.8750316
  22.6375000  74.3883481 114.2262965  21.1381733  74.3988204 114.4355548
  36.2141208  81.3370169 114.3925650  36.4077098  82.2415979 114.6384924
  36.1141826  80.8777588 115.2264235  27.8677518  71.2228059 116.8915977
  27.2205433  71.9218009 116.7980453  28.6378534  71.6564203 117.2592225
  31.2756316  81.4876912 119.9666530  31.1241823  81.2587463 119.0496614
  31.2660996  82.4447513 119.9797875  28.0441653  79.0608824 114.9512797
  28.9733713  79.2119984 114.7781764  27.6232683  79.1492845 114.0961443
  26.8429984  83.0859489 112.7211334  26.7041070  82.7178273 113.5937272
  26.0544581  83.6007128 112.5495292  27.4378136  88.1868585 104.0636871
  27.6129892  87.7156628 104.8782493  26.7510924  88.8134351 104.2918131
  28.3935200  82.4641091 110.1100172  28.0585032  82.4241861 111.0057822
  27.8939145  81.7985807 109.6370582  22.3679443  77.8708721 115.6352753
  22.2299241  77.1388960 116.2364292  23.2784367  77.7817622 115.3536941
  31.3294391  79.8097126 100.3837232  30.7123562  79.0843954 100.2870284
  30.8610880  80.5706486 100.0404306  24.9961744  77.5828681 115.1236433
  25.7061363  76.9421873 115.0823051  24.9531052  77.8341576 116.0462614
  32.9848523  84.5196034 118.0443012  32.9261069  83.8355254 117.3773595
  33.3868041  85.2615024 117.5923638  23.7090678  74.5693899 116.9432072
  23.1728035  74.1184637 117.5953669  23.1207387  74.7039807 116.2002537
  22.0039222  91.3357948 110.8376731  22.2435820  91.9676472 111.5155749
  21.1608418  90.9845988 111.1242090  23.1192937  74.0282550  99.5058536
  22.2422403  73.9071351  99.1420783  23.5950690  73.2368628  99.2537425
  32.9865930  82.4835618 116.2756992  32.0992709  82.1461540 116.3983391
  33.5564481  81.7518649 116.5125757  14.6395077  78.8159710 109.6000043
  15.3266117  78.5021440 109.0121058  14.4843206  79.7201074 109.3267294
  19.4429799  73.7049906 114.0285067  19.3587988  73.0975576 113.2935477
  18.6212506  74.1958925 114.0294563  26.5167083  87.1437070 113.2418235
  26.4437255  87.9492042 113.7537539  26.0744477  87.3429036 112.4166256
  26.3056863  86.3808840 106.7521056  25.5224385  86.9230521 106.8459281
  27.0049608  86.8982820 107.1515298  29.6153513  72.1903470 109.3955262
  30.1122213  71.4373432 109.0756332  28.8440495  72.2267786 108.8298471
  37.4683271  77.8943835 111.0373553  37.4573147  78.7768551 110.6667486
  36.6000650  77.5415386 110.8428090  28.9765767  87.0423904 115.3976394
  29.6893739  87.6771369 115.3252295  28.4855796  87.1387770 114.5816395
  30.6983294  80.9475157 106.9693685  29.7639573  81.0676620 106.7998390
  30.8759962  80.0447624 106.7053695  26.1988482  74.3320853 109.1226946
  25.8286270  73.7791893 109.8107852  26.6947574  73.7278986 108.5701946
  34.0855845  76.7892476 107.5043719  34.5516297  77.6220468 107.4304022
  34.5363346  76.3237458 108.2088978  24.0277681  84.7918348 116.2181964
  24.7287140  85.4254831 116.3711359  23.5572796  85.1333079 115.4577604
  32.1532076  83.1336298 104.5029871  32.4291920  83.0192892 105.4123745
  31.2836575  82.7353782 104.4642044  32.0572508  69.1573063 111.5434621
  31.1435588  69.3877290 111.7116828  32.4865609  69.2411507 112.3948653
  31.8278967  77.3462955 114.0434515  31.1750417  77.5938863 113.3886967
  32.2059346  76.5327093 113.7096992  28.7886140  87.3822648 108.1462685
  28.9708535  86.5644304 108.6090437  29.6119126  87.5990341 107.7087575
  29.1228306  86.3090834 105.4077733  29.6516072  85.7983288 104.7947896
  29.3856525  85.9933364 106.2723267  27.8766540  78.0882766 120.5300552
  27.2007177  77.9876896 121.2002927  28.6994173  77.9321980 120.9936549
  19.6245399  84.3254703 113.1513067  20.2098835  83.5798391 113.2840971
  19.4270237  84.6358660 114.0349731  22.4784054  87.3605950 108.1675509
  21.8094429  87.8452078 107.6839549  22.3396924  87.6075171 109.0818888
  14.2163053  76.8960303 111.8717510  14.2547153  76.3623894 112.6654628
  13.7103346  76.3695509 111.2528487  26.6189322  89.3949694 114.7658168
  27.1707630  89.5581315 115.5307253  26.9595516  89.9854132 114.0938193
  21.5953816  71.7424844 115.3680052  21.6595142  72.6039675 114.9557450
  21.5320936  71.1298845 114.6352411  21.0706088  73.8147976 119.0153087
  21.6978127  73.4325053 119.6290611  20.2134007  73.5962178 119.3808779
  31.4700197  84.2210951 120.6206822  32.0140101  84.8340910 120.1261777
  30.8887042  84.7790530 121.1373835  17.8471631  75.6224405 104.9471442
  18.1425072  74.7135084 104.8938495  16.9459667  75.6012145 104.6252444
  29.7557710  87.3431669 111.7521850  29.6308849  86.5421409 111.2432795
  30.4136801  87.8377863 111.2635820  21.3765878  73.6980402 110.9298990
  20.6552464  74.3116370 110.7906463  22.1659134  74.2338167 110.8515636
  31.8192618  85.1440689 113.3801400  30.8722954  85.0246041 113.3079727
  32.1675391  84.2563187 113.4627661  24.1792191  71.0334828 117.2039642
  24.7026593  71.2797125 117.9665951  23.9604525  71.8654863 116.7842779
  19.5759473  73.3038503 105.0710767  19.2472179  72.4235882 104.8885873
  19.9298843  73.2486172 105.9587156  28.8239051  84.9393406 109.5805752
  28.6764014  84.0110113 109.7613322  29.6492545  84.9613496 109.0962827
  22.6901296  73.5911473 105.4386244  23.0297368  74.1197394 104.7164853
  23.1373416  73.9291879 106.2144811  32.4273173  85.7621964 110.6670625
  33.3519721  85.5564826 110.5295076  32.2588477  85.5138366 111.5759966
  25.3844736  71.9748523 114.8889312  25.0441557  71.1756336 115.2909992
  24.6783743  72.2750234 114.3166146  26.0361208  69.0597836 113.3416635
  26.8587278  68.5858314 113.2195526  26.2799272  69.8388320 113.8415322
  24.6769443  72.0886094 103.6379537  25.3977805  72.4667347 103.1343254
  24.0534747  72.8074971 103.7414515  28.8200566  72.7931243 104.5737869
  29.0364180  73.6755881 104.2726698  28.3394633  72.4017457 103.8443511
  23.5599787  75.7516957 111.1508614  23.4144368  76.0657260 112.0432896
  23.0824991  76.3701857 110.5979513  25.4196170  72.7419504 111.1989504
  25.4057739  71.8460598 110.8621802  26.1368598  72.7490168 111.8327790
  27.2722301  73.1756845 113.2442631  27.0140078  74.0973915 113.2426961
  26.7407341  72.7787279 113.9343095  32.2168489  86.2807632 106.0232716
  32.3905367  85.7154054 105.2706569  32.7097381  87.0808527 105.8412206
  18.0345449  78.2922301 114.0896275  17.4898917  79.0682109 114.2216550
  18.9124799  78.6393105 113.9315397  24.8233066  71.6233885 106.4677074
  24.9448977  70.6950531 106.6667961  24.5335108  71.6372571 105.5555389
  27.6924256  69.3088795 109.6043794  27.7145953  69.3728128 108.6495773
  28.1092315  68.4693304 109.7984300  38.0707881  79.0444055 107.6423016
  38.5139027  78.2951380 107.2442139  37.1934391  79.0354191 107.2596748
  33.2043662  85.5974396 103.1229615  33.8994567  86.2181089 103.3416929
  33.5466812  84.7469747 103.3981993  18.8211471  77.4192197 116.9826432
  18.0793207  77.5674833 117.5691063  18.5004215  77.6800463 116.1193182
  35.1035085  83.0474102 104.6516946  35.6286409  83.3861375 103.9266266
  35.0157438  82.1121117 104.4680080  26.7655134  86.9608175 116.7806822
  27.0742260  86.7157322 117.6529522  27.5630616  87.1654814 116.2925692
  26.7875746  89.1146085 109.0112199  26.3480736  88.6222464 109.7045055
  27.5383863  88.5719053 108.7704274  19.2668085  85.3057626 109.0136827
  20.0926105  85.0061398 108.6335470  18.9162137  84.5365248 109.4626615
  24.2349618  84.6584094 111.0834500  23.6129627  83.9954799 110.7836728
  24.9054485  84.6845226 110.4008148  17.4676690  83.2243952 109.9725760
  16.6308598  82.7966127 109.7909762  17.4400335  83.4176396 110.9096552
  24.3074145  73.1365882 120.6767006  24.3562301  74.0128005 120.2944776
  24.8496660  72.5943275 120.1038650  34.7928991  83.6807005 119.9568143
  34.0024535  83.6631144 119.4172643  34.5562346  84.2195299 120.7117180
  34.9126866  80.5299472 117.2700872  34.9624871  80.3649479 118.2116395
  34.8040789  79.6626731 116.8798753  23.7963125  83.2088017 104.5592961
  23.9451245  83.8923482 103.9059634  24.6029568  83.1893108 105.0742417
  32.2030629  76.5130400 118.5860179  33.1040491  76.3736865 118.2944177
  32.2778603  76.6784855 119.5258356  26.5373434  73.8897255 117.4313365
  25.6676743  74.1830821 117.1595954  26.7732914  74.4737700 118.1520629
  36.4145063  82.9496413 117.5142894  36.1229871  83.3126394 118.3506355
  35.8017194  82.2363422 117.3356226  37.6140745  80.5149293 110.0345464
  38.4487637  80.9539097 110.1983024  37.7499874  80.0387946 109.2153710
  34.6632251  78.0729028 115.9822952  35.1386373  78.2656674 115.1741803
  33.7397817  78.1288214 115.7366335  21.5515758  79.2353195 105.5654030
  21.3061800  78.3315525 105.7634240  21.7211672  79.2370346 104.6233508
  29.2412468  70.1076871 114.9478785  29.7594412  70.8437898 114.6225274
  28.8867600  70.4140865 115.7825545  20.8211405  74.9681553 103.0640191
  20.1280650  75.0425908 102.4080227  20.5763157  74.2041896 103.5861708
  29.4925062  66.5277154 110.4679682  29.7726816  65.8600343 111.0940109
  30.2775669  66.7206250 109.9554346  27.2958530  85.7036148 102.0304708
  26.7232497  86.3226335 101.5775180  27.8691324  86.2535510 102.5644630
  33.3633920  74.9494788 114.2151257  34.3151343  75.0492886 114.2363481
  33.1937371  74.1573057 114.7249341  31.3848300  72.0350371 114.4010658
  30.7898232  72.3155384 113.7057147  31.0997996  72.5244272 115.1727399
  30.5155790  85.9873298 103.1613291  31.4486463  85.9218860 103.3646166
  30.4279003  86.8229565 102.7027823  33.1443807  85.3039168 100.1217238
  33.0657438  84.9699032 101.0152996  33.9653474  85.7960936 100.1208711
  35.8421998  78.1700908 113.3293557  35.8098318  77.2316908 113.5153241
  36.4522622  78.2484944 112.5959382  27.6805329  77.0396961  99.3720761
  28.6264434  76.9103169  99.4409179  27.3019574  76.3011623  99.8490189
  35.9916486  74.9611951 113.3751840  35.4755535  74.1770408 113.1881769
  36.8756435  74.6330668 113.5398359  33.6527213  68.7052967 109.3347653
  33.4552035  68.3968055 110.2190985  34.2626919  69.4314606 109.4645582
  41.6598548  79.2316915 112.4699594  42.3901936  78.9702203 113.0307297
  41.0505493  78.4945636 112.5101662  39.7413845  77.3724777 113.0674045
  39.0147009  77.2380742 112.4590536  39.3261132  77.6801606 113.8730763
  27.5644021  81.0914707 120.8321418  28.4847031  81.2693306 121.0261464
  27.5293604  80.1470752 120.6801117  25.8648246  74.9646937  99.3075646
  24.9579701  74.6680050  99.3838360  26.1424227  74.6676755  98.4409932
  16.7826186  76.2853300 109.7574692  16.4628971  75.4318609 109.4649066
  16.2359615  76.5001879 110.5132660  20.5606094  79.0015741 113.4744199
  20.7792104  79.9332849 113.4932233  20.9731868  78.6423716 114.2599003
  27.4810312  69.5083827 105.4619887  26.6711040  69.1630912 105.8375133
  28.1694729  69.1991370 106.0507499  29.4100860  68.5861874 107.0844184
  29.9631899  69.0057327 107.7434207  29.6470946  67.6597622 107.1267140
  25.4333959  74.5748947 122.8646948  25.3330686  75.5243304 122.7959039
  25.2155501  74.2467186 121.9923018  24.6347031  71.8233872  99.4487625
  25.4966195  72.1488771  99.7083443  24.8197375  71.0365368  98.9360691
  16.6514446  79.9056212 111.7267814  15.9577918  79.4910165 111.2137768
  17.3987437  79.9476748 111.1301233  32.7879667  70.6962399 106.5922848
  32.2078336  71.3547203 106.2100901  32.5215600  69.8739743 106.1810266
  31.2383233  70.0967456 108.7944169  31.7383012  70.2083991 107.9858487
  31.8818841  69.7928509 109.4344977  25.2965229  78.0046086 121.6812010
  24.8132311  78.8046446 121.8875899  25.3826168  78.0154031 120.7279454
  18.5651189  79.8374466 109.6033829  18.5421877  79.9362153 108.6515712
  18.8751825  80.6839617 109.9250995  21.2238567  81.8950621 113.7180443
  22.1781820  81.8634563 113.6510375  21.0251090  81.4341244 114.5330669
  21.8137949  80.4651737 116.2851241  22.6330838  80.9595815 116.3086078
  22.0874757  79.5483705 116.2568808  31.5704545  72.8562489 105.6479197
  30.6830400  73.1412140 105.4299391  31.9858534  72.6956252 104.8006473
  34.9219081  72.8809010 109.3633536  35.6979471  73.3705463 109.6358153
  34.1967215  73.3067064 109.8205405  37.3591640  73.5936629 110.4207476
  37.9536131  73.3532365 109.7100785  37.4318224  72.8743760 111.0481013
  19.5788796  87.4370240 110.7350641  19.4443264  86.6770641 110.1688639
  19.1620858  88.1611140 110.2679430  30.7147759  82.6207164  99.7427216
  31.4183609  82.8257166 100.3584872  29.9910407  83.1883926 100.0076300
  31.5445569  78.3717025 105.8629487  31.4880770  78.8285576 105.0237119
  32.0973911  77.6107710 105.6852329  35.3550375  74.1606757 106.6879606
  35.0987309  73.7603393 107.5187814  34.7303243  74.8750551 106.5629745
  39.6662713  76.9002830 109.1950898  39.1062271  76.9696019 109.9682460
  39.0606216  76.7243815 108.4750394  22.7357921  88.3339557 110.9469084
  22.6190306  89.2784990 110.8447774  21.9150368  88.0313119 111.3354883
  32.6234456  83.0589693 101.7925677  33.4580060  82.6270891 101.6103151
  32.4618799  82.8871707 102.7202571  32.2780348  79.5621806 103.1582016
  32.2229152  79.3966078 102.2170460  31.6526403  80.2697839 103.3144206
  17.0672863  74.7989871 116.9843438  17.7131727  74.2888825 117.4730663
  16.8590014  75.5358552 117.5586863  29.5926255  81.8670718 122.4835579
  30.4617415  82.0411370 122.1222214  29.1133007  82.6865135 122.3611308
  25.5876474  69.0629915 102.7367334  25.5755143  70.0071755 102.8935605
  26.4799896  68.8800061 102.4426795  23.7612436  88.9867819 114.1625012
  24.6639682  89.0191429 114.4791507  23.5349806  88.0568270 114.1771348
  25.5166038  87.7398806 110.8235091  24.5661669  87.7400667 110.7099463
  25.8198524  86.9931540 110.3071126  29.4028593  65.6572692 106.9913271
  28.6360989  65.1031179 107.1369953  29.8139298  65.7294561 107.8527423
  21.4070354  71.9457488 121.0818452  22.2701816  71.5894293 121.2921777
  20.8335765  71.6071383 121.7693857  41.2518731  93.5759344 111.8880853
  41.8897141  93.4566091 111.1844193  41.1339574  94.5240188 111.9468805
  38.0608437  93.5286772 111.8242378  37.7226949  93.4127837 110.9362913
  38.9298206  93.1277937 111.8043384  33.9195253  95.3822249 107.8139269
  33.3560118  95.2912186 107.0455557  33.8047648  94.5622153 108.2941761
  38.5428220  94.6821624 117.7828584  38.5316861  94.2874422 116.9109087
  38.7048860  93.9487697 118.3762355  31.4659685  96.8773440 110.6523489
  32.2580977  96.5364265 110.2369789  31.7056335  96.9868415 111.5725643
  39.4994812  99.0493216 103.1253734  38.8482792  99.6347297 102.7387748
  40.2939175  99.5799411 103.1848771  33.4250439  96.1382353 103.5240868
  34.1981315  95.5911341 103.3853744  33.7775838  97.0026603 103.7355330
  35.2635482  97.4658736 116.7307767  34.9725347  98.3704367 116.6154434
  35.8992466  97.5075263 117.4451837  36.1891688  94.8435584 113.3209127
  36.7855261  94.6191607 112.6066090  36.2466660  94.1020330 113.9234575
  35.7616717  92.2975020 101.1559318  36.0142237  91.7756541 100.3942781
  34.8241276  92.1341165 101.2586002  40.8060000  91.3010798 108.9634061
  41.5923089  90.8830221 108.6124478  41.0698704  92.2056890 109.1315710
  40.9770077  96.7383648 103.6622718  40.3415910  96.8118275 104.3743623
  40.6467483  97.3277247 102.9841797  46.2068427  91.2386031 109.8667040
  46.9393599  90.6685248 110.1004869  45.4507782  90.8507632 110.3073545
  35.4813006  94.2003126 103.3583693  35.3649264  93.5248029 104.0264777
  35.5915265  93.7135499 102.5415846  37.8244546  93.6613273 107.0630382
  37.4602754  93.1343894 107.7743304  38.6811662  93.2711742 106.8896868
  43.7293847  84.9507605 114.3261648  43.3977172  85.8203016 114.1022863
  43.1339460  84.6343889 115.0055679  37.4650033  88.6903172 102.0591731
  37.6324436  89.5583409 102.4262202  37.2747202  88.8530454 101.1353020
  40.2225367  97.1520151 113.7257561  39.9226090  98.0545190 113.6173368
  39.8776426  96.8852334 114.5778714  33.6737848  93.6033948 109.7594266
  32.7488345  93.4710162 109.9671957  33.9222261  94.3828167 110.2564208
  43.6222510  89.6702691 111.4054998  42.7139388  89.6018100 111.1113759
  43.5710106  90.1474636 112.2336824  37.4439254  91.1460830 103.0438398
  37.3238879  91.5917881 103.8823878  36.7491843  91.4946148 102.4851936
  31.0346659  93.2467222 110.5938055  31.1639040  93.5001701 111.5077466
  30.3544110  93.8394930 110.2742710  35.2046146 103.9164472 106.6928529
  35.1270176 104.8672297 106.7717009  34.6007790 103.5710344 107.3503455
  37.6963376  91.0892337 119.3489896  36.9196710  91.6486257 119.3392760
  38.3353939  91.5749120 119.8704766  45.4884157  87.8719130 113.1832872
  44.8458537  88.1651663 112.5372667  44.9839085  87.7572050 113.9886069
  43.1424320  91.6182303 103.8718732  44.0542177  91.8509690 103.6966429
  42.6333968  92.2019347 103.3093810  35.9509748  93.8977790 118.9107863
  36.6924433  94.4362834 118.6342686  35.2446734  94.5244079 119.0679415
  41.4265088  96.0406931 117.5080024  41.8348444  95.5989341 116.7634657
  40.7042350  95.4659558 117.7614217  37.7796158  90.9779538 114.8813581
  38.6257353  91.4018951 115.0248230  37.7194796  90.3213162 115.5752144
  41.7493903  96.6008121 111.2632313  41.1202765  96.7653836 110.5608381
  41.3619565  97.0149731 112.0343277  45.6283135  97.5362559 108.6176677
  44.9434173  97.9161461 108.0673710  45.7126984  98.1457886 109.3508625
  40.9295603  88.6383906 116.5394755  40.6856535  89.3925966 116.0029031
  41.2055534  89.0169254 117.3742002  42.8834066  95.1822518 115.2172020
  43.0950962  95.8254278 114.5406402  42.8363815  94.3484835 114.7493951
  40.4860295  87.7940339 112.1208593  39.6244774  88.0921593 112.4125330
  40.5122730  88.0110738 111.1889625  37.3021865  96.3382530 108.5282398
  37.7660210  96.6170233 107.7387021  37.0378663  95.4365974 108.3455489
  34.1945946  95.8854011 111.4662161  34.7647303  96.3141279 110.8279646
  34.7854058  95.6036596 112.1646347  36.2390751  92.4605682 105.3371963
  36.9414794  92.9126726 105.8045890  35.9071379  91.8189501 105.9651857
  34.6871112  91.0517439 119.7123173  34.0569773  91.7333719 119.9458570
  34.5807200  90.9400520 118.7676311  29.9816085  90.7189235 110.6389097
  29.1915139  90.9746763 110.1629208  30.4727332  91.5337572 110.7441137
  43.9979894  98.0594474 113.3894378  44.8197338  97.6574661 113.1077059
  43.9942297  97.9562708 114.3410494  31.9330830  91.0833814 107.5972574
  31.1361993  91.1952508 108.1156069  31.7056422  91.4220466 106.7313464
  37.7636498  97.6078517 115.5455088  37.8280930  98.0698924 116.3813260
  37.0547422  96.9775882 115.6737398  28.2653788  90.9719725 113.0704088
  28.5161826  91.8566735 113.3361664  28.8013336  90.7924327 112.2979180
  52.0885887  94.4033222 109.7379349  51.3349596  93.8340620 109.5823354
  52.2233428  94.3695887 110.6849984  37.4784515  99.2746625 105.4134069
  37.3430190 100.1198160 105.8418916  38.0194328  99.4765902 104.6500002
  33.9651855  85.3538204 122.0748424  33.5718801  84.8004403 122.7496068
  34.7817995  85.6648783 122.4654941  30.9313913  96.7922063 105.9861994
  31.4438433  97.5865313 106.1367558  31.5836626  96.0948353 105.9195595
  32.7408797  99.9087819 108.0684747  32.9175426 100.8305784 107.8805731
  33.5365631  99.5946238 108.4979127  36.8819816  86.7696083 119.6668680
  37.6229529  87.3703237 119.5873143  37.1137739  86.0273721 119.1086723
  32.0261154  91.9552451 117.9446910  31.9114669  91.0537708 118.2454009
  31.1705672  92.2016148 117.5931727  39.1052992  99.8970191 119.5434411
  38.6616846  99.1106570 119.2255315  39.7670205 100.0849342 118.8778301
  33.8640113 101.4265993 114.0695089  34.4147538 101.2983056 113.2972083
  33.0251589 101.7260882 113.7189982  41.2034230 100.1772991 117.5715812
  41.1852705 100.9981872 117.0796081  42.1254150 100.0527066 117.7965953
  37.6607284  97.6917120 118.4139320  38.1935621  96.9305409 118.1838628
  37.1321365  97.3990772 119.1563475  40.8276979  82.7977186 113.9432962
  40.4841248  83.6878828 113.8672073  41.1955941  82.6078844 113.0802547
  28.8962829  95.1210717 106.7621564  29.7338051  95.5307725 106.5455272
  29.0741097  94.1810159 106.7321758  40.7927262  92.7885798 102.4505397
  40.2773885  93.5590402 102.6893785  40.5204570  92.1150934 103.0738459
  38.3774373  87.6335498 107.5090636  37.5215969  87.2442349 107.3296274
  38.7901324  87.7127459 106.6490421  39.9073519  85.1681842 111.9082195
  39.4038315  85.1311977 111.0950001  40.2004126  86.0774584 111.9678852
  36.1516405  85.2520571 110.9148377  37.0169402  85.0563380 110.5554267
  36.2193914  85.0230923 111.8417734  45.7661536  95.5418152 104.3858571
  44.9890979  95.2029312 103.9413733  46.4453017  95.5470775 103.7113536
  40.5813565  90.6612890 104.2765178  40.2763700  90.9759039 105.1275322
  41.5344007  90.7394310 104.3192511  39.0259997  96.8203113 105.9258132
  38.4981358  96.0855873 105.6131370  38.5247499  97.5977789 105.6798101
  44.0052843  95.0152133 111.0425179  43.3476517  95.7051395 111.1305307
  44.8093242  95.4048565 111.3859165  33.7578724  87.4822779 108.2864744
  34.3322476  87.2597961 107.5537937  34.3449707  87.5511474 109.0393345
  42.8158301  93.3696506 109.0929120  43.3290183  94.0026498 109.5950830
  43.4659525  92.7697702 108.7272480  34.0848311  89.5127240 102.3060629
  33.2485624  89.8501927 102.6269904  33.9453081  89.3776220 101.3687766
  36.0601392  84.3564028 107.0139813  35.4065804  84.0413045 106.3896428
  36.0181866  83.7339769 107.7399636  37.1712597  94.6383323  98.9293105
  36.2639659  94.4072577  99.1284254  37.6683629  93.8420942  99.1167087
  40.0780676 103.3480830 101.8489792  39.4042374 103.6512527 102.4574749
  40.4646498 104.1509911 101.4995249  39.2939132  90.8445962 111.3387461
  38.3761694  91.0660909 111.1809149  39.7099276  90.9192272 110.4799168
  40.0774180  92.2437377 106.4690141  40.8245999  92.7558775 106.1597263
  40.3465770  91.9221430 107.3294535  38.3500830  94.7395918 103.4517095
  37.4412050  94.4554951 103.5489565  38.3795914  95.1594997 102.5920402
  43.5820098  98.3502508 107.2208263  43.1282425  97.5093417 107.2773453
  42.9514064  98.9863906 107.5583043  42.5253017  89.2794494 108.4508930
  41.7875774  88.7671880 108.7819173  42.7779791  88.8394875 107.6392207
  42.0253037 100.1879004 108.1558081  42.3176011 100.7484061 107.4370447
  42.5351657 100.4807565 108.9111240  42.6264645  82.0570746 109.0450700
  42.9323521  81.1968109 108.7576615  43.3517249  82.6488366 108.8449694
  28.9189001  92.4601432 107.4332298  28.7213400  91.8670793 106.7083364
  28.3635665  92.1553642 108.1508236  36.8985724  92.3524539 109.5526891
  36.9534334  91.3998375 109.4769367  36.0876926  92.5083978 110.0368189
  38.0476918  96.2804662 100.7905174  37.6096348  95.5640521 100.3310811
  38.7887359  96.5080777 100.2290265  34.8378084  90.9701598 107.3117270
  34.0245950  91.2695769 107.7182462  35.3337078  90.5757287 108.0291752
  36.9886662 100.9659355 109.2451534  36.9462841 101.1920202 108.3160066
  37.9049361 100.7322730 109.3937336  40.4352296  91.4343423 116.1432164
  40.7901684  91.6614896 117.0026629  41.0824427  91.7661800 115.5209419
  46.1650033  94.5561859 106.8481493  46.0267931  94.7463455 105.9202682
  45.8086252  95.3181242 107.3049544  34.3292159  88.5419954 112.9278505
  34.9691538  88.4008713 112.2301468  33.4969690  88.2554467 112.5517107
  46.1919412  96.6238386 111.8592764  46.6255919  96.5313675 112.7075818
  46.9050993  96.5995886 111.2212780  35.1052463  97.8422384 109.0413497
  35.8993061  97.3472705 108.8396072  34.3944155  97.3140247 108.6781203
  39.9247307 100.2240480 113.3925865  39.9784330 100.7931416 114.1603581
  39.0562089 100.3942365 113.0279902  31.4135226  91.9865466 105.1173250
  30.4832814  91.9249922 105.3343212  31.5092698  91.4641419 104.3209891
  31.3320775  88.5120279 107.7051491  31.5927593  89.4265612 107.5960652
  32.1537948  88.0444721 107.8548104  32.8045701  89.9258036 114.8750316
  33.4768754  89.7175398 114.2262965  31.9775487  89.7280122 114.4355548
  47.0534962  96.6662086 114.3925650  47.2470852  97.5707897 114.6384924
  46.9535580  96.2069506 115.2264235  38.7071273  86.5519977 116.8915977
  38.0599188  87.2509927 116.7980453  39.4772288  86.9856121 117.2592225
  42.1150071  96.8168829 119.9666530  41.9635577  96.5879381 119.0496614
  42.1054750  97.7739431 119.9797875  38.8835407  94.3900742 114.9512797
  39.8127467  94.5411902 114.7781764  38.4626437  94.4784763 114.0961443
  37.6823739  98.4151406 112.7211334  37.5434825  98.0470191 113.5937272
  36.8938335  98.9299046 112.5495292  38.2771891 103.5160503 104.0636871
  38.4523647 103.0448546 104.8782493  37.5904679 104.1426269 104.2918131
  39.2328954  97.7933009 110.1100172  38.8978787  97.7533779 111.0057822
  38.7332900  97.1277725 109.6370582  33.2073198  93.2000639 115.6352753
  33.0692996  92.4680878 116.2364292  34.1178121  93.1109539 115.3536941
  42.1688146  95.1389043 100.3837232  41.5517316  94.4135872 100.2870284
  41.7004634  95.8998404 100.0404306  35.8355499  92.9120598 115.1236433
  36.5455117  92.2713791 115.0823051  35.7924807  93.1633493 116.0462614
  43.8242277  99.8487952 118.0443012  43.7654823  99.1647172 117.3773595
  44.2261796 100.5906942 117.5923638  34.5484433  89.8985816 116.9432072
  34.0121790  89.4476555 117.5953669  33.9601141  90.0331725 116.2002537
  32.8432976 106.6649866 110.8376731  33.0829574 107.2968390 111.5155749
  32.0002173 106.3137906 111.1242090  33.9586692  89.3574468  99.5058536
  33.0816158  89.2363268  99.1420783  34.4344445  88.5660546  99.2537425
  43.8259685  97.8127536 116.2756992  42.9386463  97.4753457 116.3983391
  44.3958236  97.0810567 116.5125757  25.4788832  94.1451627 109.6000043
  26.1659872  93.8313357 109.0121058  25.3236960  95.0492992 109.3267294
  30.2823554  89.0341824 114.0285067  30.1981743  88.4267494 113.2935477
  29.4606260  89.5250842 114.0294563  37.3560838 102.4728988 113.2418235
  37.2831009 103.2783960 113.7537539  36.9138231 102.6720954 112.4166256
  37.1450618 101.7100758 106.7521056  36.3618139 102.2522438 106.8459281
  37.8443363 102.2274738 107.1515298  40.4547268  87.5195388 109.3955262
  40.9515967  86.7665350 109.0756332  39.6834249  87.5559704 108.8298471
  48.3077025  93.2235753 111.0373553  48.2966901  94.1060468 110.6667486
  47.4394405  92.8707304 110.8428090  39.8159522 102.3715822 115.3976394
  40.5287494 103.0063287 115.3252295  39.3249550 102.4679688 114.5816395
  41.5377048  96.2767075 106.9693685  40.6033327  96.3968537 106.7998390
  41.7153717  95.3739542 106.7053695  37.0382236  89.6612771 109.1226946
  36.6680024  89.1083811 109.8107852  37.5341329  89.0570904 108.5701946
  44.9249600  92.1184394 107.5043719  45.3910052  92.9512386 107.4304022
  45.3757100  91.6529376 108.2088978  34.8671435 100.1210266 116.2181964
  35.5680895 100.7546748 116.3711359  34.3966550 100.4624997 115.4577604
  42.9925831  98.4628215 104.5029871  43.2685675  98.3484810 105.4123745
  42.1230330  98.0645700 104.4642044  42.8966263  84.4864981 111.5434621
  41.9829342  84.7169208 111.7116828  43.3259364  84.5703425 112.3948653
  42.6672721  92.6754873 114.0434515  42.0144171  92.9230780 113.3886967
  43.0453101  91.8619011 113.7096992  39.6279895 102.7114566 108.1462685
  39.8102289 101.8936222 108.6090437  40.4512881 102.9282258 107.7087575
  39.9622060 101.6382751 105.4077733  40.4909827 101.1275206 104.7947896
  40.2250280 101.3225281 106.2723267  38.7160294  93.4174684 120.5300552
  38.0400931  93.3168813 121.2002927  39.5387928  93.2613898 120.9936549
  30.4639153  99.6546621 113.1513067  31.0492590  98.9090308 113.2840971
  30.2663992  99.9650577 114.0349731  33.3177808 102.6897868 108.1675509
  32.6488184 103.1743996 107.6839549  33.1790678 102.9367088 109.0818888
  25.0556808  92.2252221 111.8717510  25.0940907  91.6915811 112.6654628
  24.5497101  91.6987426 111.2528487  37.4583077 104.7241611 114.7658168
  38.0101385 104.8873233 115.5307253  37.7989270 105.3146049 114.0938193
  32.4347570  87.0716761 115.3680052  32.4988897  87.9331592 114.9557450
  32.3714690  86.4590763 114.6352411  31.9099843  89.1439894 119.0153087
  32.5371881  88.7616971 119.6290611  31.0527762  88.9254096 119.3808779
  42.3093951  99.5502869 120.6206822  42.8533855 100.1632827 120.1261777
  41.7280796 100.1082447 121.1373835  28.6865385  90.9516323 104.9471442
  28.9818826  90.0427001 104.8938495  27.7853421  90.9304062 104.6252444
  40.5951464 102.6723587 111.7521850  40.4702604 101.8713327 111.2432795
  41.2530555 103.1669780 111.2635820  32.2159632  89.0272320 110.9298990
  31.4946218  89.6408287 110.7906463  33.0052888  89.5630084 110.8515636
  42.6586373 100.4732607 113.3801400  41.7116708 100.3537958 113.3079727
  43.0069146  99.5855105 113.4627661  35.0185946  86.3626746 117.2039642
  35.5420348  86.6089043 117.9665951  34.7998279  87.1946781 116.7842779
  30.4153227  88.6330421 105.0710767  30.0865933  87.7527800 104.8885873
  30.7692598  88.5778089 105.9587156  39.6632806 100.2685323 109.5805752
  39.5157768  99.3402031 109.7613322  40.4886299 100.2905414 109.0962827
  33.5295050  88.9203390 105.4386244  33.8691123  89.4489312 104.7164853
  33.9767171  89.2583797 106.2144811  43.2666928 101.0913882 110.6670625
  44.1913475 100.8856743 110.5295076  43.0982231 100.8430283 111.5759966
  36.2238491  87.3040441 114.8889312  35.8835311  86.5048254 115.2909992
  35.5177497  87.6042152 114.3166146  36.8754963  84.3889754 113.3416635
  37.6981032  83.9150232 113.2195526  37.1193026  85.1680237 113.8415322
  35.5163197  87.4178012 103.6379537  36.2371560  87.7959265 103.1343254
  34.8928501  88.1366889 103.7414515  39.6594320  88.1223161 104.5737869
  39.8757935  89.0047799 104.2726698  39.1788387  87.7309374 103.8443511
  34.3993542  91.0808874 111.1508614  34.2538122  91.3949177 112.0432896
  33.9218745  91.6993775 110.5979513  36.2589924  88.0711422 111.1989504
  36.2451493  87.1752515 110.8621802  36.9762353  88.0782086 111.8327790
  38.1116055  88.5048762 113.2442631  37.8533833  89.4265833 113.2426961
  37.5801096  88.1079197 113.9343095  43.0562244 101.6099549 106.0232716
  43.2299121 101.0445972 105.2706569  43.5491135 102.4100444 105.8412206
  28.8739204  93.6214219 114.0896275  28.3292672  94.3974027 114.2216550
  29.7518554  93.9685023 113.9315397  35.6626820  86.9525802 106.4677074
  35.7842732  86.0242449 106.6667961  35.3728863  86.9664488 105.5555389
  38.5318011  84.6380713 109.6043794  38.5539708  84.7020046 108.6495773
  38.9486070  83.7985222 109.7984300  48.9101635  94.3735972 107.6423016
  49.3532781  93.6243298 107.2442139  48.0328145  94.3646109 107.2596748
  44.0437416 100.9266314 103.1229615  44.7388321 101.5473007 103.3416929
  44.3860567 100.0761665 103.3981993  29.6605226  92.7484115 116.9826432
  28.9186962  92.8966750 117.5691063  29.3397970  93.0092380 116.1193182
  45.9428840  98.3766019 104.6516946  46.4680164  98.7153292 103.9266266
  45.8551192  97.4413035 104.4680080  37.6048888 102.2900093 116.7806822
  37.9136015 102.0449240 117.6529522  38.4024370 102.4946732 116.2925692
  37.6269500 104.4438003 109.0112199  37.1874491 103.9514381 109.7045055
  38.3777617 103.9010970 108.7704274  30.1061839 100.6349544 109.0136827
  30.9319859 100.3353315 108.6335470  29.7555891  99.8657166 109.4626615
  35.0743372  99.9876012 111.0834500  34.4523382  99.3246717 110.7836728
  35.7448239 100.0137144 110.4008148  28.3070444  98.5535870 109.9725760
  27.4702353  98.1258044 109.7909762  28.2794090  98.7468313 110.9096552
  35.1467900  88.4657800 120.6767006  35.1956055  89.3419923 120.2944776
  35.6890414  87.9235193 120.1038650  45.6322746  99.0098923 119.9568143
  44.8418289  98.9923062 119.4172643  45.3956100  99.5487217 120.7117180
  45.7520621  95.8591389 117.2700872  45.8018626  95.6941397 118.2116395
  45.6434544  94.9918648 116.8798753  34.6356879  98.5379935 104.5592961
  34.7845000  99.2215400 103.9059634  35.4423323  98.5185025 105.0742417
  43.0424383  91.8422317 118.5860179  43.9434246  91.7028782 118.2944177
  43.1172358  92.0076772 119.5258356  37.3767188  89.2189172 117.4313365
  36.5070498  89.5122738 117.1595954  37.6126669  89.8029617 118.1520629
  47.2538817  98.2788331 117.5142894  46.9623626  98.6418312 118.3506355
  46.6410949  97.5655339 117.3356226  48.4534500  95.8441211 110.0345464
  49.2881391  96.2831015 110.1983024  48.5893629  95.3679864 109.2153710
  45.5026006  93.4020946 115.9822952  45.9780127  93.5948592 115.1741803
  44.5791571  93.4580131 115.7366335  32.3909512  94.5645113 105.5654030
  32.1455554  93.6607443 105.7634240  32.5605427  94.5662263 104.6233508
  40.0806222  85.4368789 114.9478785  40.5988166  86.1729816 114.6225274
  39.7261355  85.7432782 115.7825545  31.6605160  90.2973470 103.0640191
  30.9674405  90.3717825 102.4080227  31.4156912  89.5333814 103.5861708
  40.3318816  81.8569072 110.4679682  40.6120570  81.1892261 111.0940109
  41.1169423  82.0498167 109.9554346  38.1352285 101.0328066 102.0304708
  37.5626252 101.6518253 101.5775180  38.7085079 101.5827427 102.5644630
  44.2027675  90.2786706 114.2151257  45.1545098  90.3784803 114.2363481
  44.0331125  89.4864974 114.7249341  42.2242054  87.3642289 114.4010658
  41.6291986  87.6447302 113.7057147  41.9391751  87.8536190 115.1727399
  41.3549545 101.3165216 103.1613291  42.2880218 101.2510777 103.3646166
  41.2672757 102.1521483 102.7027823  43.9837561 100.6331086 100.1217238
  43.9051193 100.2990950 101.0152996  44.8047228 101.1252854 100.1208711
  46.6815752  93.4992825 113.3293557  46.6492073  92.5608826 113.5153241
  47.2916376  93.5776862 112.5959382  38.5199083  92.3688878  99.3720761
  39.4658188  92.2395086  99.4409179  38.1413328  91.6303540  99.8490189
  46.8310241  90.2903869 113.3751840  46.3149290  89.5062325 113.1881769
  47.7150190  89.9622585 113.5398359  44.4920968  84.0344884 109.3347653
  44.2945789  83.7259973 110.2190985  45.1020673  84.7606523 109.4645582
  52.4992302  94.5608832 112.4699594  53.2295691  94.2994120 113.0307297
  51.8899248  93.8237554 112.5101662  50.5807599  92.7016695 113.0674045
  49.8540763  92.5672660 112.4590536  50.1654886  93.0093523 113.8730763
  38.4037776  96.4206624 120.8321418  39.3240785  96.5985223 121.0261464
  38.3687359  95.4762670 120.6801117  36.7042001  90.2938855  99.3075646
  35.7973456  89.9971967  99.3838360  36.9817982  89.9968673  98.4409932
  27.6219941  91.6145218 109.7574692  27.3022725  90.7610526 109.4649066
  27.0753369  91.8293796 110.5132660  31.3999848  94.3307659 113.4744199
  31.6185858  95.2624767 113.4932233  31.8125622  93.9715634 114.2599003
  38.3204066  84.8375744 105.4619887  37.5104795  84.4922829 105.8375133
  39.0088483  84.5283288 106.0507499  40.2494615  83.9153791 107.0844184
  40.8025653  84.3349245 107.7434207  40.4864701  82.9889539 107.1267140
  36.2727714  89.9040865 122.8646948  36.1724441  90.8535222 122.7959039
  36.0549256  89.5759104 121.9923018  35.4740785  87.1525790  99.4487625
  36.3359949  87.4780688  99.7083443  35.6591129  86.3657286  98.9360691
  27.4908201  95.2348130 111.7267814  26.7971672  94.8202082 111.2137768
  28.2381192  95.2768666 111.1301233  43.6273422  86.0254316 106.5922848
  43.0472091  86.6839120 106.2100901  43.3609354  85.2031661 106.1810266
  42.0776988  85.4259374 108.7944169  42.5776766  85.5375909 107.9858487
  42.7212596  85.1220427 109.4344977  36.1358984  93.3338004 121.6812010
  35.6526066  94.1338364 121.8875899  36.2219923  93.3445949 120.7279454
  29.4044943  95.1666383 109.6033829  29.3815632  95.2654071 108.6515712
  29.7145580  96.0131534 109.9250995  32.0632321  97.2242538 113.7180443
  33.0175575  97.1926481 113.6510375  31.8644845  96.7633162 114.5330669
  32.6531703  95.7943654 116.2851241  33.4724592  96.2887733 116.3086078
  32.9268511  94.8775623 116.2568808  42.4098300  88.1854407 105.6479197
  41.5224155  88.4704057 105.4299391  42.8252289  88.0248170 104.8006473
  45.7612836  88.2100928 109.3633536  46.5373226  88.6997380 109.6358153
  45.0360970  88.6358982 109.8205405  48.1985394  88.9228547 110.4207476
  48.7929885  88.6824283 109.7100785  48.2711978  88.2035678 111.0481013
  30.4182550 102.7662158 110.7350641  30.2837018 102.0062559 110.1688639
  30.0014612 103.4903058 110.2679430  41.5541513  97.9499081  99.7427216
  42.2577363  98.1549084 100.3584872  40.8304162  98.5175843 100.0076300
  42.3839323  93.7008943 105.8629487  42.3274525  94.1577494 105.0237119
  42.9367666  92.9399627 105.6852329  46.1944129  89.4898675 106.6879606
  45.9381064  89.0895310 107.5187814  45.5696997  90.2042469 106.5629745
  50.5056467  92.2294748 109.1950898  49.9456025  92.2987937 109.9682460
  49.8999971  92.0535732 108.4750394  33.5751676 103.6631475 110.9469084
  33.4584060 104.6076907 110.8447774  32.7544122 103.3605036 111.3354883
  43.4628211  98.3881611 101.7925677  44.2973814  97.9562809 101.6103151
  43.3012553  98.2163624 102.7202571  43.1174103  94.8913724 103.1582016
  43.0622906  94.7257995 102.2170460  42.4920158  95.5989757 103.3144206
  27.9066618  90.1281788 116.9843438  28.5525481  89.6180742 117.4730663
  27.6983769  90.8650470 117.5586863  40.4320010  97.1962636 122.4835579
  41.3011169  97.3703288 122.1222214  39.9526761  98.0157053 122.3611308
  36.4270228  84.3921833 102.7367334  36.4148898  85.3363673 102.8935605
  37.3193650  84.2091978 102.4426795  34.6006190 104.3159737 114.1625012
  35.5033437 104.3483347 114.4791507  34.3743560 103.3860188 114.1771348
  36.3559792 103.0690723 110.8235091  35.4055423 103.0692585 110.7099463
  36.6592278 102.3223458 110.3071126  40.2422348  80.9864610 106.9913271
  39.4754743  80.4323096 107.1369953  40.6533053  81.0586478 107.8527423
  32.2464109  87.2749405 121.0818452  33.1095570  86.9186210 121.2921777
  31.6729519  86.9363300 121.7693857  52.0912486 108.9051262 111.8880853
  52.7290896 108.7858009 111.1844193  51.9733328 109.8532106 111.9468805
  48.9002192 108.8578690 111.8242378  48.5620703 108.7419755 110.9362913
  49.7691960 108.4569855 111.8043384  44.7589008 110.7114166 107.8139269
  44.1953873 110.6204103 107.0455557  44.6441403 109.8914071 108.2941761
  49.3821975 110.0113542 117.7828584  49.3710616 109.6166340 116.9109087
  49.5442614 109.2779614 118.3762355  42.3053440 112.2065358 110.6523489
  43.0974731 111.8656183 110.2369789  42.5450090 112.3160333 111.5725643
  50.3388566 114.3785134 103.1253734  49.6876546 114.9639214 102.7387748
  51.1332929 114.9091329 103.1848771  44.2644193 111.4674271 103.5240868
  45.0375069 110.9203258 103.3853744  44.6169592 112.3318520 103.7355330
  46.1029236 112.7950653 116.7307767  45.8119102 113.6996284 116.6154434
  46.7386220 112.8367181 117.4451837  47.0285443 110.1727502 113.3209127
  47.6249015 109.9483524 112.6066090  47.0860414 109.4312247 113.9234575
  46.6010471 107.6266937 101.1559318  46.8535992 107.1048459 100.3942781
  45.6635030 107.4633083 101.2586002  51.6453754 106.6302716 108.9634061
  52.4316843 106.2122139 108.6124478  51.9092458 107.5348808 109.1315710
  51.8163831 112.0675566 103.6622718  51.1809664 112.1410192 104.3743623
  51.4861238 112.6569165 102.9841797  57.0462181 106.5677949 109.8667040
  57.7787353 105.9977166 110.1004869  56.2901537 106.1799549 110.3073545
  46.3206760 109.5295043 103.3583693  46.2043018 108.8539947 104.0264777
  46.4309020 109.0427417 102.5415846  48.6638301 108.9905190 107.0630382
  48.2996508 108.4635811 107.7743304  49.5205417 108.6003659 106.8896868
  54.5687602 100.2799523 114.3261648  54.2370926 101.1494934 114.1022863
  53.9733215  99.9635807 115.0055679  48.3043788 104.0195090 102.0591731
  48.4718190 104.8875326 102.4262202  48.1140957 104.1822372 101.1353020
  51.0619121 112.4812069 113.7257561  50.7619844 113.3837108 113.6173368
  50.7170181 112.2144252 114.5778714  44.5131603 108.9325866 109.7594266
  43.5882099 108.8002080 109.9671957  44.7616016 109.7120085 110.2564208
  54.4616265 104.9994609 111.4054998  53.5533142 104.9310018 111.1113759
  54.4103861 105.4766554 112.2336824  48.2833009 106.4752748 103.0438398
  48.1632634 106.9209798 103.8823878  47.5885597 106.8238065 102.4851936
  41.8740414 108.5759139 110.5938055  42.0032795 108.8293618 111.5077466
  41.1937865 109.1686847 110.2742710  46.0439901 119.2456389 106.6928529
  45.9663931 120.1964214 106.7717009  45.4401544 118.9002262 107.3503455
  48.5357131 106.4184255 119.3489896  47.7590465 106.9778175 119.3392760
  49.1747694 106.9041038 119.8704766  56.3277911 103.2011047 113.1832872
  55.6852292 103.4943581 112.5372667  55.8232840 103.0863968 113.9886069
  53.9818075 106.9474221 103.8718732  54.8935931 107.1801607 103.6966429
  53.4727722 107.5311265 103.3093810  46.7903503 109.2269708 118.9107863
  47.5318187 109.7654752 118.6342686  46.0840488 109.8535997 119.0679415
  52.2658843 111.3698849 117.5080024  52.6742199 110.9281259 116.7634657
  51.5436104 110.7951476 117.7614217  48.6189913 106.3071455 114.8813581
  49.4651108 106.7310869 115.0248230  48.5588550 105.6505080 115.5752144
  52.5887657 111.9300039 111.2632313  51.9596520 112.0945753 110.5608381
  52.2013319 112.3441649 112.0343277  56.4676889 112.8654477 108.6176677
  55.7827927 113.2453378 108.0673710  56.5520738 113.4749804 109.3508625
  51.7689358 103.9675824 116.5394755  51.5250290 104.7217884 116.0029031
  52.0449288 104.3461171 117.3742002  53.7227821 110.5114436 115.2172020
  53.9344716 111.1546196 114.5406402  53.6757569 109.6776753 114.7493951
  51.3254050 103.1232257 112.1208593  50.4638529 103.4213510 112.4125330
  51.3516484 103.3402656 111.1889625  48.1415619 111.6674447 108.5282398
  48.6053965 111.9462150 107.7387021  47.8772417 110.7657892 108.3455489
  45.0339700 111.2145929 111.4662161  45.6041057 111.6433197 110.8279646
  45.6247812 110.9328513 112.1646347  47.0784505 107.7897600 105.3371963
  47.7808549 108.2418643 105.8045890  46.7465134 107.1481418 105.9651857
  45.5264867 106.3809356 119.7123173  44.8963527 107.0625637 119.9458570
  45.4200955 106.2692438 118.7676311  40.8209839 106.0481152 110.6389097
  40.0308893 106.3038681 110.1629208  41.3121087 106.8629490 110.7441137
  54.8373649 113.3886391 113.3894378  55.6591092 112.9866579 113.1077059
  54.8336052 113.2854626 114.3410494  42.7724585 106.4125732 107.5972574
  41.9755748 106.5244426 108.1156069  42.5450177 106.7512384 106.7313464
  48.6030252 112.9370435 115.5455088  48.6674685 113.3990842 116.3813260
  47.8941176 112.3067800 115.6737398  39.1047542 106.3011643 113.0704088
  39.3555581 107.1858653 113.3361664  39.6407091 106.1216244 112.2979180
  62.9279642 109.7325140 109.7379349  62.1743350 109.1632538 109.5823354
  63.0627183 109.6987804 110.6849984  48.3178270 114.6038542 105.4134069
  48.1823945 115.4490078 105.8418916  48.8588082 114.8057820 104.6500002
  44.8045609 100.6830122 122.0748424  44.4112555 100.1296321 122.7496068
  45.6211750 100.9940701 122.4654941  41.7707667 112.1213980 105.9861994
  42.2832188 112.9157231 106.1367558  42.4230380 111.4240271 105.9195595
  43.5802552 115.2379737 108.0684747  43.7569180 116.1597701 107.8805731
  44.3759385 114.9238156 108.4979127  47.7213570 102.0988001 119.6668680
  48.4623284 102.6995154 119.5873143  47.9531493 101.3565639 119.1086723
  42.8654908 107.2844368 117.9446910  42.7508424 106.3829626 118.2454009
  42.0099426 107.5308065 117.5931727  49.9446746 115.2262109 119.5434411
  49.5010600 114.4398487 119.2255315  50.6063960 115.4141259 118.8778301
  44.7033867 116.7557910 114.0695089  45.2541292 116.6274974 113.2972083
  43.8645343 117.0552799 113.7189982  52.0427984 115.5064909 117.5715812
  52.0246460 116.3273790 117.0796081  52.9647904 115.3818984 117.7965953
  48.5001038 113.0209038 118.4139320  49.0329375 112.2597326 118.1838628
  47.9715120 112.7282690 119.1563475  51.6670733  98.1269104 113.9432962
  51.3235003  99.0170746 113.8672073  52.0349696  97.9370762 113.0802547
  39.7356584 110.4502635 106.7621564  40.5731806 110.8599643 106.5455272
  39.9134852 109.5102077 106.7321758  51.6321016 108.1177715 102.4505397
  51.1167640 108.8882320 102.6893785  51.3598325 107.4442851 103.0738459
  49.2168127 102.9627416 107.5090636  48.3609723 102.5734266 107.3296274
  49.6295079 103.0419377 106.6490421  50.7467274 100.4973759 111.9082195
  50.2432069 100.4603894 111.0950001  51.0397881 101.4066502 111.9678852
  46.9910160 100.5812489 110.9148377  47.8563156 100.3855298 110.5554267
  47.0587669 100.3522841 111.8417734  56.6055290 110.8710070 104.3858571
  55.8284733 110.5321229 103.9413733  57.2846771 110.8762693 103.7113536
  51.4207319 105.9904807 104.2765178  51.1157455 106.3050956 105.1275322
  52.3737761 106.0686227 104.3192511  49.8653751 112.1495031 105.9258132
  49.3375113 111.4147790 105.6131370  49.3641254 112.9269707 105.6798101
  54.8446597 110.3444051 111.0425179  54.1870272 111.0343312 111.1305307
  55.6486996 110.7340483 111.3859165  44.5972479 102.8114697 108.2864744
  45.1716231 102.5889878 107.5537937  45.1843461 102.8803391 109.0393345
  53.6552056 108.6988424 109.0929120  54.1683938 109.3318416 109.5950830
  54.3053280 108.0989619 108.7272480  44.9242066 104.8419158 102.3060629
  44.0879378 105.1793844 102.6269904  44.7846835 104.7068138 101.3687766
  46.8995146  99.6855946 107.0139813  46.2459559  99.3704963 106.3896428
  46.8575621  99.0631686 107.7399636  48.0106351 109.9675241  98.9293105
  47.1033413 109.7364494  99.1284254  48.5077383 109.1712860  99.1167087
  50.9174430 118.6772748 101.8489792  50.2436129 118.9804445 102.4574749
  51.3040252 119.4801828 101.4995249  50.1332887 106.1737879 111.3387461
  49.2155448 106.3952826 111.1809149  50.5493030 106.2484190 110.4799168
  50.9167935 107.5729295 106.4690141  51.6639754 108.0850692 106.1597263
  51.1859524 107.2513348 107.3294535  49.1894585 110.0687836 103.4517095
  48.2805804 109.7846869 103.5489565  49.2189669 110.4886914 102.5920402
  54.4213852 113.6794425 107.2208263  53.9676179 112.8385335 107.2773453
  53.7907819 114.3155824 107.5583043  53.3646772 104.6086411 108.4508930
  52.6269529 104.0963797 108.7819173  53.6173545 104.1686793 107.6392207
  52.8646791 115.5170922 108.1558081  53.1569766 116.0775979 107.4370447
  53.3745412 115.8099483 108.9111240  53.4658399  97.3862663 109.0450700
  53.7717276  96.5260027 108.7576615  54.1911004  97.9780283 108.8449694
  39.7582755 107.7893350 107.4332298  39.5607155 107.1962711 106.7083364
  39.2029419 107.4845560 108.1508236  47.7379479 107.6816456 109.5526891
  47.7928089 106.7290293 109.4769367  46.9270681 107.8375895 110.0368189
  48.8870673 111.6096579 100.7905174  48.4490102 110.8932438 100.3310811
  49.6281113 111.8372694 100.2290265  45.6771839 106.2993516 107.3117270
  44.8639704 106.5987687 107.7182462  46.1730833 105.9049205 108.0291752
  47.8280417 116.2951273 109.2451534  47.7856595 116.5212119 108.3160066
  48.7443115 116.0614648 109.3937336  51.2746050 106.7635341 116.1432164
  51.6295438 106.9906814 117.0026629  51.9218182 107.0953717 115.5209419
  57.0043787 109.8853776 106.8481493  56.8661686 110.0755372 105.9202682
  56.6480006 110.6473159 107.3049544  45.1685913 103.8711872 112.9278505
  45.8085293 103.7300631 112.2301468  44.3363444 103.5846385 112.5517107
  57.0313167 111.9530303 111.8592764  57.4649674 111.8605593 112.7075818
  57.7444748 111.9287804 111.2212780  45.9446217 113.1714302 109.0413497
  46.7386816 112.6764622 108.8396072  45.2337910 112.6432165 108.6781203
  50.7641062 115.5532398 113.3925865  50.8178084 116.1223334 114.1603581
  49.8955843 115.7234283 113.0279902  42.2528981 107.3157384 105.1173250
  41.3226569 107.2541839 105.3343212  42.3486453 106.7933337 104.3209891
  42.1714530 103.8412197 107.7051491  42.4321347 104.7557530 107.5960652
  42.9931702 103.3736639 107.8548104  43.6439455 105.2549954 114.8750316
  44.3162509 105.0467316 114.2262965  42.8169242 105.0572040 114.4355548
  57.8928716 111.9954004 114.3925650  58.0864607 112.8999815 114.6384924
  57.7929335 111.5361423 115.2264235  49.5465027 101.8811895 116.8915977
  48.8992942 102.5801844 116.7980453  50.3166043 102.3148039 117.2592225
  52.9543825 112.1460747 119.9666530  52.8029332 111.9171299 119.0496614
  52.9448505 113.1031348 119.9797875  49.7229162 109.7192660 114.9512797
  50.6521222 109.8703819 114.7781764  49.3020192 109.8076680 114.0961443
  48.5217493 113.7443324 112.7211334  48.3828579 113.3762108 113.5937272
  47.7332090 114.2590963 112.5495292  49.1165645 118.8452420 104.0636871
  49.2917401 118.3740464 104.8782493  48.4298433 119.4718187 104.2918131
  50.0722709 113.1224927 110.1100172  49.7372541 113.0825697 111.0057822
  49.5726654 112.4569643 109.6370582  44.0466952 108.5292557 115.6352753
  43.9086750 107.7972796 116.2364292  44.9571876 108.4401457 115.3536941
  53.0081900 110.4680961 100.3837232  52.3911071 109.7427789 100.2870284
  52.5398389 111.2290321 100.0404306  46.6749253 108.2412516 115.1236433
  47.3848872 107.6005708 115.0823051  46.6318561 108.4925411 116.0462614
  54.6636032 115.1779869 118.0443012  54.6048578 114.4939090 117.3773595
  55.0655550 115.9198859 117.5923638  45.3878187 105.2277734 116.9432072
  44.8515544 104.7768472 117.5953669  44.7994896 105.3623643 116.2002537
  43.6826731 121.9941783 110.8376731  43.9223329 122.6260307 111.5155749
  42.8395927 121.6429823 111.1242090  44.7980446 104.6866385  99.5058536
  43.9209912 104.5655186  99.1420783  45.2738199 103.8952464  99.2537425
  54.6653439 113.1419453 116.2756992  53.7780218 112.8045375 116.3983391
  55.2351990 112.4102485 116.5125757  36.3182586 109.4743545 109.6000043
  37.0053626 109.1605275 109.0121058  36.1630715 110.3784910 109.3267294
  41.1217308 104.3633742 114.0285067  41.0375497 103.7559411 113.2935477
  40.3000015 104.8542760 114.0294563  48.1954592 117.8020906 113.2418235
  48.1224764 118.6075877 113.7537539  47.7531986 118.0012872 112.4166256
  47.9844372 117.0392676 106.7521056  47.2011894 117.5814356 106.8459281
  48.6837117 117.5566655 107.1515298  51.2941022 102.8487305 109.3955262
  51.7909722 102.0957268 109.0756332  50.5228004 102.8851622 108.8298471
  59.1470780 108.5527671 111.0373553  59.1360656 109.4352386 110.6667486
  58.2788159 108.1999222 110.8428090  50.6553276 117.7007740 115.3976394
  51.3681248 118.3355205 115.3252295  50.1643305 117.7971606 114.5816395
  52.3770803 111.6058992 106.9693685  51.4427082 111.7260455 106.7998390
  52.5547471 110.7031459 106.7053695  47.8775991 104.9904688 109.1226946
  47.5073778 104.4375729 109.8107852  48.3735083 104.3862822 108.5701946
  55.7643354 107.4476312 107.5043719  56.2303806 108.2804303 107.4304022
  56.2150855 106.9821293 108.2088978  45.7065190 115.4502183 116.2181964
  46.4074649 116.0838666 116.3711359  45.2360305 115.7916915 115.4577604
  53.8319585 113.7920133 104.5029871  54.1079429 113.6776728 105.4123745
  52.9624084 113.3937618 104.4642044  53.7360017  99.8156899 111.5434621
  52.8223097 100.0461126 111.7116828  54.1653118  99.8995343 112.3948653
  53.5066475 108.0046791 114.0434515  52.8537926 108.2522698 113.3886967
  53.8846855 107.1910929 113.7096992  50.4673649 118.0406484 108.1462685
  50.6496044 117.2228140 108.6090437  51.2906635 118.2574176 107.7087575
  50.8015815 116.9674669 105.4077733  51.3303581 116.4567124 104.7947896
  51.0644034 116.6517199 106.2723267  49.5554049 108.7466602 120.5300552
  48.8794686 108.6460731 121.2002927  50.3781682 108.5905815 120.9936549
  41.3032908 114.9838538 113.1513067  41.8886344 114.2382226 113.2840971
  41.1057746 115.2942495 114.0349731  44.1571563 118.0189786 108.1675509
  43.4881938 118.5035913 107.6839549  44.0184433 118.2659006 109.0818888
  35.8950562 107.5544138 111.8717510  35.9334662 107.0207729 112.6654628
  35.3890855 107.0279344 111.2528487  48.2976831 120.0533529 114.7658168
  48.8495139 120.2165151 115.5307253  48.6383025 120.6437967 114.0938193
  43.2741325 102.4008679 115.3680052  43.3382651 103.2623510 114.9557450
  43.2108445 101.7882681 114.6352411  42.7493597 104.4731811 119.0153087
  43.3765636 104.0908889 119.6290611  41.8921516 104.2546013 119.3808779
  53.1487706 114.8794787 120.6206822  53.6927610 115.4924745 120.1261777
  52.5674551 115.4374365 121.1373835  39.5259140 106.2808241 104.9471442
  39.8212581 105.3718919 104.8938495  38.6247176 106.2595980 104.6252444
  51.4345219 118.0015505 111.7521850  51.3096358 117.2005245 111.2432795
  52.0924310 118.4961698 111.2635820  43.0553387 104.3564237 110.9298990
  42.3339973 104.9700205 110.7906463  43.8446643 104.8922002 110.8515636
  53.4980127 115.8024525 113.3801400  52.5510463 115.6829876 113.3079727
  53.8462900 114.9147023 113.4627661  45.8579700 101.6918664 117.2039642
  46.3814102 101.9380960 117.9665951  45.6392034 102.5238698 116.7842779
  41.2546981 103.9622338 105.0710767  40.9259688 103.0819717 104.8885873
  41.6086352 103.9070007 105.9587156  50.5026560 115.5977241 109.5805752
  50.3551523 114.6693948 109.7613322  51.3280054 115.6197332 109.0962827
  44.3688805 104.2495308 105.4386244  44.7084877 104.7781229 104.7164853
  44.8160925 104.5875714 106.2144811  54.1060682 116.4205800 110.6670625
  55.0307230 116.2148661 110.5295076  53.9375986 116.1722201 111.5759966
  47.0632245 102.6332359 114.8889312  46.7229066 101.8340172 115.2909992
  46.3571252 102.9334070 114.3166146  47.7148717  99.7181671 113.3416635
  48.5374787  99.2442149 113.2195526  47.9586781 100.4972155 113.8415322
  46.3556952 102.7469930 103.6379537  47.0765314 103.1251182 103.1343254
  45.7322256 103.4658806 103.7414515  50.4988075 103.4515079 104.5737869
  50.7151689 104.3339717 104.2726698  50.0182142 103.0601292 103.8443511
  45.2387296 106.4100792 111.1508614  45.0931877 106.7241095 112.0432896
  44.7612500 107.0285692 110.5979513  47.0983679 103.4003340 111.1989504
  47.0845248 102.5044433 110.8621802  47.8156107 103.4074004 111.8327790
  48.9509810 103.8340680 113.2442631  48.6927587 104.7557751 113.2426961
  48.4194850 103.4371115 113.9343095  53.8955998 116.9391467 106.0232716
  54.0692876 116.3737890 105.2706569  54.3884890 117.7392362 105.8412206
  39.7132958 108.9506136 114.0896275  39.1686426 109.7265944 114.2216550
  40.5912308 109.2976941 113.9315397  46.5020575 102.2817720 106.4677074
  46.6236486 101.3534366 106.6667961  46.2122617 102.2956406 105.5555389
  49.3711765  99.9672631 109.6043794  49.3933462 100.0311964 108.6495773
  49.7879824  99.1277139 109.7984300  59.7495390 109.7027890 107.6423016
  60.1926536 108.9535215 107.2442139  58.8721900 109.6938026 107.2596748
  54.8831171 116.2558232 103.1229615  55.5782076 116.8764924 103.3416929
  55.2254321 115.4053583 103.3981993  40.4998980 108.0776033 116.9826432
  39.7580716 108.2258668 117.5691063  40.1791724 108.3384298 116.1193182
  56.7822594 113.7057937 104.6516946  57.3073918 114.0445210 103.9266266
  56.6944947 112.7704952 104.4680080  48.4442643 117.6192011 116.7806822
  48.7529769 117.3741158 117.6529522  49.2418125 117.8238649 116.2925692
  48.4663255 119.7729920 109.0112199  48.0268245 119.2806299 109.7045055
  49.2171372 119.2302888 108.7704274  40.9455594 115.9641461 109.0136827
  41.7713614 115.6645233 108.6335470  40.5949646 115.1949084 109.4626615
  45.9137127 115.3167929 111.0834500  45.2917136 114.6538634 110.7836728
  46.5841994 115.3429061 110.4008148  39.1464199 113.8827788 109.9725760
  38.3096107 113.4549962 109.7909762  39.1187844 114.0760231 110.9096552
  45.9861654 103.7949717 120.6767006  46.0349810 104.6711840 120.2944776
  46.5284169 103.2527111 120.1038650  56.4716500 114.3390841 119.9568143
  55.6812044 114.3214980 119.4172643  56.2349855 114.8779134 120.7117180
  56.5914375 111.1883307 117.2700872  56.6412380 111.0233315 118.2116395
  56.4828298 110.3210566 116.8798753  45.4750634 113.8671853 104.5592961
  45.6238754 114.5507317 103.9059634  46.2817077 113.8476943 105.0742417
  53.8818138 107.1714235 118.5860179  54.7828000 107.0320700 118.2944177
  53.9566112 107.3368690 119.5258356  48.2160943 104.5481090 117.4313365
  47.3464252 104.8414656 117.1595954  48.4520423 105.1321535 118.1520629
  58.0932572 113.6080249 117.5142894  57.8017380 113.9710229 118.3506355
  57.4804703 112.8947257 117.3356226  59.2928254 111.1733128 110.0345464
  60.1275146 111.6122932 110.1983024  59.4287383 110.6971782 109.2153710
  56.3419760 108.7312863 115.9822952  56.8173882 108.9240510 115.1741803
  55.4185326 108.7872049 115.7366335  43.2303267 109.8937030 105.5654030
  42.9849309 108.9899360 105.7634240  43.3999181 109.8954181 104.6233508
  50.9199977 100.7660707 114.9478785  51.4381921 101.5021734 114.6225274
  50.5655109 101.0724700 115.7825545  42.4998914 105.6265388 103.0640191
  41.8068159 105.7009743 102.4080227  42.2550666 104.8625732 103.5861708
  51.1712571  97.1860989 110.4679682  51.4514325  96.5184178 111.0940109
  51.9563178  97.3790085 109.9554346  48.9746039 116.3619983 102.0304708
  48.4020006 116.9810170 101.5775180  49.5478833 116.9119345 102.5644630
  55.0421429 105.6078623 114.2151257  55.9938852 105.7076721 114.2363481
  54.8724880 104.8156892 114.7249341  53.0635809 102.6934207 114.4010658
  52.4685741 102.9739219 113.7057147  52.7785505 103.1828107 115.1727399
  52.1943299 116.6457133 103.1613291  53.1273972 116.5802695 103.3646166
  52.1066512 117.4813400 102.7027823  54.8231316 115.9623004 100.1217238
  54.7444947 115.6282867 101.0152996  55.6440983 116.4544772 100.1208711
  57.5209507 108.8284743 113.3293557  57.4885827 107.8900744 113.5153241
  58.1310131 108.9068780 112.5959382  49.3592838 107.6980796  99.3720761
  50.3051943 107.5687004  99.4409179  48.9807083 106.9595458  99.8490189
  57.6703995 105.6195786 113.3751840  57.1543044 104.8354243 113.1881769
  58.5543944 105.2914503 113.5398359  55.3314722  99.3636802 109.3347653
  55.1339544  99.0551890 110.2190985  55.9414428 100.0898441 109.4645582
  63.3386057 109.8900750 112.4699594  64.0689445 109.6286038 113.0307297
  62.7293002 109.1529472 112.5101662  61.4201354 108.0308612 113.0674045
  60.6934518 107.8964577 112.4590536  61.0048641 108.3385441 113.8730763
  49.2431530 111.7498542 120.8321418  50.1634540 111.9277141 121.0261464
  49.2081113 110.8054587 120.6801117  47.5435755 105.6230772  99.3075646
  46.6367210 105.3263885  99.3838360  47.8211736 105.3260590  98.4409932
  38.4613695 106.9437136 109.7574692  38.1416480 106.0902444 109.4649066
  37.9147124 107.1585714 110.5132660  42.2393603 109.6599577 113.4744199
  42.4579613 110.5916685 113.4932233  42.6519377 109.3007551 114.2599003
  49.1597821 100.1667662 105.4619887  48.3498549  99.8214747 105.8375133
  49.8482238  99.8575206 106.0507499  51.0888369  99.2445709 107.0844184
  51.6419408  99.6641162 107.7434207  51.3258455  98.3181457 107.1267140
  47.1121468 105.2332783 122.8646948  47.0118195 106.1827140 122.7959039
  46.8943010 104.9051021 121.9923018  46.3134540 102.4817708  99.4487625
  47.1753704 102.8072606  99.7083443  46.4984884 101.6949204  98.9360691
  38.3301955 110.5640047 111.7267814  37.6365427 110.1494000 111.2137768
  39.0774946 110.6060584 111.1301233  54.4667176 101.3546234 106.5922848
  53.8865845 102.0131038 106.2100901  54.2003109 100.5323579 106.1810266
  52.9170742 100.7551292 108.7944169  53.4170521 100.8667826 107.9858487
  53.5606350 100.4512345 109.4344977  46.9752738 108.6629921 121.6812010
  46.4919820 109.4630282 121.8875899  47.0613677 108.6737866 120.7279454
  40.2438698 110.4958301 109.6033829  40.2209386 110.5945988 108.6515712
  40.5539334 111.3423452 109.9250995  42.9026076 112.5534456 113.7180443
  43.8569329 112.5218398 113.6510375  42.7038599 112.0925080 114.5330669
  43.4925458 111.1235572 116.2851241  44.3118347 111.6179651 116.3086078
  43.7662266 110.2067540 116.2568808  53.2492054 103.5146324 105.6479197
  52.3617909 103.7995975 105.4299391  53.6646043 103.3540088 104.8006473
  56.6006590 103.5392845 109.3633536  57.3766980 104.0289298 109.6358153
  55.8754724 103.9650900 109.8205405  59.0379149 104.2520465 110.4207476
  59.6323640 104.0116201 109.7100785  59.1105733 103.5327595 111.0481013
  41.2576305 118.0954076 110.7350641  41.1230773 117.3354476 110.1688639
  40.8408367 118.8194975 110.2679430  52.3935268 113.2790999  99.7427216
  53.0971118 113.4841002 100.3584872  51.6697916 113.8467761 100.0076300
  53.2233078 109.0300860 105.8629487  53.1668279 109.4869412 105.0237119
  53.7761420 108.2691545 105.6852329  57.0337884 104.8190592 106.6879606
  56.7774818 104.4187228 107.5187814  56.4090752 105.5334386 106.5629745
  61.3450222 107.5586665 109.1950898  60.7849780 107.6279855 109.9682460
  60.7393725 107.3827650 108.4750394  44.4145430 118.9923393 110.9469084
  44.2977815 119.9368825 110.8447774  43.5937877 118.6896954 111.3354883
  54.3021965 113.7173528 101.7925677  55.1367569 113.2854727 101.6103151
  54.1406308 113.5455542 102.7202571  53.9567857 110.2205642 103.1582016
  53.9016661 110.0549913 102.2170460  53.3313912 110.9281675 103.3144206
  38.7460372 105.4573706 116.9843438  39.3919236 104.9472660 117.4730663
  38.5377523 106.1942388 117.5586863  51.2713764 112.5254553 122.4835579
  52.1404924 112.6995206 122.1222214  50.7920516 113.3448970 122.3611308
  47.2663983  99.7213751 102.7367334  47.2542652 100.6655591 102.8935605
  48.1587405  99.5383896 102.4426795  45.4399945 119.6451654 114.1625012
  46.3427191 119.6775265 114.4791507  45.2137315 118.7152105 114.1771348
  47.1953547 118.3982641 110.8235091  46.2449178 118.3984503 110.7099463
  47.4986033 117.6515376 110.3071126  51.0816102  96.3156527 106.9913271
  50.3148498  95.7615014 107.1369953  51.4926807  96.3878396 107.8527423
  43.0857863 102.6041323 121.0818452  43.9489325 102.2478128 121.2921777
  42.5123274 102.2655218 121.7693857  62.9306240 124.2343179 111.8880853
  63.5684650 124.1149927 111.1844193  62.8127083 125.1824023 111.9468805
  59.7395946 124.1870608 111.8242378  59.4014458 124.0711672 110.9362913
  60.6085715 123.7861773 111.8043384  55.5982762 126.0406084 107.8139269
  55.0347627 125.9496021 107.0455557  55.4835157 125.2205988 108.2941761
  60.2215729 125.3405459 117.7828584  60.2104370 124.9458258 116.9109087
  60.3836369 124.6071532 118.3762355  53.1447194 127.5357276 110.6523489
  53.9368486 127.1948100 110.2369789  53.3843844 127.6452251 111.5725643
  61.1782321 129.7077052 103.1253734  60.5270301 130.2931132 102.7387748
  61.9726684 130.2383247 103.1848771  55.1037948 126.7966189 103.5240868
  55.8768824 126.2495176 103.3853744  55.4563347 127.6610438 103.7355330
  56.9422990 128.1242571 116.7307767  56.6512856 129.0288202 116.6154434
  57.5779975 128.1659099 117.4451837  57.8679197 125.5019420 113.3209127
  58.4642770 125.2775442 112.6066090  57.9254169 124.7604165 113.9234575
  57.4404226 122.9558855 101.1559318  57.6929746 122.4340376 100.3942781
  56.5028785 122.7925000 101.2586002  62.4847509 121.9594633 108.9634061
  63.2710598 121.5414056 108.6124478  62.7486213 122.8640725 109.1315710
  62.6557586 127.3967484 103.6622718  62.0203419 127.4702110 104.3743623
  62.3254992 127.9861082 102.9841797  67.8855936 121.8969866 109.8667040
  68.6181108 121.3269083 110.1004869  67.1295291 121.5091467 110.3073545
  57.1600514 124.8586961 103.3583693  57.0436773 124.1831864 104.0264777
  57.2702774 124.3719335 102.5415846  59.5032055 124.3197108 107.0630382
  59.1390263 123.7927729 107.7743304  60.3599171 123.9295577 106.8896868
  65.4081356 115.6091441 114.3261648  65.0764681 116.4786852 114.1022863
  64.8126969 115.2927725 115.0055679  59.1437542 119.3487008 102.0591731
  59.3111945 120.2167244 102.4262202  58.9534711 119.5114289 101.1353020
  61.9012876 127.8103987 113.7257561  61.6013599 128.7129025 113.6173368
  61.5563935 127.5436170 114.5778714  55.3525357 124.2617783 109.7594266
  54.4275854 124.1293998 109.9671957  55.6009770 125.0412003 110.2564208
  65.3010019 120.3286527 111.4054998  64.3926897 120.2601935 111.1113759
  65.2497615 120.8058472 112.2336824  59.1226763 121.8044665 103.0438398
  59.0026388 122.2501716 103.8823878  58.4279352 122.1529983 102.4851936
  52.7134168 123.9051057 110.5938055  52.8426549 124.1585536 111.5077466
  52.0331619 124.4978765 110.2742710  56.8833655 134.5748307 106.6928529
  56.8057685 135.5256132 106.7717009  56.2795299 134.2294179 107.3503455
  59.3750885 121.7476172 119.3489896  58.5984219 122.3070092 119.3392760
  60.0141448 122.2332955 119.8704766  67.1671666 118.5302965 113.1832872
  66.5246046 118.8235498 112.5372667  66.6626594 118.4155886 113.9886069
  64.8211829 122.2766138 103.8718732  65.7329686 122.5093525 103.6966429
  64.3121477 122.8603183 103.3093810  57.6297257 124.5561626 118.9107863
  58.3711942 125.0946670 118.6342686  56.9234243 125.1827914 119.0679415
  63.1052597 126.6990766 117.5080024  63.5135953 126.2573177 116.7634657
  62.3829859 126.1243394 117.7614217  59.4583667 121.6363373 114.8813581
  60.3044862 122.0602787 115.0248230  59.3982305 120.9796997 115.5752144
  63.4281412 127.2591957 111.2632313  62.7990274 127.4237671 110.5608381
  63.0407074 127.6733566 112.0343277  67.3070644 128.1946395 108.6176677
  66.6221682 128.5745296 108.0673710  67.3914493 128.8041721 109.3508625
  62.6083112 119.2967741 116.5394755  62.3644044 120.0509802 116.0029031
  62.8843043 119.6753089 117.3742002  64.5621575 125.8406354 115.2172020
  64.7738470 126.4838114 114.5406402  64.5151323 125.0068670 114.7493951
  62.1647804 118.4524174 112.1208593  61.3032283 118.7505428 112.4125330
  62.1910239 118.6694573 111.1889625  58.9809374 126.9966365 108.5282398
  59.4447719 127.2754068 107.7387021  58.7166172 126.0949809 108.3455489
  55.8733455 126.5437846 111.4662161  56.4434812 126.9725115 110.8279646
  56.4641567 126.2620431 112.1646347  57.9178260 123.1189517 105.3371963
  58.6202303 123.5710561 105.8045890  57.5858888 122.4773336 105.9651857
  56.3658621 121.7101274 119.7123173  55.7357282 122.3917555 119.9458570
  56.2594709 121.5984356 118.7676311  51.6603594 121.3773070 110.6389097
  50.8702648 121.6330598 110.1629208  52.1514841 122.1921408 110.7441137
  65.6767403 128.7178309 113.3894378  66.4984847 128.3158496 113.1077059
  65.6729806 128.6146543 114.3410494  53.6118339 121.7417649 107.5972574
  52.8149502 121.8536343 108.1156069  53.3843931 122.0804301 106.7313464
  59.4424007 128.2662352 115.5455088  59.5068439 128.7282760 116.3813260
  58.7334931 127.6359717 115.6737398  49.9441297 121.6303560 113.0704088
  50.1949335 122.5150570 113.3361664  50.4800845 121.4508162 112.2979180
  73.7673396 125.0617058 109.7379349  73.0137105 124.4924456 109.5823354
  73.9020937 125.0279722 110.6849984  59.1572024 129.9330460 105.4134069
  59.0217699 130.7781996 105.8418916  59.6981837 130.1349738 104.6500002
  55.6439364 116.0122040 122.0748424  55.2506309 115.4588238 122.7496068
  56.4605504 116.3232618 122.4654941  52.6101422 127.4505898 105.9861994
  53.1225942 128.2449148 106.1367558  53.2624135 126.7532188 105.9195595
  54.4196306 130.5671654 108.0684747  54.5962935 131.4889619 107.8805731
  55.2153140 130.2530073 108.4979127  58.5607325 117.4279919 119.6668680
  59.3017038 118.0287072 119.5873143  58.7925248 116.6857557 119.1086723
  53.7048663 122.6136286 117.9446910  53.5902178 121.7121543 118.2454009
  52.8493181 122.8599983 117.5931727  60.7840501 130.5554026 119.5434411
  60.3404355 129.7690405 119.2255315  61.4457714 130.7433177 118.8778301
  55.5427622 132.0849828 114.0695089  56.0935047 131.9566891 113.2972083
  54.7039098 132.3844717 113.7189982  62.8821739 130.8356826 117.5715812
  62.8640214 131.6565707 117.0796081  63.8041659 130.7110902 117.7965953
  59.3394793 128.3500956 118.4139320  59.8723130 127.5889244 118.1838628
  58.8108874 128.0574608 119.1563475  62.5064488 113.4561022 113.9432962
  62.1628757 114.3462663 113.8672073  62.8743450 113.2662679 113.0802547
  50.5750338 125.7794552 106.7621564  51.4125560 126.1891561 106.5455272
  50.7528606 124.8393994 106.7321758  62.4714771 123.4469633 102.4505397
  61.9561394 124.2174238 102.6893785  62.1992079 122.7734769 103.0738459
  60.0561882 118.2919334 107.5090636  59.2003478 117.9026184 107.3296274
  60.4688833 118.3711294 106.6490421  61.5861028 115.8265677 111.9082195
  61.0825824 115.7895812 111.0950001  61.8791635 116.7358420 111.9678852
  57.8303914 115.9104407 110.9148377  58.6956911 115.7147215 110.5554267
  57.8981423 115.6814758 111.8417734  67.4449045 126.2001988 104.3858571
  66.6678487 125.8613147 103.9413733  68.1240526 126.2054611 103.7113536
  62.2601074 121.3196725 104.2765178  61.9551209 121.6342874 105.1275322
  63.2131516 121.3978145 104.3192511  60.7047506 127.4786948 105.9258132
  60.1768867 126.7439708 105.6131370  60.2035008 128.2561625 105.6798101
  65.6840352 125.6735969 111.0425179  65.0264026 126.3635230 111.1305307
  66.4880751 126.0632401 111.3859165  55.4366233 118.1406615 108.2864744
  56.0109985 117.9181796 107.5537937  56.0237216 118.2095309 109.0393345
  64.4945810 124.0280341 109.0929120  65.0077692 124.6610333 109.5950830
  65.1447034 123.4281537 108.7272480  55.7635820 120.1711076 102.3060629
  54.9273133 120.5085762 102.6269904  55.6240590 120.0360055 101.3687766
  57.7388901 115.0147863 107.0139813  57.0853313 114.6996881 106.3896428
  57.6969375 114.3923604 107.7399636  58.8500106 125.2967159  98.9293105
  57.9427168 125.0656412  99.1284254  59.3471138 124.5004778  99.1167087
  61.7568185 134.0064666 101.8489792  61.0829883 134.3096362 102.4574749
  62.1434007 134.8093746 101.4995249  60.9726641 121.5029797 111.3387461
  60.0549203 121.7244744 111.1809149  61.3886785 121.5776107 110.4799168
  61.7561689 122.9021213 106.4690141  62.5033508 123.4142610 106.1597263
  62.0253279 122.5805265 107.3294535  60.0288339 125.3979753 103.4517095
  59.1199558 125.1138786 103.5489565  60.0583423 125.8178832 102.5920402
  65.2607607 129.0086343 107.2208263  64.8069934 128.1677253 107.2773453
  64.6301573 129.6447741 107.5583043  64.2040526 119.9378329 108.4508930
  63.4663283 119.4255715 108.7819173  64.4567300 119.4978711 107.6392207
  63.7040546 130.8462840 108.1558081  63.9963520 131.4067897 107.4370447
  64.2139166 131.1391401 108.9111240  64.3052154 112.7154581 109.0450700
  64.6111030 111.8551944 108.7576615  65.0304758 113.3072201 108.8449694
  50.5976510 123.1185268 107.4332298  50.4000909 122.5254628 106.7083364
  50.0423174 122.8137478 108.1508236  58.5773233 123.0108374 109.5526891
  58.6321843 122.0582210 109.4769367  57.7664435 123.1667813 110.0368189
  59.7264427 126.9388497 100.7905174  59.2883857 126.2224356 100.3310811
  60.4674868 127.1664612 100.2290265  56.5165593 121.6285434 107.3117270
  55.7033459 121.9279604 107.7182462  57.0124587 121.2341123 108.0291752
  58.6674171 131.6243191 109.2451534  58.6250350 131.8504037 108.3160066
  59.5836870 131.3906565 109.3937336  62.1139805 122.0927258 116.1432164
  62.4689193 122.3198731 117.0026629  62.7611936 122.4245635 115.5209419
  67.8437542 125.2145694 106.8481493  67.7055440 125.4047290 105.9202682
  67.4873761 125.9765077 107.3049544  56.0079668 119.2003789 112.9278505
  56.6479047 119.0592548 112.2301468  55.1757198 118.9138303 112.5517107
  67.8706921 127.2822221 111.8592764  68.3043428 127.1897510 112.7075818
  68.5838502 127.2579722 111.2212780  56.7839972 128.5006220 109.0413497
  57.5780570 128.0056540 108.8396072  56.0731664 127.9724083 108.6781203
  61.6034816 130.8824315 113.3925865  61.6571839 131.4515252 114.1603581
  60.7349598 131.0526200 113.0279902  53.0922735 122.6449301 105.1173250
  52.1620323 122.5833757 105.3343212  53.1880207 122.1225254 104.3209891
  53.0108284 119.1704114 107.7051491  53.2715102 120.0849448 107.5960652
  53.8325457 118.7028557 107.8548104  54.4833210 120.5841871 114.8750316
  55.1556263 120.3759234 114.2262965  53.6562996 120.3863957 114.4355548
  68.7322471 127.3245922 114.3925650  68.9258361 128.2291732 114.6384924
  68.6323089 126.8653341 115.2264235  60.3858782 117.2103812 116.8915977
  59.7386697 117.9093762 116.7980453  61.1559797 117.6439956 117.2592225
  63.7937580 127.4752665 119.9666530  63.6423086 127.2463216 119.0496614
  63.7842259 128.4323266 119.9797875  60.5622916 125.0484577 114.9512797
  61.4914976 125.1995737 114.7781764  60.1413946 125.1368598 114.0961443
  59.3611248 129.0735242 112.7211334  59.2222334 128.7054026 113.5937272
  58.5725844 129.5882881 112.5495292  59.9559400 134.1744338 104.0636871
  60.1311156 133.7032381 104.8782493  59.2692188 134.8010104 104.2918131
  60.9116463 128.4516844 110.1100172  60.5766296 128.4117614 111.0057822
  60.4120409 127.7861560 109.6370582  54.8860707 123.8584474 115.6352753
  54.7480505 123.1264713 116.2364292  55.7965630 123.7693375 115.3536941
  63.8475655 125.7972879 100.3837232  63.2304825 125.0719707 100.2870284
  63.3792143 126.5582239 100.0404306  57.5143008 123.5704434 115.1236433
  58.2242626 122.9297626 115.0823051  57.4712316 123.8217329 116.0462614
  65.5029786 130.5071787 118.0443012  65.4442332 129.8231007 117.3773595
  65.9049305 131.2490777 117.5923638  56.2271942 120.5569652 116.9432072
  55.6909299 120.1060390 117.5953669  55.6388650 120.6915560 116.2002537
  54.5220485 137.3233701 110.8376731  54.7617083 137.9552225 111.5155749
  53.6789682 136.9721741 111.1242090  55.6374201 120.0158303  99.5058536
  54.7603667 119.8947104  99.1420783  56.1131954 119.2244381  99.2537425
  65.5047194 128.4711371 116.2756992  64.6173972 128.1337293 116.3983391
  66.0745745 127.7394402 116.5125757  47.1576341 124.8035463 109.6000043
  47.8447381 124.4897193 109.0121058  47.0024469 125.7076827 109.3267294
  51.9611063 119.6925659 114.0285067  51.8769252 119.0851329 113.2935477
  51.1393769 120.1834678 114.0294563  59.0348347 133.1312823 113.2418235
  58.9618518 133.9367795 113.7537539  58.5925740 133.3304789 112.4166256
  58.8238127 132.3684593 106.7521056  58.0405648 132.9106274 106.8459281
  59.5230872 132.8858573 107.1515298  62.1334777 118.1779223 109.3955262
  62.6303476 117.4249185 109.0756332  61.3621758 118.2143540 108.8298471
  69.9864534 123.8819588 111.0373553  69.9754410 124.7644304 110.6667486
  69.1181914 123.5291139 110.8428090  61.4947030 133.0299657 115.3976394
  62.2075003 133.6647122 115.3252295  61.0037059 133.1263523 114.5816395
  63.2164557 126.9350910 106.9693685  62.2820836 127.0552373 106.7998390
  63.3941226 126.0323377 106.7053695  58.7169745 120.3196606 109.1226946
  58.3467533 119.7667646 109.8107852  59.2128838 119.7154739 108.5701946
  66.6037109 122.7768229 107.5043719  67.0697561 123.6096221 107.4304022
  67.0544609 122.3113211 108.2088978  56.5458944 130.7794101 116.2181964
  57.2468404 131.4130584 116.3711359  56.0754059 131.1208832 115.4577604
  64.6713340 129.1212051 104.5029871  64.9473184 129.0068645 105.4123745
  63.8017839 128.7229536 104.4642044  64.5753771 115.1448816 111.5434621
  63.6616851 115.3753043 111.7116828  65.0046873 115.2287260 112.3948653
  64.3460230 123.3338708 114.0434515  63.6931680 123.5814616 113.3886967
  64.7240610 122.5202847 113.7096992  61.3067404 133.3698402 108.1462685
  61.4889798 132.5520057 108.6090437  62.1300390 133.5866094 107.7087575
  61.6409569 132.2966587 105.4077733  62.1697336 131.7859041 104.7947896
  61.9037789 131.9809117 106.2723267  60.3947803 124.0758519 120.5300552
  59.7188440 123.9752649 121.2002927  61.2175437 123.9197733 120.9936549
  52.1426662 130.3130456 113.1513067  52.7280099 129.5674144 113.2840971
  51.9451501 130.6234413 114.0349731  54.9965317 133.3481703 108.1675509
  54.3275693 133.8327831 107.6839549  54.8578187 133.5950924 109.0818888
  46.7344317 122.8836056 111.8717510  46.7728416 122.3499647 112.6654628
  46.2284610 122.3571262 111.2528487  59.1370586 135.3825447 114.7658168
  59.6888894 135.5457068 115.5307253  59.4776779 135.9729885 114.0938193
  54.1135079 117.7300597 115.3680052  54.1776406 118.5915428 114.9557450
  54.0502199 117.1174598 114.6352411  53.5887352 119.8023729 119.0153087
  54.2159390 119.4200806 119.6290611  52.7315270 119.5837931 119.3808779
  63.9881460 130.2086704 120.6206822  64.5321364 130.8216663 120.1261777
  63.4068305 130.7666283 121.1373835  50.3652894 121.6100158 104.9471442
  50.6606335 120.7010837 104.8938495  49.4640930 121.5887898 104.6252444
  62.2738973 133.3307422 111.7521850  62.1490113 132.5297162 111.2432795
  62.9318064 133.8253616 111.2635820  53.8947141 119.6856155 110.9298990
  53.1733727 120.2992123 110.7906463  54.6840397 120.2213920 110.8515636
  64.3373882 131.1316442 113.3801400  63.3904217 131.0121794 113.3079727
  64.6856655 130.2438940 113.4627661  56.6973455 117.0210581 117.2039642
  57.2207857 117.2672878 117.9665951  56.4785788 117.8530616 116.7842779
  52.0940736 119.2914256 105.0710767  51.7653442 118.4111635 104.8885873
  52.4480107 119.2361925 105.9587156  61.3420315 130.9269159 109.5805752
  61.1945277 129.9985866 109.7613322  62.1673808 130.9489249 109.0962827
  55.2082559 119.5787226 105.4386244  55.5478632 120.1073147 104.7164853
  55.6554680 119.9167632 106.2144811  64.9454437 131.7497717 110.6670625
  65.8700984 131.5440579 110.5295076  64.7769740 131.5014119 111.5759966
  57.9026000 117.9624276 114.8889312  57.5622820 117.1632090 115.2909992
  57.1965006 118.2625987 114.3166146  58.5542472 115.0473589 113.3416635
  59.3768541 114.5734067 113.2195526  58.7980535 115.8264073 113.8415322
  57.1950706 118.0761847 103.6379537  57.9159069 118.4543100 103.1343254
  56.5716010 118.7950724 103.7414515  61.3381829 118.7806996 104.5737869
  61.5545444 119.6631634 104.2726698  60.8575896 118.3893210 103.8443511
  56.0781051 121.7392710 111.1508614  55.9325631 122.0533013 112.0432896
  55.6006254 122.3577610 110.5979513  57.9377433 118.7295258 111.1989504
  57.9239002 117.8336351 110.8621802  58.6549862 118.7365921 111.8327790
  59.7903564 119.1632598 113.2442631  59.5321342 120.0849668 113.2426961
  59.2588605 118.7663032 113.9343095  64.7349753 132.2683385 106.0232716
  64.9086630 131.7029807 105.2706569  65.2278644 133.0684280 105.8412206
  50.5526713 124.2798054 114.0896275  50.0080181 125.0557862 114.2216550
  51.4306063 124.6268858 113.9315397  57.3414329 117.6109638 106.4677074
  57.4630241 116.6826284 106.6667961  57.0516372 117.6248324 105.5555389
  60.2105520 115.2964548 109.6043794  60.2327217 115.3603881 108.6495773
  60.6273579 114.4569057 109.7984300  70.5889144 125.0319808 107.6423016
  71.0320290 124.2827133 107.2442139  69.7115654 125.0229944 107.2596748
  65.7224925 131.5850149 103.1229615  66.4175830 132.2056842 103.3416929
  66.0648076 130.7345500 103.3981993  51.3392735 123.4067950 116.9826432
  50.5974471 123.5550586 117.5691063  51.0185479 123.6676216 116.1193182
  67.6216349 129.0349855 104.6516946  68.1467673 129.3737128 103.9266266
  67.5338701 128.0996870 104.4680080  59.2836397 132.9483928 116.7806822
  59.5923524 132.7033075 117.6529522  60.0811879 133.1530567 116.2925692
  59.3057009 135.1021838 109.0112199  58.8662000 134.6098217 109.7045055
  60.0565126 134.5594806 108.7704274  51.7849348 131.2933379 109.0136827
  52.6107368 130.9937151 108.6335470  51.4343400 130.5241001 109.4626615
  56.7530881 130.6459847 111.0834500  56.1310891 129.9830552 110.7836728
  57.4235748 130.6720979 110.4008148  49.9857953 129.2119705 109.9725760
  49.1489862 128.7841880 109.7909762  49.9581599 129.4052149 110.9096552
  56.8255409 119.1241635 120.6767006  56.8743564 120.0003758 120.2944776
  57.3677923 118.5819028 120.1038650  67.3110255 129.6682758 119.9568143
  66.5205798 129.6506897 119.4172643  67.0743609 130.2071052 120.7117180
  67.4308130 126.5175225 117.2700872  67.4806135 126.3525232 118.2116395
  67.3222053 125.6502484 116.8798753  56.3144388 129.1963770 104.5592961
  56.4632509 129.8799235 103.9059634  57.1210832 129.1768861 105.0742417
  64.7211892 122.5006153 118.5860179  65.6221755 122.3612618 118.2944177
  64.7959867 122.6660608 119.5258356  59.0554697 119.8773008 117.4313365
  58.1858007 120.1706574 117.1595954  59.2914178 120.4613453 118.1520629
  68.9326326 128.9372166 117.5142894  68.6411135 129.3002147 118.3506355
  68.3198458 128.2239175 117.3356226  70.1322009 126.5025046 110.0345464
  70.9668900 126.9414850 110.1983024  70.2681138 126.0263699 109.2153710
  67.1813515 124.0604781 115.9822952  67.6567636 124.2532427 115.1741803
  66.2579080 124.1163967 115.7366335  54.0697021 125.2228948 105.5654030
  53.8243063 124.3191278 105.7634240  54.2392936 125.2246099 104.6233508
  61.7593731 116.0952624 114.9478785  62.2775675 116.8313651 114.6225274
  61.4048864 116.4016618 115.7825545  53.3392669 120.9557306 103.0640191
  52.6461914 121.0301661 102.4080227  53.0944421 120.1917649 103.5861708
  62.0106325 112.5152907 110.4679682  62.2908079 111.8476096 111.0940109
  62.7956932 112.7082003 109.9554346  59.8139794 131.6911901 102.0304708
  59.2413761 132.3102088 101.5775180  60.3872588 132.2411263 102.5644630
  65.8815184 120.9370541 114.2151257  66.8332607 121.0368639 114.2363481
  65.7118634 120.1448810 114.7249341  63.9029563 118.0226124 114.4010658
  63.3079495 118.3031137 113.7057147  63.6179260 118.5120025 115.1727399
  63.0337054 131.9749051 103.1613291  63.9667727 131.9094613 103.3646166
  62.9460266 132.8105318 102.7027823  65.6625070 131.2914921 100.1217238
  65.5838702 130.9574785 101.0152996  66.4834737 131.7836689 100.1208711
  68.3603261 124.1576661 113.3293557  68.3279582 123.2192661 113.5153241
  68.9703885 124.2360697 112.5959382  60.1986592 123.0272714  99.3720761
  61.1445697 122.8978922  99.4409179  59.8200837 122.2887376  99.8490189
  68.5097750 120.9487704 113.3751840  67.9936799 120.1646161 113.1881769
  69.3937698 120.6206421 113.5398359  66.1708477 114.6928720 109.3347653
  65.9733298 114.3843808 110.2190985  66.7808182 115.4190359 109.4645582
  74.1779811 125.2192668 112.4699594  74.9083200 124.9577956 113.0307297
  73.5686757 124.4821389 112.5101662  72.2595108 123.3600530 113.0674045
  71.5328272 123.2256495 112.4590536  71.8442395 123.6677359 113.8730763
  60.0825285 127.0790460 120.8321418  61.0028294 127.2569059 121.0261464
  60.0474868 126.1346505 120.6801117  58.3829509 120.9522690  99.3075646
  57.4760965 120.6555803  99.3838360  58.6605490 120.6552508  98.4409932
  49.3007450 122.2729053 109.7574692  48.9810234 121.4194362 109.4649066
  48.7540878 122.4877632 110.5132660  53.0787357 124.9891494 113.4744199
  53.2973367 125.9208602 113.4932233  53.4913131 124.6299469 114.2599003
  59.9991575 115.4959580 105.4619887  59.1892304 115.1506665 105.8375133
  60.6875992 115.1867124 106.0507499  61.9282124 114.5737627 107.0844184
  62.4813162 114.9933080 107.7434207  62.1652210 113.6473375 107.1267140
  57.9515223 120.5624700 122.8646948  57.8511950 121.5119057 122.7959039
  57.7336765 120.2342939 121.9923018  57.1528294 117.8109625  99.4487625
  58.0147458 118.1364524  99.7083443  57.3378638 117.0241121  98.9360691
  49.1695710 125.8931965 111.7267814  48.4759181 125.4785918 111.2137768
  49.9168701 125.9352501 111.1301233  65.3060931 116.6838152 106.5922848
  64.7259600 117.3422956 106.2100901  65.0396863 115.8615496 106.1810266
  63.7564497 116.0843209 108.7944169  64.2564275 116.1959744 107.9858487
  64.4000105 115.7804262 109.4344977  57.8146493 123.9921839 121.6812010
  57.3313574 124.7922199 121.8875899  57.9007432 124.0029784 120.7279454
  51.0832452 125.8250219 109.6033829  51.0603141 125.9237906 108.6515712
  51.3933089 126.6715370 109.9250995  53.7419830 127.8826374 113.7180443
  54.6963084 127.8510316 113.6510375  53.5432354 127.4216998 114.5330669
  54.3319212 126.4527490 116.2851241  55.1512101 126.9471568 116.3086078
  54.6056020 125.5359458 116.2568808  64.0885809 118.8438242 105.6479197
  63.2011664 119.1287893 105.4299391  64.5039798 118.6832006 104.8006473
  67.4400345 118.8684763 109.3633536  68.2160735 119.3581216 109.6358153
  66.7148479 119.2942817 109.8205405  69.8772903 119.5812382 110.4207476
  70.4717394 119.3408118 109.7100785  69.9499487 118.8619513 111.0481013
  52.0970059 133.4245993 110.7350641  51.9624527 132.6646394 110.1688639
  51.6802121 134.1486893 110.2679430  63.2329022 128.6082917  99.7427216
  63.9364872 128.8132919 100.3584872  62.5091671 129.1759679 100.0076300
  64.0626832 124.3592778 105.8629487  64.0062034 124.8161329 105.0237119
  64.6155175 123.5983463 105.6852329  67.8731638 120.1482510 106.6879606
  67.6168573 119.7479146 107.5187814  67.2484506 120.8626304 106.5629745
  72.1843976 122.8878583 109.1950898  71.6243534 122.9571772 109.9682460
  71.5787479 122.7119568 108.4750394  55.2539185 134.3215310 110.9469084
  55.1371569 135.2660743 110.8447774  54.4331631 134.0188872 111.3354883
  65.1415719 129.0465446 101.7925677  65.9761323 128.6146644 101.6103151
  64.9800062 128.8747460 102.7202571  64.7961612 125.5497559 103.1582016
  64.7410415 125.3841831 102.2170460  64.1707667 126.2573592 103.3144206
  49.5854127 120.7865624 116.9843438  50.2312990 120.2764578 117.4730663
  49.3771278 121.5234305 117.5586863  62.1107519 127.8546471 122.4835579
  62.9798678 128.0287123 122.1222214  61.6314270 128.6740888 122.3611308
  58.1057737 115.0505668 102.7367334  58.0936407 115.9947508 102.8935605
  58.9981159 114.8675814 102.4426795  56.2793699 134.9743572 114.1625012
  57.1820946 135.0067182 114.4791507  56.0531069 134.0444023 114.1771348
  58.0347301 133.7274559 110.8235091  57.0842932 133.7276420 110.7099463
  58.3379787 132.9807293 110.3071126  61.9209857 111.6448445 106.9913271
  61.1542252 111.0906932 107.1369953  62.3320562 111.7170314 107.8527423
  53.9251618 117.9333241 121.0818452  54.7883079 117.5770046 121.2921777
  53.3517028 117.5947136 121.7693857  73.7699995 139.5635097 111.8880853
  74.4078405 139.4441844 111.1844193  73.6520837 140.5115941 111.9468805
  70.5789701 139.5162525 111.8242378  70.2408212 139.4003590 110.9362913
  71.4479469 139.1153690 111.8043384  66.4376517 141.3698002 107.8139269
  65.8741382 141.2787939 107.0455557  66.3228912 140.5497906 108.2941761
  63.9840948 142.8649193 110.6523489  64.7762240 142.5240018 110.2369789
  64.2237599 142.9744168 111.5725643  65.9431702 142.1258106 103.5240868
  66.7162578 141.5787094 103.3853744  66.2957101 142.9902356 103.7355330
  68.7072952 140.8311337 113.3209127  69.3036524 140.6067360 112.6066090
  68.7647923 140.0896083 113.9234575  68.2797980 138.2850773 101.1559318
  68.5323501 137.7632294 100.3942781  67.3422539 138.1216918 101.2586002
  73.3241263 137.2886551 108.9634061  74.1104352 136.8705974 108.6124478
  73.5879967 138.1932643 109.1315710  73.4951340 142.7259401 103.6622718
  72.8597173 142.7994028 104.3743623  73.1648747 143.3153000 102.9841797
  78.7249690 137.2261784 109.8667040  79.4574862 136.6561001 110.1004869
  77.9689046 136.8383385 110.3073545  67.9994269 140.1878879 103.3583693
  67.8830527 139.5123782 104.0264777  68.1096529 139.7011252 102.5415846
  70.3425810 139.6489026 107.0630382  69.9784017 139.1219647 107.7743304
  71.1992926 139.2587495 106.8896868  69.9831297 134.6778925 102.0591731
  70.1505699 135.5459162 102.4262202  69.7928466 134.8406207 101.1353020
  72.7406630 143.1395904 113.7257561  72.4407353 144.0420943 113.6173368
  72.3957690 142.8728087 114.5778714  66.1919112 139.5909701 109.7594266
  65.2669608 139.4585915 109.9671957  66.4403525 140.3703920 110.2564208
  76.1403774 135.6578444 111.4054998  75.2320651 135.5893853 111.1113759
  76.0891370 136.1350389 112.2336824  69.9620518 137.1336583 103.0438398
  69.8420143 137.5793634 103.8823878  69.2673106 137.4821901 102.4851936
  63.5527923 139.2342975 110.5938055  63.6820304 139.4877454 111.5077466
  62.8725374 139.8270683 110.2742710  75.6605584 137.6058056 103.8718732
  76.5723440 137.8385443 103.6966429  75.1515231 138.1895100 103.3093810
  70.2977422 136.9655291 114.8813581  71.1438617 137.3894704 115.0248230
  70.2376059 136.3088915 115.5752144  74.2675166 142.5883874 111.2632313
  73.6384029 142.7529589 110.5608381  73.8800828 143.0025484 112.0343277
  78.1464398 143.5238312 108.6176677  77.4615436 143.9037214 108.0673710
  78.2308247 144.1333639 109.3508625  73.4476867 134.6259659 116.5394755
  73.2037799 135.3801720 116.0029031  73.7236797 135.0045007 117.3742002
  73.0041559 133.7816092 112.1208593  72.1426038 134.0797346 112.4125330
  73.0303993 133.9986491 111.1889625  69.8203128 142.3258283 108.5282398
  70.2841474 142.6045986 107.7387021  69.5559926 141.4241727 108.3455489
  66.7127209 141.8729764 111.4662161  67.2828566 142.3017032 110.8279646
  67.3035321 141.5912349 112.1646347  68.7572014 138.4481435 105.3371963
  69.4596058 138.9002479 105.8045890  68.4252643 137.8065254 105.9651857
  67.2052376 137.0393192 119.7123173  66.5751036 137.7209472 119.9458570
  67.0988464 136.9276273 118.7676311  62.4997348 136.7064988 110.6389097
  61.7096402 136.9622516 110.1629208  62.9908595 137.5213325 110.7441137
  64.4512094 137.0709567 107.5972574  63.6543257 137.1828261 108.1156069
  64.2237686 137.4096219 106.7313464  60.7835051 136.9595478 113.0704088
  61.0343090 137.8442488 113.3361664  61.3194600 136.7800080 112.2979180
  84.6067151 140.3908975 109.7379349  83.8530859 139.8216373 109.5823354
  84.7414692 140.3571640 110.6849984  66.4833118 131.3413957 122.0748424
  66.0900064 130.7880156 122.7496068  67.2999259 131.6524536 122.4654941
  69.4001079 132.7571837 119.6668680  70.1410793 133.3578990 119.5873143
  69.6319002 132.0149474 119.1086723  64.5442417 137.9428204 117.9446910
  64.4295933 137.0413461 118.2454009  63.6886935 138.1891901 117.5931727
  73.3458242 128.7852939 113.9432962  73.0022512 129.6754581 113.8672073
  73.7137205 128.5954597 113.0802547  61.4144093 141.1086470 106.7621564
  62.2519315 141.5183478 106.5455272  61.5922361 140.1685912 106.7321758
  73.3108525 138.7761551 102.4505397  72.7955149 139.5466155 102.6893785
  73.0385834 138.1026687 103.0738459  70.8955636 133.6211251 107.5090636
  70.0397232 133.2318102 107.3296274  71.3082588 133.7003212 106.6490421
  72.4254783 131.1557595 111.9082195  71.9219578 131.1187730 111.0950001
  72.7185390 132.0650337 111.9678852  68.6697669 131.2396324 110.9148377
  69.5350665 131.0439133 110.5554267  68.7375178 131.0106676 111.8417734
  78.2842799 141.5293905 104.3858571  77.5072242 141.1905065 103.9413733
  78.9634280 141.5346528 103.7113536  73.0994828 136.6488643 104.2765178
  72.7944964 136.9634792 105.1275322  74.0525270 136.7270063 104.3192511
  71.5441260 142.8078866 105.9258132  71.0162622 142.0731626 105.6131370
  71.0428763 143.5853542 105.6798101  76.5234106 141.0027886 111.0425179
  75.8657781 141.6927148 111.1305307  77.3274505 141.3924318 111.3859165
  66.2759988 133.4698532 108.2864744  66.8503740 133.2473714 107.5537937
  66.8630970 133.5387227 109.0393345  75.3339565 139.3572259 109.0929120
  75.8471447 139.9902251 109.5950830  75.9840789 138.7573455 108.7272480
  66.6029575 135.5002993 102.3060629  65.7666887 135.8377680 102.6269904
  66.4634344 135.3651973 101.3687766  68.5782655 130.3439781 107.0139813
  67.9247068 130.0288798 106.3896428  68.5363130 129.7215522 107.7399636
  69.6893860 140.6259076  98.9293105  68.7820922 140.3948330  99.1284254
  70.1864892 139.8296695  99.1167087  71.8120396 136.8321715 111.3387461
  70.8942957 137.0536662 111.1809149  72.2280539 136.9068025 110.4799168
  72.5955444 138.2313130 106.4690141  73.3427262 138.7434528 106.1597263
  72.8647033 137.9097183 107.3294535  70.8682094 140.7271671 103.4517095
  69.9593313 140.4430704 103.5489565  70.8977178 141.1470750 102.5920402
  76.1001361 144.3378261 107.2208263  75.6463688 143.4969170 107.2773453
  75.4695328 144.9739659 107.5583043  75.0434281 135.2670247 108.4508930
  74.3057037 134.7547633 108.7819173  75.2961054 134.8270628 107.6392207
  74.5434300 146.1754757 108.1558081  74.8357275 146.7359814 107.4370447
  75.0532921 146.4683318 108.9111240  75.1445908 128.0446499 109.0450700
  75.4504785 127.1843862 108.7576615  75.8698513 128.6364119 108.8449694
  61.4370264 138.4477185 107.4332298  61.2394664 137.8546546 106.7083364
  60.8816928 138.1429395 108.1508236  69.4166988 138.3400292 109.5526891
  69.4715598 137.3874128 109.4769367  68.6058190 138.4959731 110.0368189
  70.5658182 142.2680415 100.7905174  70.1277611 141.5516274 100.3310811
  71.3068622 142.4956530 100.2290265  67.3559348 136.9577351 107.3117270
  66.5427213 137.2571522 107.7182462  67.8518342 136.5633040 108.0291752
  72.9533559 137.4219176 116.1432164  73.3082947 137.6490649 117.0026629
  73.6005691 137.7537553 115.5209419  78.6831296 140.5437612 106.8481493
  78.5449195 140.7339208 105.9202682  78.3267515 141.3056995 107.3049544
  66.8473422 134.5295707 112.9278505  67.4872802 134.3884466 112.2301468
  66.0150953 134.2430220 112.5517107  67.6233726 143.8298137 109.0413497
  68.4174325 143.3348458 108.8396072  66.9125419 143.3016001 108.6781203
  63.9316490 137.9741219 105.1173250  63.0014078 137.9125675 105.3343212
  64.0273962 137.4517172 104.3209891  63.8502039 134.4996032 107.7051491
  64.1108856 135.4141365 107.5960652  64.6719211 134.0320475 107.8548104
  65.3226964 135.9133789 114.8750316  65.9950018 135.7051151 114.2262965
  64.4956751 135.7155875 114.4355548  71.2252536 132.5395730 116.8915977
  70.5780451 133.2385680 116.7980453  71.9953552 132.9731874 117.2592225
  71.4016671 140.3776495 114.9512797  72.3308731 140.5287655 114.7781764
  70.9807701 140.4660516 114.0961443  71.7510217 143.7808762 110.1100172
  71.4160050 143.7409532 111.0057822  71.2514163 143.1153478 109.6370582
  65.7254461 139.1876392 115.6352753  65.5874259 138.4556631 116.2364292
  66.6359385 139.0985292 115.3536941  74.6869409 141.1264796 100.3837232
  74.0698580 140.4011625 100.2870284  74.2185898 141.8874157 100.0404306
  68.3536762 138.8996351 115.1236433  69.0636381 138.2589544 115.0823051
  68.3106070 139.1509246 116.0462614  67.0665696 135.8861569 116.9432072
  66.5303053 135.4352308 117.5953669  66.4782405 136.0207478 116.2002537
  66.4767955 135.3450221  99.5058536  65.5997421 135.2239022  99.1420783
  66.9525708 134.5536299  99.2537425  62.8004817 135.0217577 114.0285067
  62.7163006 134.4143247 113.2935477  61.9787524 135.5126595 114.0294563
  72.9728531 133.5071141 109.3955262  73.4697231 132.7541103 109.0756332
  72.2015513 133.5435457 108.8298471  80.8258289 139.2111506 111.0373553
  80.8148165 140.0936221 110.6667486  79.9575668 138.8583057 110.8428090
  74.0558312 142.2642828 106.9693685  73.1214591 142.3844290 106.7998390
  74.2334980 141.3615295 106.7053695  69.5563500 135.6488524 109.1226946
  69.1861287 135.0959564 109.8107852  70.0522592 135.0446657 108.5701946
  77.4430863 138.1060147 107.5043719  77.9091315 138.9388139 107.4304022
  77.8938364 137.6405129 108.2088978  75.5107094 144.4503968 104.5029871
  75.7866938 144.3360563 105.4123745  74.6411593 144.0521453 104.4642044
  75.4147526 130.4740734 111.5434621  74.5010606 130.7044961 111.7116828
  75.8440627 130.5579178 112.3948653  75.1853984 138.6630626 114.0434515
  74.5325435 138.9106533 113.3886967  75.5634364 137.8494764 113.7096992
  57.5738071 138.2127974 111.8717510  57.6122171 137.6791564 112.6654628
  57.0678364 137.6863179 111.2528487  64.9528834 133.0592514 115.3680052
  65.0170160 133.9207345 114.9557450  64.8895954 132.4466516 114.6352411
  64.4281106 135.1315647 119.0153087  65.0553145 134.7492724 119.6290611
  63.5709025 134.9129849 119.3808779  61.2046649 136.9392076 104.9471442
  61.5000090 136.0302754 104.8938495  60.3034685 136.9179815 104.6252444
  64.7340896 135.0148073 110.9298990  64.0127482 135.6284040 110.7906463
  65.5234152 135.5505837 110.8515636  67.5367209 132.3502499 117.2039642
  68.0601611 132.5964796 117.9665951  67.3179543 133.1822534 116.7842779
  62.9334490 134.6206174 105.0710767  62.6047197 133.7403553 104.8885873
  63.2873861 134.5653842 105.9587156  66.0476314 134.9079143 105.4386244
  66.3872386 135.4365065 104.7164853  66.4948434 135.2459550 106.2144811
  68.7419754 133.2916194 114.8889312  68.4016575 132.4924007 115.2909992
  68.0358761 133.5917905 114.3166146  69.3936226 130.3765507 113.3416635
  70.2162296 129.9025985 113.2195526  69.6374290 131.1555990 113.8415322
  68.0344461 133.4053765 103.6379537  68.7552823 133.7835018 103.1343254
  67.4109765 134.1242642 103.7414515  72.1775584 134.1098914 104.5737869
  72.3939198 134.9923552 104.2726698  71.6969651 133.7185127 103.8443511
  66.9174805 137.0684627 111.1508614  66.7719386 137.3824930 112.0432896
  66.4400009 137.6869528 110.5979513  68.7771188 134.0587175 111.1989504
  68.7632757 133.1628268 110.8621802  69.4943616 134.0657839 111.8327790
  70.6297319 134.4924515 113.2442631  70.3715096 135.4141586 113.2426961
  70.0982359 134.0954950 113.9343095  61.3920467 139.6089972 114.0896275
  60.8473935 140.3849780 114.2216550  62.2699817 139.9560776 113.9315397
  68.1808084 132.9401555 106.4677074  68.3023995 132.0118202 106.6667961
  67.8910126 132.9540241 105.5555389  71.0499274 130.6256466 109.6043794
  71.0720971 130.6895799 108.6495773  71.4667333 129.7860975 109.7984300
  81.4282899 140.3611725 107.6423016  81.8714045 139.6119051 107.2442139
  80.5509409 140.3521862 107.2596748  76.5618680 146.9142067 103.1229615
  77.2569585 147.5348760 103.3416929  76.9041830 146.0637418 103.3981993
  62.1786489 138.7359868 116.9826432  61.4368225 138.8842503 117.5691063
  61.8579233 138.9968133 116.1193182  78.4610103 144.3641772 104.6516946
  78.9861427 144.7029045 103.9266266  78.3732456 143.4288788 104.4680080
  67.6649163 134.4533553 120.6767006  67.7137319 135.3295676 120.2944776
  68.2071678 133.9110946 120.1038650  69.8948452 135.2064925 117.4313365
  69.0251761 135.4998491 117.1595954  70.1307932 135.7905370 118.1520629
  80.9715763 141.8316964 110.0345464  81.8062655 142.2706768 110.1983024
  81.1074892 141.3555617 109.2153710  64.9090776 140.5520866 105.5654030
  64.6636818 139.6483196 105.7634240  65.0786690 140.5538016 104.6233508
  72.5987486 131.4244542 114.9478785  73.1169430 132.1605569 114.6225274
  72.2442618 131.7308535 115.7825545  64.1786423 136.2849223 103.0640191
  63.4855668 136.3593578 102.4080227  63.9338175 135.5209567 103.5861708
  72.8500080 127.8444825 110.4679682  73.1301834 127.1768014 111.0940109
  73.6350687 128.0373920 109.9554346  76.7208938 136.2662459 114.2151257
  77.6726361 136.3660556 114.2363481  76.5512389 135.4740727 114.7249341
  74.7423318 133.3518042 114.4010658  74.1473250 133.6323055 113.7057147
  74.4573014 133.8411943 115.1727399  76.5018825 146.6206839 100.1217238
  76.4232456 146.2866703 101.0152996  77.3228492 147.1128607 100.1208711
  79.1997016 139.4868578 113.3293557  79.1673336 138.5484579 113.5153241
  79.8097640 139.5652615 112.5959382  71.0380347 138.3564631  99.3720761
  71.9839452 138.2270839  99.4409179  70.6594592 137.6179293  99.8490189
  79.3491504 136.2779622 113.3751840  78.8330553 135.4938078 113.1881769
  80.2331453 135.9498338 113.5398359  69.2223264 136.2814608  99.3075646
  68.3154719 135.9847720  99.3838360  69.4999245 135.9844426  98.4409932
  60.1401204 137.6020971 109.7574692  59.8203989 136.7486279 109.4649066
  59.5934633 137.8169549 110.5132660  63.9181112 140.3183412 113.4744199
  64.1367122 141.2500520 113.4932233  64.3306886 139.9591387 114.2599003
  70.8385330 130.8251497 105.4619887  70.0286058 130.4798582 105.8375133
  71.5269747 130.5159041 106.0507499  72.7675878 129.9029544 107.0844184
  73.3206917 130.3224998 107.7434207  73.0045964 128.9765292 107.1267140
  67.9922049 133.1401543  99.4487625  68.8541213 133.4656441  99.7083443
  68.1772393 132.3533039  98.9360691  60.0089464 141.2223883 111.7267814
  59.3152936 140.8077835 111.2137768  60.7562455 141.2644419 111.1301233
  76.1454685 132.0130069 106.5922848  75.5653354 132.6714873 106.2100901
  75.8790618 131.1907414 106.1810266  74.5958251 131.4135127 108.7944169
  75.0958030 131.5251662 107.9858487  75.2393859 131.1096180 109.4344977
  61.9226207 141.1542136 109.6033829  61.8996895 141.2529824 108.6515712
  62.2326843 142.0007287 109.9250995  65.1712967 141.7819407 116.2851241
  65.9905856 142.2763486 116.3086078  65.4449775 140.8651376 116.2568808
  74.9279563 134.1730160 105.6479197  74.0405418 134.4579810 105.4299391
  75.3433552 134.0123923 104.8006473  80.7166658 134.9104300 110.4207476
  81.3111149 134.6700036 109.7100785  80.7893242 134.1911431 111.0481013
  74.0722777 143.9374834  99.7427216  74.7758627 144.1424837 100.3584872
  73.3485425 144.5051596 100.0076300  74.9020587 139.6884696 105.8629487
  74.8455788 140.1453247 105.0237119  75.4548929 138.9275380 105.6852329
  78.7125393 135.4774428 106.6879606  78.4562327 135.0771063 107.5187814
  78.0878261 136.1918222 106.5629745  83.0237731 138.2170501 109.1950898
  82.4637289 138.2863690 109.9682460  82.4181234 138.0411485 108.4750394
  75.9809474 144.3757364 101.7925677  76.8155078 143.9438562 101.6103151
  75.8193817 144.2039377 102.7202571  75.6355366 140.8789477 103.1582016
  75.5804170 140.7133748 102.2170460  75.0101421 141.5865510 103.3144206
  60.4247881 136.1157541 116.9843438  61.0706745 135.6056495 117.4730663
  60.2165032 136.8526223 117.5586863  68.9451492 130.3797586 102.7367334
  68.9330161 131.3239426 102.8935605  69.8374913 130.1967731 102.4426795
  72.7603611 126.9740363 106.9913271  71.9936007 126.4198849 107.1369953
  73.1714316 127.0462231 107.8527423  64.7645372 133.2625158 121.0818452
  65.6276834 132.9061963 121.2921777  64.1910783 132.9239053 121.7693857
  79.4176410 145.6731699 107.0139813  78.7640822 145.3580716 106.3896428
  79.3756884 145.0507439 107.7399636  81.6779084 146.1543415 105.4619887
  80.8679813 145.8090500 105.8375133  82.3663501 145.8450959 106.0507499
  83.6069632 145.2321462 107.0844184  84.1600671 145.6516915 107.7434207
  83.8439719 144.3057210 107.1267140  79.7845246 145.7089504 102.7367334
  79.7723916 146.6531344 102.8935605  80.6768668 145.5259649 102.4426795
  83.5997366 142.3032280 106.9913271  82.8329761 141.7490767 107.1369953
  84.0108071 142.3754149 107.8527423   8.7337469  24.5945714  98.6126160
   9.3715879  24.4752461  97.9089500   8.6158312  25.5426558  98.6714112
   5.5427175  24.5473142  98.5487685   5.2045687  24.4314206  97.6608219
   6.4116943  24.1464307  98.5288691   1.4013991  26.4008618  94.5384576
   0.8378856  26.3098555  93.7700863   1.2866386  25.5808523  95.0187068
   6.9813550  30.0679586  89.8499040   6.3301529  30.6533666  89.4633054
   7.7757912  30.5985781  89.9094078   0.9069177  27.1568723  90.2486175
   1.6800053  26.6097710  90.1099051   1.2594576  28.0212972  90.4600636
   2.7454219  28.4845105 103.4553074   2.4544085  29.3890736 103.3399740
   3.3811204  28.5261633 104.1697144   3.6710426  25.8621954 100.0454434
   4.2673998  25.6377976  99.3311397   3.7285398  25.1206699 100.6479882
   3.2435455  23.3161389  87.8804625   3.4960975  22.7942910  87.1188088
   2.3060014  23.1527535  87.9831308   8.2878737  22.3197167  95.6879368
   9.0741827  21.9016591  95.3369785   8.5517442  23.2243260  95.8561016
   8.4588815  27.7570018  90.3868025   7.8234648  27.8304644  91.0988929
   8.1286221  28.3463617  89.7087104  13.6887165  22.2572401  96.5912346
  14.4212336  21.6871618  96.8250176  12.9326520  21.8694001  97.0318852
   2.9631743  25.2189495  90.0829000   2.8468001  24.5434398  90.7510084
   3.0734003  24.7321869  89.2661153   5.3063284  24.6799642  93.7875689
   4.9421491  24.1530263  94.4988610   6.1630400  24.2898111  93.6142174
   4.9468771  19.7089542  88.7837037   5.1143174  20.5769778  89.1507509
   4.7565940  19.8716824  87.8598327   7.7044104  28.1706521 100.4502868
   7.4044827  29.0731560 100.3418675   7.3595164  27.9038704 101.3024021
  11.1041248  20.6889061  98.1300305  10.1958126  20.6204469  97.8359066
  11.0528844  21.1661006  98.9582131   4.9257992  22.1647199  89.7683704
   4.8057617  22.6104250  90.6069185   4.2310580  22.5132517  89.2097242
   2.6864884  34.9350841  93.4173836   2.6088914  35.8858666  93.4962316
   2.0826528  34.5896714  94.0748762  12.9702895  18.8905499  99.9078179
  12.3277275  19.1838033  99.2617974  12.4657823  18.7758420 100.7131376
  10.6243058  22.6368673  90.5964038  11.5360914  22.8696059  90.4211736
  10.1152705  23.2205717  90.0339117   8.9083826  27.0593300 104.2325331
   9.3167182  26.6175711 103.4879963   8.1861087  26.4845928 104.4859524
   9.2312641  27.6194491  97.9877620   8.6021503  27.7840205  97.2853688
   8.8438303  28.0336101  98.7588584  13.1101872  28.5548929  95.3421984
  12.4252911  28.9347830  94.7919017  13.1945722  29.1644256  96.0753931
  10.3652804  26.2008888 101.9417327  10.5769699  26.8440648 101.2651708
  10.3182552  25.3671204 101.4739257   7.9679033  18.8126709  98.8453899
   7.1063512  19.1107962  99.1370637   7.9941468  19.0297107  97.9134932
   4.7840602  27.3568899  95.2527705   5.2478948  27.6356602  94.4632327
   4.5197401  26.4552344  95.0700796   1.6764683  26.9040381  98.1907468
   2.2466041  27.3327649  97.5524953   2.2672795  26.6222965  98.8891654
   3.7209488  23.4792051  92.0617270   4.4233532  23.9313095  92.5291196
   3.3890117  22.8375870  92.6897163  11.4798632  29.0780843 100.1139684
  12.3016076  28.6761031  99.8322366  11.4761035  28.9749077 101.0655800
   5.2455235  28.6264887 102.2700395   5.3099668  29.0885294 103.1058567
   4.5366159  27.9962252 102.3982705  19.5704625  25.4219592  96.4624656
  18.8168333  24.8526990  96.3068660  19.7052166  25.3882256  97.4095291
   4.9603253  30.2932994  92.1379375   4.8248928  31.1384530  92.5664223
   5.5013066  30.4952272  91.3745309   6.5871729  30.9156561 106.2679717
   6.1435584  30.1292939 105.9500622   7.2488943  31.1035711 105.6023608
   1.3458851  32.4452362 100.7940396   1.8966276  32.3169426 100.0217390
   0.5070327  32.7447251 100.4435289   8.6852968  31.1959361 104.2961119
   8.6671443  32.0168242 103.8041388   9.6072888  31.0713436 104.5211260
   8.2745999  23.8072167  89.1750704   7.7592623  24.5776772  89.4139091
   8.0023308  23.1337303  89.7983765   5.8593110  18.6521868  94.2335942
   5.0034707  18.2628718  94.0541581   6.2720062  18.7313829  93.3735728
  13.2480274  26.5604522  91.1103877  12.4709716  26.2215681  90.6659039
  13.9271755  26.5657145  90.4358842   8.0632303  21.6799259  91.0010485
   7.7582438  21.9945408  91.8520628   9.0162745  21.7580679  91.0437818
   6.5078734  27.8389483  92.6503439   5.9800096  27.1042242  92.3376676
   6.0066237  28.6164159  92.4043407  11.4871580  26.0338503  97.7670485
  10.8295255  26.7237764  97.8550614  12.2911980  26.4234935  98.1104472
  10.2977039  24.3882876  95.8174427  10.8108921  25.0212868  96.3196137
  10.9478263  23.7884071  95.4517787   1.5667049  20.5313610  89.0305936
   0.7304361  20.8688296  89.3515210   1.4271819  20.3962590  88.0933073
   4.6531335  25.6569693  85.6538412   3.7458396  25.4258946  85.8529561
   5.1502367  24.8607312  85.8412394   7.5599413  34.3667200  88.5735098
   6.8861112  34.6698897  89.1820056   7.9465235  35.1696280  88.2240555
   6.7757870  21.8632331  98.0632768   5.8580431  22.0847278  97.9054456
   7.1918014  21.9378642  97.2044475   7.5592918  23.2623747  93.1935448
   8.3064737  23.7745144  92.8842570   7.8284507  22.9407800  94.0539841
   5.8319568  25.7582288  90.1762402   4.9230787  25.4741320  90.2734872
   5.8614652  26.1781366  89.3165709  11.0638835  29.3688877  93.9453570
  10.6101163  28.5279787  94.0018760  10.4332802  30.0050276  94.2828350
  10.0071755  20.2980863  95.1754237   9.2694512  19.7858249  95.5064480
  10.2598529  19.8581245  94.3637514   9.5071775  31.2065374  94.8803388
   9.7994749  31.7670431  94.1615753  10.0170395  31.4993935  95.6356547
   4.3804462  23.3710908  96.2772197   4.4353072  22.4184745  96.2014674
   3.5695664  23.5270347  96.7613496   5.5295656  27.2991031  87.5150481
   5.0915086  26.5826890  87.0556118   6.2706097  27.5267146  86.9535572
   2.3196822  21.9887968  94.0362576   1.5064688  22.2882139  94.4427768
   2.8155816  21.5943657  94.7537059   4.4705400  31.9845725  95.9696841
   4.4281579  32.2106571  95.0405373   5.3868099  31.7509100  96.1182642
  13.6468771  25.5748228  93.5726799  13.5086669  25.7649824  92.6447988
  13.2904989  26.3367611  94.0294850  13.6738150  27.6424755  98.5838071
  14.1074657  27.5500044  99.4321125  14.3869731  27.6182256  97.9458087
   2.5871201  28.8608754  95.7658804   3.3811799  28.3659074  95.5641379
   1.8762893  28.3326617  95.4026509   7.4066045  31.2426849 100.1171171
   7.4603067  31.8117786 100.8848887   6.5380826  31.4128734  99.7525208
  14.5353700  27.6848456 101.1170956  14.7289590  28.5894267 101.3630231
  14.4354318  27.2255875 101.9509541   9.5968808  27.8355199 106.6911837
   9.4454315  27.6065750 105.7741920   9.5873488  28.7925800 106.7043182
   6.3654145  25.4087111 101.6758103   7.2946205  25.5598271 101.5027071
   5.9445175  25.4971132 100.8206750   5.1642477  29.4337776  99.4456641
   5.0253562  29.0656560 100.3182579   4.3757073  29.9485415  99.2740599
   5.7590629  34.5346872  90.7882177   5.9342384  34.0634916  91.6027800
   5.0723417  35.1612639  91.0163438   6.7147692  28.8119379  96.8345479
   6.3797524  28.7720149  97.7303129   6.2151637  28.1464095  96.3615889
   9.6506883  26.1575413  87.1082538   9.0336054  25.4322241  87.0115591
   9.1823372  26.9184773  86.7649613  11.3061015  30.8674321 104.7688319
  11.2473561  30.1833541 104.1018902  11.7080533  31.6093311 104.3168945
  11.3078422  28.8313905 103.0002298  10.4205201  28.4939827 103.1228697
  11.8776973  28.0996936 103.2371064   4.8379576  33.4915358  99.9663542
   4.7649747  34.2970329 100.4782846   4.3956969  33.6907323  99.1411563
   4.6269355  32.7287128  93.4766363   3.8436877  33.2708808  93.5704588
   5.3262101  33.2461107  93.8760604   7.9366006  18.5381757  96.1200568
   8.4334705  17.7851719  95.8001639   7.1652987  18.5746074  95.5543778
  15.7895763  24.2422123  97.7618860  15.7785639  25.1246838  97.3912793
  14.9213142  23.8893673  97.5673397   7.2978259  33.3902192 102.1221700
   8.0106231  34.0249656 102.0497602   6.8068288  33.4866058 101.3061702
   9.0195786  27.2953444  93.6938992   8.0852065  27.4154907  93.5243696
   9.1972455  26.3925911  93.4299002   4.5200974  20.6799140  95.8472253
   4.1498762  20.1270180  96.5353159   5.0160067  20.0757274  95.2947253
  12.4068338  23.1370764  94.2289026  12.8728790  23.9698755  94.1549329
  12.8575838  22.6715745  94.9334284   2.3490173  31.1396635 102.9427271
   3.0499632  31.7733118 103.0956665   1.8785288  31.4811367 102.1822910
  10.4744569  29.4814585  91.2275178  10.7504413  29.3671179  92.1369052
   9.6049067  29.0832070  91.1887351  10.3785000  15.5051351  98.2679927
   9.4648080  15.7355577  98.4362134  10.8078102  15.5889795  99.1193960
  10.1491459  23.6941243 100.7679821   9.4962909  23.9417150 100.1132274
  10.5271839  22.8805381 100.4342299   7.1098633  33.7300936  94.8707992
   7.2921027  32.9122592  95.3335744   7.9331619  33.9468628  94.4332882
   7.4440798  32.6569121  92.1323040   7.9728565  32.1461575  91.5193202
   7.7069018  32.3411651  92.9968573   4.9401815  35.7427981 101.4903474
   5.4920123  35.9059603 102.2552560   5.2808008  36.3332419 100.8183499
   9.7912689  30.5689239 107.3452129  10.3352593  31.1819197 106.8507084
   9.2099534  31.1268817 107.8619142   8.0770202  33.6909957  98.4767157
   7.9521341  32.8899696  97.9678102   8.7349293  34.1856150  97.9881127
  10.1405110  31.4918977 100.1046707   9.1935446  31.3724328 100.0325033
  10.4887883  30.6041475 100.1872968   7.1451544  31.2871693  96.3051059
   6.9976506  30.3588400  96.4858629   7.9705037  31.3091784  95.8208134
  10.7485665  32.1100252  97.3915932  11.6732213  31.9043113  97.2540383
  10.5800969  31.8616653  98.3005273   7.1413058  19.1409531  91.2983176
   7.3576672  20.0234168  90.9972004   6.6607125  18.7495744  90.5688818
   1.8812279  22.0995244  97.8753921   1.7356860  22.4135547  98.7678202
   1.4037483  22.7180144  97.3224819  10.5380982  32.6285919  92.7478023
  10.7117859  32.0632342  91.9951876  11.0309873  33.4286814  92.5657513
  16.3920373  25.3922342  94.3668323  16.8351519  24.6429667  93.9687446
  15.5146883  25.3832478  93.9842055  11.5256154  31.9452683  89.8474921
  12.2207059  32.5659376  90.0662236  11.8679304  31.0948035  90.1227299
  13.4247577  29.3952389  91.3762252  13.9498901  29.7339662  90.6511572
  13.3369930  28.4599404  91.1925387   5.0867626  33.3086463 103.5052129
   5.3954752  33.0635609 104.3774828   5.8843108  33.5133101 103.0170999
   5.1088238  35.4624372  95.7357505   4.6693228  34.9700751  96.4290362
   5.8596355  34.9197340  95.4949581   2.5562110  31.0062381  97.8079807
   1.9342119  30.3433086  97.5082035   3.2266977  31.0323513  97.1253455
  13.1141483  30.0285293 106.6813450  12.3237027  30.0109431 106.1417950
  12.8774838  30.5673586 107.4362487  13.2339358  26.8777759 103.9946179
  13.2837363  26.7127766 104.9361701  13.1253282  26.0105018 103.6044059
   2.1175617  29.5566305  91.2838268   2.2663737  30.2401769  90.6304940
   2.9242061  29.5371395  91.7987723  14.7357555  29.2974701 104.2388200
  14.4442364  29.6604681 105.0751661  14.1229687  28.5841709 104.0601532
  15.9353238  26.8627580  96.7590770  16.7700129  27.3017384  96.9228331
  16.0712366  26.3866234  95.9399016  12.9844744  24.4207315 102.7068258
  13.4598865  24.6134961 101.8987110  12.0610309  24.4766501 102.4611642
   5.6171023  32.0514435  88.7550015   5.0444990  32.6704622  88.3020487
   6.1903816  32.6013797  89.2889937  11.6846413  21.2973075 100.9396564
  12.6363835  21.3971173 100.9608788  11.5149863  20.5051344 101.4494648
   9.7060792  18.3828658 101.1255965   9.1110724  18.6633671 100.4302453
   9.4210489  18.8722559 101.8972706   8.8368282  32.3351585  89.8858597
   9.7698956  32.2697147  90.0891473   8.7491495  33.1707852  89.4273130
  11.4656299  31.6517456  86.8462545  11.3869931  31.3177319  87.7398303
  12.2865966  32.1439224  86.8454017  14.1634490  24.5179195 100.0538863
  14.1310810  23.5795196 100.2398547  14.7735114  24.5963232  99.3204688
   6.0017821  23.3875248  86.0966067   6.9476926  23.2581456  86.1654486
   5.6232066  22.6489910  86.5735496  14.3128979  21.3090238 100.0997147
  13.7968027  20.5248695  99.9127075  15.1968927  20.9808955 100.2643666
  11.9739706  15.0531254  96.0592959  11.7764527  14.7446342  96.9436291
  12.5839411  15.7792893  96.1890889  19.9811040  25.5795202  99.1944900
  20.7114429  25.3180490  99.7552604  19.3717986  24.8423924  99.2346968
  18.0626337  23.7203064  99.7919351  17.3359501  23.5859029  99.1835843
  17.6473624  24.0279893 100.5976069   4.1860738  21.3125224  86.0320953
   3.2792194  21.0158337  86.1083666   4.4636719  21.0155042  85.1655239
  11.1092159  17.0440686  93.3168155  10.5290828  17.7025490  92.9346207
  10.8428092  16.2218031  92.9055572   9.5595726  16.4445744  95.5189475
  10.0595504  16.5562278  94.7103794  10.2031334  16.1406797  96.1590284
   9.8917037  19.2040776  92.3724503   9.0042892  19.4890427  92.1544698
  10.3071026  19.0434540  91.5251780  13.2431574  19.2287297  96.0878842
  14.0191964  19.7183750  96.3603459  12.5179708  19.6545352  96.5450712
  15.6804132  19.9414917  97.1452783  16.2748623  19.7010653  96.4346091
  15.7530716  19.2222047  97.7726319   9.0360251  28.9685451  86.4672523
   9.7396101  29.1735454  87.0830179   8.3122900  29.5362213  86.7321607
   9.8658061  24.7195312  92.5874793   9.8093263  25.1763864  91.7482426
  10.4186404  23.9585997  92.4097636  13.6762867  20.5085044  93.4124913
  13.4199801  20.1081680  94.2433121  13.0515735  21.2228838  93.2875052
  17.9875205  23.2481117  95.9196204  17.4274763  23.3174307  96.6927766
  17.3818708  23.0722102  95.1995700  10.9446948  29.4067980  88.5170983
  11.7792552  28.9749179  88.3348458  10.7831291  29.2349994  89.4447878
  10.5992840  25.9100094  89.8827323  10.5441644  25.7444365  88.9415767
   9.9738896  26.6176126  90.0389512   2.0824928  35.3346106 100.8870319
   2.9852175  35.3669717 101.2036814   1.8562298  34.4046557 100.9016655
   3.8378530  34.0877093  97.5480398   2.8874161  34.0878955  97.4344770
   4.1411016  33.3409828  97.0316432  19.5731223  39.9237631  98.6126160
  20.2109633  39.8044379  97.9089500  19.4552066  40.8718475  98.6714112
  16.3820930  39.8765059  98.5487685  16.0439441  39.7606124  97.6608219
  17.2510698  39.4756225  98.5288691  12.2407745  41.7300536  94.5384576
  11.6772610  41.6390473  93.7700863  12.1260140  40.9100440  95.0187068
  16.8640713  41.0299911 104.5073890  16.8529353  40.6352709 103.6354394
  17.0261352  40.2965984 105.1007662   9.7872177  43.2251727  97.3768796
  10.5793469  42.8842552  96.9615095  10.0268827  43.3346702  98.2970949
  17.8207304  45.3971504  89.8499040  17.1695284  45.9825584  89.4633054
  18.6151667  45.9277698  89.9094078  11.7462931  42.4860641  90.2486175
  12.5193807  41.9389628  90.1099051  12.0988330  43.3504890  90.4600636
  13.5847974  43.8137023 103.4553074  13.2937840  44.7182654 103.3399740
  14.2204958  43.8553551 104.1697144  14.5104181  41.1913871 100.0454434
  15.1067753  40.9669894  99.3311397  14.5679152  40.4498617 100.6479882
  14.0829209  38.6453307  87.8804625  14.3354730  38.1234828  87.1188088
  13.1453768  38.4819452  87.9831308  19.1272492  37.6489085  95.6879368
  19.9135581  37.2308508  95.3369785  19.3911196  38.5535177  95.8561016
  19.2982569  43.0861935  90.3868025  18.6628402  43.1596562  91.0988929
  18.9679976  43.6755534  89.7087104  24.5280919  37.5864318  96.5912346
  25.2606091  37.0163535  96.8250176  23.7720275  37.1985919  97.0318852
  13.8025498  40.5481413  90.0829000  13.6861756  39.8726316  90.7510084
  13.9127758  40.0613787  89.2661153  16.1457039  40.0091560  93.7875689
  15.7815246  39.4822181  94.4988610  17.0024155  39.6190029  93.6142174
  22.0506339  31.2985892 101.0506955  21.7189664  32.1681303 100.8268170
  21.4551953  30.9822176 101.7300985  15.7862526  35.0381460  88.7837037
  15.9536928  35.9061696  89.1507509  15.5959695  35.2008741  87.8598327
  18.5437859  43.4998438 100.4502868  18.2438582  44.4023477 100.3418675
  18.1988918  43.2330622 101.3024021  11.9950340  39.9512235  96.4839572
  11.0700837  39.8188449  96.6917264  12.2434754  40.7306455  96.9809515
  21.9435003  36.0180979  98.1300305  21.0351880  35.9496387  97.8359066
  21.8922598  36.4952924  98.9582131  15.7651747  37.4939117  89.7683704
  15.6451372  37.9396168  90.6069185  15.0704335  37.8424435  89.2097242
   9.3559151  39.5945509  97.3183361   9.4851533  39.8479988  98.2322773
   8.6756603  40.1873217  96.9988016  13.5258639  50.2642759  93.4173836
  13.4482668  51.2150584  93.4962316  12.9220282  49.9188631  94.0748762
  16.0175868  37.4370624 106.0735202  15.2409203  37.9964544 106.0638067
  16.6566432  37.9227407 106.5950073  23.8096649  34.2197417  99.9078179
  23.1671029  34.5129950  99.2617974  23.3051578  34.1050337 100.7131376
  21.4636813  37.9660590  90.5964038  22.3754669  38.1987977  90.4211736
  20.9546460  38.5497634  90.0339117  14.2722241  40.2456078 105.6353169
  15.0136925  40.7841122 105.3587993  13.5659226  40.8722366 105.7924721
  19.7477580  42.3885218 104.2325331  20.1560936  41.9467629 103.4879963
  19.0254842  41.8137846 104.4859524  16.1008650  37.3257825 101.6058888
  16.9469846  37.7497238 101.7493537  16.0407288  36.6691449 102.2997451
  20.0706395  42.9486409  97.9877620  19.4415257  43.1132123  97.2853688
  19.6832057  43.3628018  98.7588584  23.9495627  43.8840847  95.3421984
  23.2646665  44.2639748  94.7919017  24.0339476  44.4936173  96.0753931
  19.2508096  34.9862193 103.2640061  19.0069028  35.7404254 102.7274337
  19.5268026  35.3647541 104.0987309  21.2046559  41.5300806 101.9417327
  21.4163454  42.1732565 101.2651708  21.1576307  40.6963122 101.4739257
  18.8072788  34.1418626  98.8453899  17.9457267  34.4399880  99.1370637
  18.8335222  34.3589025  97.9134932  15.6234357  42.6860817  95.2527705
  16.0872702  42.9648520  94.4632327  15.3591155  41.7844261  95.0700796
  12.5158438  42.2332298  98.1907468  13.0859795  42.6619567  97.5524953
  13.1066550  41.9514883  98.8891654  14.5603243  38.8083969  92.0617270
  15.2627286  39.2605013  92.5291196  14.2283871  38.1667788  92.6897163
  13.0083605  37.3995726 106.4368479  12.3782265  38.0812007 106.6703876
  12.9019692  37.2878807 105.4921618   8.3028577  37.0667522  97.3634404
   7.5127631  37.3225050  96.8874514   8.7939824  37.8815860  97.4686444
  22.3192386  44.4072761 100.1139684  23.1409830  44.0052948  99.8322366
  22.3154789  44.3040995 101.0655800  10.2543322  37.4312101  94.3217880
   9.4574486  37.5430795  94.8401376  10.0268915  37.7698753  93.4558771
  16.0848990  43.9556804 102.2700395  16.1493422  44.4177212 103.1058567
  15.3759914  43.3254169 102.3982705   6.5866280  37.3198012  99.7949394
   6.8374318  38.2045022 100.0606970   7.1225828  37.1402614  99.0224486
  30.4098380  40.7511509  96.4624656  29.6562088  40.1818908  96.3068660
  30.5445921  40.7174174  97.4095291  15.7997008  45.6224912  92.1379375
  15.6642682  46.4676448  92.5664223  16.3406820  45.8244189  91.3745309
  12.2864347  31.7016492 108.7993730  11.8931293  31.1482690 109.4741375
  13.1030488  32.0127070 109.1900248   9.2526405  43.1400350  92.7107300
   9.7650926  43.9343600  92.8612865   9.9049118  42.4426640  92.6440902
  11.0621290  46.2566106  94.7930054  11.2387918  47.1784071  94.6051037
  11.8578123  45.9424525  95.2224433  15.2032308  33.1174371 106.3913987
  15.9442022  33.7181524 106.3118449  15.4350231  32.3752009 105.8332030
  10.3473646  38.3030738 104.6692217  10.2327161  37.4015995 104.9699316
   9.4918164  38.5494435 104.3177033  17.4265484  46.2448478 106.2679717
  16.9829338  45.4584857 105.9500622  18.0882698  46.4327629 105.6023608
  12.1852605  47.7744280 100.7940396  12.7360030  47.6461343 100.0217390
  11.3464081  48.0739169 100.4435289  19.5246722  46.5251278 104.2961119
  19.5065197  47.3460159 103.8041388  20.4466642  46.4005353 104.5211260
  15.9819776  44.0395408 105.1384627  16.5148113  43.2783696 104.9083935
  15.4533857  43.7469060 105.8808781  19.1489471  29.1455474 100.6678269
  18.8053741  30.0357115 100.5917379  19.5168434  28.9557131  99.8047854
   7.2175322  41.4689004  93.4866871   8.0550544  41.8786012  93.2700579
   7.3953589  40.5288446  93.4567065  19.1139754  39.1364085  89.1750704
  18.5986377  39.9068689  89.4139091  18.8417062  38.4629221  89.7983765
  16.6986865  33.9813786  94.2335942  15.8428461  33.5920636  94.0541581
  17.1113817  34.0605746  93.3735728  18.2286012  31.5160129  98.6327502
  17.7250807  31.4790264  97.8195307  18.5216618  32.4252872  98.6924159
  14.4728897  31.5998859  97.6393684  15.3381894  31.4041667  97.2799573
  14.5406406  31.3709210  98.5663040  24.0874028  41.8896439  91.1103877
  23.3103471  41.5507599  90.6659039  24.7665509  41.8949063  90.4358842
  18.9026057  37.0091177  91.0010485  18.5976193  37.3237326  91.8520628
  19.8556499  37.0872597  91.0437818  17.3472489  43.1681400  92.6503439
  16.8193850  42.4334160  92.3376676  16.8459992  43.9456077  92.4043407
  22.3265335  41.3630421  97.7670485  21.6689009  42.0529682  97.8550614
  23.1305734  41.7526853  98.1104472  12.0791217  33.8301066  95.0110050
  12.6534968  33.6076248  94.2783243  12.6662199  33.8989761  95.7638652
  21.1370794  39.7174793  95.8174427  21.6502675  40.3504785  96.3196137
  21.7872018  39.1175989  95.4517787  12.4060804  35.8605527  89.0305936
  11.5698116  36.1980214  89.3515210  12.2665573  35.7254507  88.0933073
  14.3813884  30.7042315  93.7385120  13.7278297  30.3891333  93.1141735
  14.3394358  30.0818056  94.4644943  15.4925089  40.9861610  85.6538412
  14.5852151  40.7550864  85.8529561  15.9896121  40.1899230  85.8412394
  18.3993168  49.6959118  88.5735098  17.7254867  49.9990814  89.1820056
  18.7858990  50.4988198  88.2240555  17.6151625  37.1924249  98.0632768
  16.6974186  37.4139196  97.9054456  18.0311768  37.2670559  97.2044475
  18.3986672  38.5915665  93.1935448  19.1458491  39.1037062  92.8842570
  18.6678262  38.2699717  94.0539841  16.6713323  41.0874205  90.1762402
  15.7624542  40.8033238  90.2734872  16.7008406  41.5073284  89.3165709
  21.9032590  44.6980795  93.9453570  21.4494917  43.8571705  94.0018760
  21.2726557  45.3342193  94.2828350  20.8465510  35.6272781  95.1754237
  20.1088266  35.1150167  95.5064480  21.0992283  35.1873162  94.3637514
  20.3465529  46.5357292  94.8803388  20.6388504  47.0962349  94.1615753
  20.8564150  46.8285853  95.6356547  20.9477137  28.4049033  95.7696006
  21.2536014  27.5446396  95.4821921  21.6729742  28.9966653  95.5695000
   7.2401493  38.8079719  94.1577604   7.0425893  38.2149080  93.4328671
   6.6848157  38.5031930  94.8753543  15.2198217  38.7002826  96.2772197
  15.2746826  37.7476662  96.2014674  14.4089419  38.8562265  96.7613496
  16.3689410  42.6282949  87.5150481  15.9308840  41.9118808  87.0556118
  17.1099851  42.8559064  86.9535572  13.1590576  37.3179886  94.0362576
  12.3458442  37.6174056  94.4427768  13.6549571  36.9235574  94.7537059
  15.3099154  47.3137643  95.9696841  15.2675333  47.5398489  95.0405373
  16.2261853  47.0801017  96.1182642  18.7564788  37.7821710 102.8677470
  19.1114176  38.0093183 103.7271936  19.4036919  38.1140087 102.2454726
  24.4862525  40.9040146  93.5726799  24.3480424  41.0941742  92.6447988
  24.1298744  41.6659529  94.0294850  12.6504651  34.8898241  99.6523811
  13.2904031  34.7487000  98.9546775  11.8182182  34.6032755  99.2762413
  24.5131905  42.9716673  98.5838071  24.9468411  42.8791962  99.4321125
  25.2263485  42.9474173  97.9458087  13.4264955  44.1900672  95.7658804
  14.2205554  43.6950992  95.5641379  12.7156648  43.6618535  95.4026509
  18.2459800  46.5718767 100.1171171  18.2996822  47.1409703 100.8848887
  17.3774581  46.7420652  99.7525208   9.7347719  38.3343753  91.8418556
   8.8045307  38.2728209  92.0588519   9.8305191  37.8119706  91.0455198
   9.6533268  34.8598566  94.4296798   9.9140085  35.7743899  94.3205959
  10.4750440  34.3923009  94.5793411  11.1258193  36.2736323 101.5995623
  11.7981246  36.0653685 100.9508272  10.2987980  36.0758409 101.1600855
  25.3747454  43.0140374 101.1170956  25.5683344  43.9186184 101.3630231
  25.2748072  42.5547793 101.9509541  17.0283765  32.8998264 103.6161283
  16.3811680  33.5988214 103.5225760  17.7984780  33.3334408 103.9837532
  20.4362563  43.1647116 106.6911837  20.2848069  42.9357668 105.7741920
  20.4267242  44.1217718 106.7043182  17.2047899  40.7379029 101.6758103
  18.1339959  40.8890189 101.5027071  16.7838929  40.8263050 100.8206750
  16.0036231  44.7629694  99.4456641  15.8647317  44.3948478 100.3182579
  15.2150827  45.2777333  99.2740599  16.5984383  49.8638790  90.7882177
  16.7736139  49.3926833  91.6027800  15.9117171  50.4904556  91.0163438
  17.5541446  44.1411296  96.8345479  17.2191279  44.1012066  97.7303129
  17.0545392  43.4756012  96.3615889  11.5285690  39.5478926 102.3598060
  11.3905488  38.8159165 102.9609599  12.4390614  39.4587826 102.0782248
  20.4900638  41.4867331  87.1082538  19.8729809  40.7614159  87.0115591
  20.0217126  42.2476691  86.7649613  14.1567991  39.2598886 101.8481739
  14.8667609  38.6192078 101.8068358  14.1137299  39.5111780 102.7707920
  22.1454770  46.1966239 104.7688319  22.0867316  45.5125459 104.1018902
  22.5474288  46.9385229 104.3168945  12.8696925  36.2464104 103.6677379
  12.3334282  35.7954842 104.3198975  12.2813633  36.3810012 102.9247843
  11.1645468  53.0128153  97.5622038  11.4042067  53.6446677  98.2401056
  10.3214665  52.6616193  97.8487397  12.2799184  35.7052755  86.2303843
  11.4028650  35.5841556  85.8666089  12.7556937  34.9138833  85.9782731
  22.1472177  44.1605823 103.0002298  21.2598956  43.8231745 103.1228697
  22.7170728  43.4288854 103.2371064   3.8001324  40.4929915  96.3245350
   4.4872364  40.1791645  95.7366365   3.6449453  41.3971279  96.0512601
   8.6036046  35.3820111 100.7530373   8.5194235  34.7745781 100.0180783
   7.7818753  35.8729130 100.7539870  15.6773330  48.8207275  99.9663542
  15.6043502  49.6262247 100.4782846  15.2350723  49.0199241  99.1411563
  15.4663110  48.0579045  93.4766363  14.6830632  48.6000725  93.5704588
  16.1655855  48.5753025  93.8760604  18.7759760  33.8673675  96.1200568
  19.2728460  33.1143637  95.8001639  18.0046742  33.9037991  95.5543778
  26.6289517  39.5714040  97.7618860  26.6179394  40.4538756  97.3912793
  25.7606897  39.2185591  97.5673397  18.1372014  48.7194109 102.1221700
  18.8499986  49.3541574 102.0497602  17.6462042  48.8157975 101.3061702
  19.8589541  42.6245362  93.6938992  18.9245819  42.7446824  93.5243696
  20.0366209  41.7217829  93.4299002  15.3594729  36.0091058  95.8472253
  14.9892516  35.4562098  96.5353159  15.8553821  35.4049191  95.2947253
  23.2462092  38.4662681  94.2289026  23.7122544  39.2990673  94.1549329
  23.6969593  38.0007663  94.9334284  13.1883927  46.4688553 102.9427271
  13.8893387  47.1025036 103.0956665  12.7179042  46.8103284 102.1822910
  21.3138323  44.8106503  91.2275178  21.5898167  44.6963097  92.1369052
  20.4442822  44.4123987  91.1887351  21.2178755  30.8343268  98.2679927
  20.3041835  31.0647495  98.4362134  21.6471856  30.9181712  99.1193960
  20.9885213  39.0233160 100.7679821  20.3356664  39.2709068 100.1132274
  21.3665593  38.2097298 100.4342299  17.9492387  49.0592853  94.8707992
  18.1314782  48.2414509  95.3335744  18.7725373  49.2760546  94.4332882
  18.2834553  47.9861039  92.1323040  18.8122319  47.4753493  91.5193202
  18.5462772  47.6703569  92.9968573  17.0372786  39.7652971 107.2545858
  16.3613423  39.6647101 107.9248234  17.8600420  39.6092185 107.7181856
   8.7851645  46.0024908  99.8758374   9.3705082  45.2568596 100.0086278
   8.5876484  46.3128865 100.7595038  11.6390301  49.0376155  94.8920816
  10.9700676  49.5222283  94.4084856  11.5003170  49.2845376  95.8064195
   3.3769300  38.5730508  98.5962817   3.4153400  38.0394099  99.3899935
   2.8709593  38.0465714  97.9773794  15.7795569  51.0719899 101.4903474
  16.3313877  51.2351520 102.2552560  16.1201763  51.6624337 100.8183499
  10.7560062  33.4195049 102.0925359  10.8201389  34.2809879 101.6802757
  10.6927183  32.8069050 101.3597718  10.2312335  35.4918181 105.7398393
  10.8584374  35.1095258 106.3535918   9.3740254  35.2732383 106.1054086
  20.6306444  45.8981156 107.3452129  21.1746347  46.5111115 106.8507084
  20.0493288  46.4560735 107.8619142   7.0077878  37.2994610  91.6716748
   7.3031319  36.3905289  91.6183802   6.1065913  37.2782350  91.3497751
  18.9163956  49.0201874  98.4767157  18.7915096  48.2191614  97.9678102
  19.5743048  49.5148068  97.9881127  10.5372125  35.3750607  97.6544297
   9.8158710  35.9886574  97.5151770  11.3265380  35.9108372  97.5760943
  20.9798865  46.8210894 100.1046707  20.0329200  46.7016246 100.0325033
  21.3281638  45.9333392 100.1872968  13.3398438  32.7105033 103.9284949
  13.8632840  32.9567330 104.6911258  13.1210771  33.5425068 103.5088086
   8.7365719  34.9808708  91.7956073   8.4078425  34.1006087  91.6131179
   9.0905090  34.9256377  92.6832463  17.9845298  46.6163611  96.3051059
  17.8370261  45.6880318  96.4858629  18.8098792  46.6383701  95.8208134
  11.8507542  35.2681678  92.1631551  12.1903615  35.7967599  91.4410159
  12.2979663  35.6062084  92.9390118  21.5879420  47.4392169  97.3915932
  22.5125967  47.2335031  97.2540383  21.4194723  47.1908570  98.3005273
  14.5450983  33.6518728 101.6134619  14.2047804  32.8526541 102.0155299
  13.8389990  33.9520439 101.0411452  15.1967455  30.7368041 100.0661942
  16.0193524  30.2628519  99.9440832  15.4405519  31.5158525 100.5660628
  13.8375690  33.7656299  90.3624844  14.5584052  34.1437552  89.8588561
  13.2140994  34.4845176  90.4659822  17.9806812  34.4701448  91.2983176
  18.1970427  35.3526086  90.9972004  17.5000880  34.0787662  90.5688818
  12.7206034  37.4287161  97.8753921  12.5750615  37.7427464  98.7678202
  12.2431237  38.0472062  97.3224819  14.5802417  34.4189709  97.9234810
  14.5663985  33.5230803  97.5867108  15.2974845  34.4260373  98.5573096
  16.4328547  34.8527050  99.9687938  16.1746325  35.7744120  99.9672268
  15.9013588  34.4557484 100.6588402  21.3774736  47.9577837  92.7478023
  21.5511614  47.3924259  91.9951876  21.8703627  48.7578732  92.5657513
   7.1951696  39.9692506 100.8141582   6.6505164  40.7452314 100.9461856
   8.0731046  40.3163310 100.6560703  13.9839313  33.3004090  93.1922380
  14.1055224  32.3720736  93.3913268  13.6941355  33.3142776  92.2800696
  16.8530503  30.9859000  96.3289100  16.8752200  31.0498333  95.3741080
  17.2698562  30.1463509  96.5229606  27.2314127  40.7214260  94.3668323
  27.6745273  39.9721585  93.9687446  26.3540638  40.7124396  93.9842055
  22.3649909  47.2744601  89.8474921  23.0600813  47.8951294  90.0662236
  22.7073059  46.4239952  90.1227299   7.9817718  39.0962402 103.7071739
   7.2399454  39.2445037 104.2936369   7.6610462  39.3570668 102.8438488
  24.2641332  44.7244307  91.3762252  24.7892656  45.0631579  90.6511572
  24.1763684  43.7891322  91.1925387  15.9261381  48.6378380 103.5052129
  16.2348507  48.3927527 104.3774828  16.7236863  48.8425019 103.0170999
  15.9481993  50.7916290  95.7357505  15.5086983  50.2992669  96.4290362
  16.6990110  50.2489258  95.4949581   8.4274332  46.9827831  95.7382133
   9.2532351  46.6831603  95.3580777   8.0768384  46.2135453  96.1871922
  13.3955865  46.3354299  97.8079807  12.7735874  45.6725004  97.5082035
  14.0660732  46.3615431  97.1253455   6.6282937  44.9014157  96.6971067
   5.7914845  44.4736332  96.5155068   6.6006582  45.0946601  97.6341858
  13.4680392  34.8136087 107.4012313  13.5168548  35.6898210 107.0190083
  14.0102906  34.2713480 106.8283956  23.9535238  45.3577210 106.6813450
  23.1630782  45.3401349 106.1417950  23.7168592  45.8965504 107.4362487
  24.0733113  42.2069677 103.9946179  24.1231118  42.0419684 104.9361701
  23.9647036  41.3396936 103.6044059  12.9569372  44.8858222  91.2838268
  13.1057492  45.5693687  90.6304940  13.7635815  44.8663312  91.7987723
  21.3636875  38.1900605 105.3105485  22.2646738  38.0507070 105.0189483
  21.4384850  38.3555060 106.2503663  15.6979681  35.5667459 104.1558672
  14.8282990  35.8601026 103.8841260  15.9339161  36.1507904 104.8765935
  25.5751310  44.6266618 104.2388200  25.2836118  44.9896599 105.0751661
  24.9623441  43.9133626 104.0601532  26.7746992  42.1919498  96.7590770
  27.6093883  42.6309302  96.9228331  26.9106121  41.7158151  95.9399016
  23.8238498  39.7499233 102.7068258  24.2992620  39.9426879 101.8987110
  22.9004063  39.8058419 102.4611642  10.7122005  40.9123400  92.2899336
  10.4668047  40.0085730  92.4879547  10.8817919  40.9140550  91.3478814
  18.4018714  31.7847076 101.6724092  18.9200658  32.5208103 101.3470581
  18.0473847  32.0911070 102.5070851   9.9817652  36.6451758  89.7885498
   9.2886897  36.7196113  89.1325534   9.7369404  35.8812101  90.3107015
  18.6531309  28.2047359  97.1924989  18.9333062  27.5370548  97.8185415
  19.4381916  28.3976455  96.6799652  16.4564777  47.3806353  88.7550015
  15.8838744  47.9996540  88.3020487  17.0297571  47.9305715  89.2889937
  22.5240167  36.6264993 100.9396564  23.4757590  36.7263091 100.9608788
  22.3543617  35.8343261 101.4494648  20.5454546  33.7120576 101.1255965
  19.9504479  33.9925589 100.4302453  20.2604243  34.2014477 101.8972706
  19.6762037  47.6643503  89.8858597  20.6092710  47.5989065  90.0891473
  19.5885250  48.4999770  89.4273130  22.3050054  46.9809373  86.8462545
  22.2263685  46.6469237  87.7398303  23.1259720  47.4731141  86.8454017
  25.0028245  39.8471113 100.0538863  24.9704565  38.9087113 100.2398547
  25.6128868  39.9255149  99.3204688  16.8411576  38.7167166  86.0966067
  17.7870680  38.5873374  86.1654486  16.4625821  37.9781827  86.5735496
  25.1522733  36.6382156 100.0997147  24.6361782  35.8540613  99.9127075
  26.0362682  36.3100873 100.2643666  22.8133460  30.3823172  96.0592959
  22.6158281  30.0738260  96.9436291  23.4233166  31.1084811  96.1890889
  30.8204795  40.9087119  99.1944900  31.5508183  40.6472408  99.7552604
  30.2111740  40.1715841  99.2346968  28.9020092  39.0494982  99.7919351
  28.1753255  38.9150947  99.1835843  28.4867379  39.3571811 100.5976069
  16.7250268  42.7684912 107.5566724  17.6453278  42.9463511 107.7506771
  16.6899851  41.8240957 107.4046424  15.0254493  36.6417142  86.0320953
  14.1185948  36.3450255  86.1083666  15.3030474  36.3446960  85.1655239
   5.9432433  37.9623505  96.4819999   5.6235218  37.1088814  96.1894373
   5.3965861  38.1772084  97.2377966   9.7212341  40.6785946 100.1989506
   9.9398350  41.6103054 100.2177539  10.1338115  40.3193921 100.9844309
  16.6416559  31.1854032  92.1865194  15.8317287  30.8401117  92.5620440
  17.3300975  30.8761575  92.7752806  18.5707107  30.2632078  93.8089491
  19.1238145  30.6827532  94.4679514  18.8077193  29.3367827  93.8512447
  14.5940206  36.2519152 109.5892255  14.4936933  37.2013509 109.5204346
  14.3761748  35.9237391 108.7168325  13.7953277  33.5004077  86.1732932
  14.6572441  33.8258975  86.4328749  13.9803622  32.7135573  85.6605998
   5.8120693  41.5826417  98.4513121   5.1184165  41.1680370  97.9383075
   6.5593684  41.6246953  97.8546540  21.9485914  32.3732604  93.3168155
  21.3684583  33.0317408  92.9346207  21.6821847  31.5509948  92.9055572
  20.3989480  31.7737661  95.5189475  20.8989259  31.8854196  94.7103794
  21.0425088  31.4698714  96.1590284  14.4571476  39.6816291 108.4057316
  13.9738558  40.4816651 108.6121205  14.5432415  39.6924236 107.4524760
   7.7257436  41.5144671  96.3279136   7.7028124  41.6132358  95.3761019
   8.0358072  42.3609821  96.6496302  10.3844814  43.5720826 100.4425750
  11.3388067  43.5404768 100.3755682  10.1857337  43.1111449 101.2575976
  10.9744196  42.1421942 103.0096548  11.7937085  42.6366020 103.0331385
  11.2481003  41.2253910 102.9814115  20.7310792  34.5332694  92.3724503
  19.8436647  34.8182345  92.1544698  21.1464781  34.3726457  91.5251780
  24.0825328  34.5579215  96.0878842  24.8585718  35.0475667  96.3603459
  23.3573462  34.9837269  96.5450712  26.5197887  35.2706834  97.1452783
  27.1142377  35.0302570  96.4346091  26.5924470  34.5513965  97.7726319
   8.7395042  49.1140445  97.4595948   8.6049510  48.3540846  96.8933946
   8.3227105  49.8381345  96.9924737  19.8754005  44.2977369  86.4672523
  20.5789855  44.5027371  87.0830179  19.1516654  44.8654131  86.7321607
  20.7051816  40.0487230  92.5874793  20.6487017  40.5055781  91.7482426
  21.2580158  39.2877915  92.4097636  24.5156622  35.8376962  93.4124913
  24.2593556  35.4373597  94.2433121  23.8909490  36.5520756  93.2875052
  28.8268959  38.5773035  95.9196204  28.2668517  38.6466224  96.6927766
  28.2212463  38.4014020  95.1995700  11.8964168  50.0109762  97.6714390
  11.7796552  50.9555195  97.5693081  11.0756615  49.7083324  98.0600190
  21.7840703  44.7359898  88.5170983  22.6186307  44.3041096  88.3348458
  21.6225046  44.5641912  89.4447878  21.4386595  41.2392011  89.8827323
  21.3835399  41.0736283  88.9415767  20.8132650  41.9468044  90.0389512
   6.2279110  36.4760076 103.7088745   6.8737974  35.9659030 104.1975970
   6.0196261  37.2128757 104.2832170  18.7532502  43.5440923 109.2080885
  19.6223662  43.7181575 108.8467520  18.2739254  44.3635340 109.0856615
  14.7482720  30.7400120  89.4612641  14.7361390  31.6841960  89.6180912
  15.6406142  30.5570266  89.1672102  12.9218682  50.6638024 100.8870319
  13.8245929  50.6961634 101.2036814  12.6956052  49.7338475 100.9016655
  14.6772284  49.4169011  97.5480398  13.7267915  49.4170872  97.4344770
  14.9804771  48.6701745  97.0316432  18.5634840  27.3342897  93.7158578
  17.7967236  26.7801384  93.8615260  18.9745545  27.4064766  94.5772729
  10.5676601  33.6227693 107.8063759  11.4308063  33.2664498 108.0167084
   9.9942012  33.2841587 108.4939163  30.4124978  55.2529549  98.6126160
  31.0503388  55.1336296  97.9089500  30.2945821  56.2010393  98.6714112
  27.2214684  55.2056977  98.5487685  26.8833196  55.0898042  97.6608219
  28.0904452  54.8048142  98.5288691  23.0801500  57.0592454  94.5384576
  22.5166365  56.9682390  93.7700863  22.9653895  56.2392358  95.0187068
  27.7034467  56.3591829 104.5073890  27.6923108  55.9644627 103.6354394
  27.8655107  55.6257901 105.1007662  20.6265932  58.5543645  97.3768796
  21.4187224  58.2134470  96.9615095  20.8662582  58.6638620  98.2970949
  28.6601059  60.7263421  89.8499040  28.0089038  61.3117502  89.4633054
  29.4545421  61.2569616  89.9094078  22.5856686  57.8152558  90.2486175
  23.3587562  57.2681545  90.1099051  22.9382085  58.6796808  90.4600636
  24.4241728  59.1428941 103.4553074  24.1331594  60.0474571 103.3399740
  25.0598713  59.1845468 104.1697144  25.3497935  56.5205789 100.0454434
  25.9461507  56.2961812  99.3311397  25.4072907  55.7790535 100.6479882
  24.9222964  53.9745224  87.8804625  25.1748484  53.4526746  87.1188088
  23.9847523  53.8111370  87.9831308  29.9666246  52.9781003  95.6879368
  30.7529336  52.5600426  95.3369785  30.2304951  53.8827095  95.8561016
  30.1376324  58.4153853  90.3868025  29.5022157  58.4888480  91.0988929
  29.8073730  59.0047452  89.7087104  35.3674673  52.9156236  96.5912346
  36.0999845  52.3455453  96.8250176  34.6114029  52.5277837  97.0318852
  24.6419252  55.8773330  90.0829000  24.5255510  55.2018234  90.7510084
  24.7521512  55.3905704  89.2661153  26.9850793  55.3383478  93.7875689
  26.6209000  54.8114099  94.4988610  27.8417909  54.9481947  93.6142174
  32.8900094  46.6277810 101.0506955  32.5583419  47.4973221 100.8268170
  32.2945707  46.3114094 101.7300985  29.3831613  58.8290356 100.4502868
  29.0832336  59.7315395 100.3418675  29.0382673  58.5622539 101.3024021
  22.8344095  55.2804153  96.4839572  21.9094591  55.1480367  96.6917264
  23.0828508  56.0598372  96.9809515  32.7828757  51.3472896  98.1300305
  31.8745634  51.2788305  97.8359066  32.7316353  51.8244841  98.9582131
  20.1952906  54.9237427  97.3183361  20.3245287  55.1771905  98.2322773
  19.5150357  55.5165135  96.9988016  24.3652393  65.5934677  93.4173836
  24.2876423  66.5442502  93.4962316  23.7614037  65.2480549  94.0748762
  26.8569623  52.7662542 106.0735202  26.0802957  53.3256462 106.0638067
  27.4960186  53.2519325 106.5950073  34.6490404  49.5489335  99.9078179
  34.0064784  49.8421868  99.2617974  34.1445332  49.4342255 100.7131376
  25.1115995  55.5747995 105.6353169  25.8530680  56.1133039 105.3587993
  24.4052981  56.2014284 105.7924721  30.5871335  57.7177136 104.2325331
  30.9954691  57.2759546 103.4879963  29.8648596  57.1429763 104.4859524
  26.9402405  52.6549743 101.6058888  27.7863600  53.0789156 101.7493537
  26.8801043  51.9983367 102.2997451  30.9100150  58.2778326  97.9877620
  30.2809012  58.4424041  97.2853688  30.5225812  58.6919936  98.7588584
  30.0901850  50.3154111 103.2640061  29.8462782  51.0696171 102.7274337
  30.3661781  50.6939458 104.0987309  32.0440313  56.8592723 101.9417327
  32.2557208  57.5024483 101.2651708  31.9970061  56.0255040 101.4739257
  29.6466542  49.4710544  98.8453899  28.7851021  49.7691797  99.1370637
  29.6728977  49.6880943  97.9134932  26.4628111  58.0152734  95.2527705
  26.9266457  58.2940437  94.4632327  26.1984910  57.1136179  95.0700796
  23.3552192  57.5624216  98.1907468  23.9253550  57.9911484  97.5524953
  23.9460304  57.2806801  98.8891654  25.3996997  54.1375887  92.0617270
  26.1021041  54.5896931  92.5291196  25.0677626  53.4959706  92.6897163
  23.8477359  52.7287643 106.4368479  23.2176020  53.4103924 106.6703876
  23.7413447  52.6170725 105.4921618  19.1422331  52.3959439  97.3634404
  18.3521385  52.6516968  96.8874514  19.6333579  53.2107777  97.4686444
  21.0937077  52.7604019  94.3217880  20.2968240  52.8722713  94.8401376
  20.8662669  53.0990671  93.4558771  26.9242744  59.2848722 102.2700395
  26.9887177  59.7469129 103.1058567  26.2153668  58.6546087 102.3982705
  17.4260034  52.6489930  99.7949394  17.6768073  53.5336940 100.0606970
  17.9619583  52.4694531  99.0224486  26.6390762  60.9516829  92.1379375
  26.5036437  61.7968365  92.5664223  27.1800575  61.1536107  91.3745309
  23.1258102  47.0308409 108.7993730  22.7325047  46.4774608 109.4741375
  23.9424242  47.3418988 109.1900248  20.0920159  58.4692267  92.7107300
  20.6044680  59.2635518  92.8612865  20.7442872  57.7718558  92.6440902
  21.9015044  61.5858024  94.7930054  22.0781673  62.5075988  94.6051037
  22.6971878  61.2716443  95.2224433  26.0426063  48.4466288 106.3913987
  26.7835776  49.0473442 106.3118449  26.2743986  47.7043926 105.8332030
  21.1867401  53.6322656 104.6692217  21.0720916  52.7307913 104.9699316
  20.3311918  53.8786352 104.3177033  28.2659238  61.5740396 106.2679717
  27.8223093  60.7876775 105.9500622  28.9276452  61.7619546 105.6023608
  23.0246360  63.1036198 100.7940396  23.5753785  62.9753261 100.0217390
  22.1857836  63.4031087 100.4435289  30.3640477  61.8543196 104.2961119
  30.3458952  62.6752077 103.8041388  31.2860397  61.7297271 104.5211260
  26.8213531  59.3687325 105.1384627  27.3541867  58.6075614 104.9083935
  26.2927612  59.0760977 105.8808781  29.9883226  44.4747391 100.6678269
  29.6447495  45.3649033 100.5917379  30.3562188  44.2849049  99.8047854
  18.0569076  56.7980922  93.4866871  18.8944298  57.2077930  93.2700579
  18.2347344  55.8580364  93.4567065  27.5380619  49.3105703  94.2335942
  26.6822216  48.9212554  94.0541581  27.9507571  49.3897664  93.3735728
  29.0679766  46.8452046  98.6327502  28.5644562  46.8082182  97.8195307
  29.3610373  47.7544789  98.6924159  25.3122652  46.9290776  97.6393684
  26.1775649  46.7333585  97.2799573  25.3800161  46.7001128  98.5663040
  34.9267783  57.2188357  91.1103877  34.1497225  56.8799517  90.6659039
  35.6059263  57.2240980  90.4358842  28.1866243  58.4973318  92.6503439
  27.6587605  57.7626077  92.3376676  27.6853746  59.2747994  92.4043407
  33.1659089  56.6922338  97.7670485  32.5082764  57.3821600  97.8550614
  33.9699489  57.0818770  98.1104472  22.9184971  49.1592984  95.0110050
  23.4928723  48.9368166  94.2783243  23.5055953  49.2281679  95.7638652
  31.9764548  55.0466711  95.8174427  32.4896430  55.6796703  96.3196137
  32.6265772  54.4467907  95.4517787  23.2454558  51.1897445  89.0305936
  22.4091870  51.5272132  89.3515210  23.1059328  51.0546425  88.0933073
  25.2207639  46.0334233  93.7385120  24.5672051  45.7183250  93.1141735
  25.1788113  45.4109974  94.4644943  29.2386922  65.0251035  88.5735098
  28.5648621  65.3282732  89.1820056  29.6252744  65.8280116  88.2240555
  28.4545379  52.5216167  98.0632768  27.5367940  52.7431114  97.9054456
  28.8705523  52.5962477  97.2044475  29.2380427  53.9207582  93.1935448
  29.9852246  54.4328979  92.8842570  29.5072016  53.5991635  94.0539841
  27.5107077  56.4166123  90.1762402  26.6018296  56.1325156  90.2734872
  27.5402161  56.8365202  89.3165709  32.7426344  60.0272712  93.9453570
  32.2888672  59.1863622  94.0018760  32.1120311  60.6634111  94.2828350
  31.6859264  50.9564699  95.1754237  30.9482021  50.4442085  95.5064480
  31.9386038  50.5165080  94.3637514  31.1859284  61.8649209  94.8803388
  31.4782258  62.4254266  94.1615753  31.6957904  62.1577770  95.6356547
  31.7870891  43.7340951  95.7696006  32.0929768  42.8738314  95.4821921
  32.5123496  44.3258571  95.5695000  18.0795247  54.1371637  94.1577604
  17.8819647  53.5440998  93.4328671  17.5241911  53.8323847  94.8753543
  26.0591971  54.0294744  96.2772197  26.1140581  53.0768580  96.2014674
  25.2483173  54.1854183  96.7613496  23.9984331  52.6471803  94.0362576
  23.1852197  52.9465974  94.4427768  24.4943325  52.2527492  94.7537059
  26.1492909  62.6429560  95.9696841  26.1069088  62.8690407  95.0405373
  27.0655608  62.4092935  96.1182642  29.5958543  53.1113628 102.8677470
  29.9507930  53.3385101 103.7271936  30.2430674  53.4432005 102.2454726
  23.4898406  50.2190159  99.6523811  24.1297785  50.0778918  98.9546775
  22.6575936  49.9324672  99.2762413  24.2658710  59.5192589  95.7658804
  25.0599308  59.0242909  95.5641379  23.5550402  58.9910452  95.4026509
  29.0853554  61.9010685 100.1171171  29.1390576  62.4701621 100.8848887
  28.2168335  62.0712570  99.7525208  20.5741473  53.6635671  91.8418556
  19.6439061  53.6020127  92.0588519  20.6698945  53.1411624  91.0455198
  20.4927022  50.1890484  94.4296798  20.7533839  51.1035817  94.3205959
  21.3144194  49.7214926  94.5793411  21.9651947  51.6028241 101.5995623
  22.6375001  51.3945603 100.9508272  21.1381734  51.4050327 101.1600855
  27.8677519  48.2290182 103.6161283  27.2205435  48.9280132 103.5225760
  28.6378535  48.6626326 103.9837532  31.2756317  58.4939034 106.6911837
  31.1241824  58.2649586 105.7741920  31.2660997  59.4509636 106.7043182
  28.0441654  56.0670947 101.6758103  28.9733714  56.2182106 101.5027071
  27.6232684  56.1554968 100.8206750  26.8429986  60.0921611  99.4456641
  26.7041071  59.7240396 100.3182579  26.0544582  60.6069251  99.2740599
  27.4378138  65.1930708  90.7882177  27.6129893  64.7218751  91.6027800
  26.7510926  65.8196474  91.0163438  28.3935201  59.4703214  96.8345479
  28.0585033  59.4303984  97.7303129  27.8939146  58.8047930  96.3615889
  22.3679445  54.8770844 102.3598060  22.2299243  54.1451083 102.9609599
  23.2784368  54.7879744 102.0782248  24.9961745  54.5890803 101.8481739
  25.7061364  53.9483996 101.8068358  24.9531054  54.8403698 102.7707920
  32.9848524  61.5258157 104.7688319  32.9261070  60.8417377 104.1018902
  33.3868042  62.2677147 104.3168945  23.7090679  51.5756021 103.6677379
  23.1728036  51.1246760 104.3198975  23.1207388  51.7101930 102.9247843
  22.0039223  68.3420071  97.5622038  22.2435821  68.9738595  98.2401056
  21.1608419  67.9908111  97.8487397  23.1192938  51.0344673  86.2303843
  22.2422405  50.9133473  85.8666089  23.5950691  50.2430751  85.9782731
  32.9865931  59.4897741 103.0002298  32.0992710  59.1523662 103.1228697
  33.5564482  58.7580772 103.2371064  14.6395078  55.8221832  96.3245350
  15.3266118  55.5083562  95.7366365  14.4843207  56.7263197  96.0512601
  19.4429801  50.7112029 100.7530373  19.3587989  50.1037698 100.0180783
  18.6212507  51.2021047 100.7539870  26.5167085  64.1499193  99.9663542
  26.4437256  64.9554164 100.4782846  26.0744478  64.3491159  99.1411563
  26.3056864  63.3870963  93.4766363  25.5224386  63.9292643  93.5704588
  27.0049610  63.9044943  93.8760604  29.6153514  49.1965592  96.1200568
  30.1122214  48.4435555  95.8001639  28.8440496  49.2329909  95.5543778
  28.9765768  64.0486027 102.1221700  29.6893740  64.6833492 102.0497602
  28.4855797  64.1449893 101.3061702  30.6983295  57.9537280  93.6938992
  29.7639574  58.0738742  93.5243696  30.8759964  57.0509746  93.4299002
  26.1988483  51.3382975  95.8472253  25.8286271  50.7854016  96.5353159
  26.6947576  50.7341109  95.2947253  34.0855847  53.7954599  94.2289026
  34.5516299  54.6282591  94.1549329  34.5363347  53.3299581  94.9334284
  24.0277682  61.7980470 102.9427271  24.7287141  62.4316953 103.0956665
  23.5572797  62.1395202 102.1822910  32.1532078  60.1398420  91.2275178
  32.4291922  60.0255015  92.1369052  31.2836576  59.7415905  91.1887351
  32.0572509  46.1635186  98.2679927  31.1435589  46.3939413  98.4362134
  32.4865611  46.2473630  99.1193960  31.8278968  54.3525078 100.7679821
  31.1750418  54.6000985 100.1132274  32.2059348  53.5389216 100.4342299
  28.7886142  64.3884771  94.8707992  28.9708536  63.5706427  95.3335744
  29.6119128  64.6052463  94.4332882  29.1228307  63.3152956  92.1323040
  29.6516074  62.8045411  91.5193202  29.3856527  62.9995486  92.9968573
  27.8766541  55.0944889 107.2545858  27.2007178  54.9939018 107.9248234
  28.6994175  54.9384103 107.7181856  19.6245400  61.3316825  99.8758374
  20.2098837  60.5860513 100.0086278  19.4270238  61.6420782 100.7595038
  22.4784055  64.3668073  94.8920816  21.8094430  64.8514201  94.4084856
  22.3396925  64.6137293  95.8064195  14.2163055  53.9022426  98.5962817
  14.2547154  53.3686016  99.3899935  13.7103347  53.3757631  97.9773794
  26.6189324  66.4011816 101.4903474  27.1707632  66.5643438 102.2552560
  26.9595517  66.9916254 100.8183499  21.5953817  48.7486966 102.0925359
  21.6595143  49.6101797 101.6802757  21.5320937  48.1360968 101.3597718
  21.0706089  50.8210099 105.7398393  21.6978128  50.4387176 106.3535918
  20.2134008  50.6024301 106.1054086  31.4700198  61.2273074 107.3452129
  32.0140102  61.8403032 106.8507084  30.8887043  61.7852652 107.8619142
  17.8471632  52.6286528  91.6716748  18.1425073  51.7197206  91.6183802
  16.9459668  52.6074267  91.3497751  29.7557711  64.3493792  98.4767157
  29.6308850  63.5483532  97.9678102  30.4136802  64.8439985  97.9881127
  21.3765879  50.7042524  97.6544297  20.6552465  51.3178492  97.5151770
  22.1659135  51.2400289  97.5760943  31.8192619  62.1502812 100.1046707
  30.8722955  62.0308163 100.0325033  32.1675392  61.2625310 100.1872968
  24.1792193  48.0396951 103.9284949  24.7026595  48.2859247 104.6911258
  23.9604526  48.8716986 103.5088086  19.5759474  50.3100626  91.7956073
  19.2472180  49.4298004  91.6131179  19.9298844  50.2548294  92.6832463
  28.8239053  61.9455528  96.3051059  28.6764015  61.0172236  96.4858629
  29.6492546  61.9675619  95.8208134  22.6901297  50.5973595  92.1631551
  23.0297369  51.1259517  91.4410159  23.1373417  50.9354001  92.9390118
  32.4273174  62.7684087  97.3915932  33.3519722  62.5626948  97.2540383
  32.2588478  62.5200488  98.3005273  25.3844738  48.9810646 101.6134619
  25.0441558  48.1818459 102.0155299  24.6783744  49.2812357 101.0411452
  26.0361210  46.0659958 100.0661942  26.8587279  45.5920437  99.9440832
  26.2799273  46.8450442 100.5660628  24.6769444  49.0948217  90.3624844
  25.3977807  49.4729470  89.8588561  24.0534748  49.8137094  90.4659822
  23.5599788  52.7579079  97.8753921  23.4144369  53.0719382  98.7678202
  23.0824992  53.3763979  97.3224819  25.4196171  49.7481627  97.9234810
  25.4057740  48.8522720  97.5867108  26.1368599  49.7552291  98.5573096
  27.2722302  50.1818967  99.9687938  27.0140080  51.1036038  99.9672268
  26.7407342  49.7849402 100.6588402  32.2168491  63.2869754  92.7478023
  32.3905368  62.7216177  91.9951876  32.7097382  64.0870649  92.5657513
  18.0345450  55.2984423 100.8141582  17.4898919  56.0744231 100.9461856
  18.9124800  55.6455228 100.6560703  24.8233067  48.6296007  93.1922380
  24.9448978  47.7012654  93.3913268  24.5335110  48.6434693  92.2800696
  27.6924258  46.3150918  96.3289100  27.7145954  46.3790251  95.3741080
  28.1092317  45.4755426  96.5229606  18.8211472  54.4254320 103.7071739
  18.0793208  54.5736955 104.2936369  18.5004217  54.6862585 102.8438488
  26.7655135  63.9670298 103.5052129  27.0742261  63.7219445 104.3774828
  27.5630617  64.1716936 103.0170999  26.7875747  66.1208208  95.7357505
  26.3480737  65.6284586  96.4290362  27.5383864  65.5781175  95.4949581
  19.2668086  62.3119748  95.7382133  20.0926106  62.0123520  95.3580777
  18.9162138  61.5427371  96.1871922  24.2349619  61.6646217  97.8079807
  23.6129628  61.0016922  97.5082035  24.9054486  61.6907349  97.1253455
  17.4676691  60.2306075  96.6971067  16.6308599  59.8028249  96.5155068
  17.4400337  60.4238518  97.6341858  24.3074147  50.1428005 107.4012313
  24.3562302  51.0190128 107.0190083  24.8496661  49.6005398 106.8283956
  34.7928992  60.6869128 106.6813450  34.0024536  60.6693267 106.1417950
  34.5562347  61.2257422 107.4362487  34.9126867  57.5361594 103.9946179
  34.9624872  57.3711602 104.9361701  34.8040791  56.6688853 103.6044059
  23.7963126  60.2150140  91.2838268  23.9451246  60.8985604  90.6304940
  24.6029570  60.1955230  91.7987723  32.2030630  53.5192522 105.3105485
  33.1040493  53.3798987 105.0189483  32.2778604  53.6846977 106.2503663
  26.5373435  50.8959377 104.1558672  25.6676745  51.1892943 103.8841260
  26.7732915  51.4799822 104.8765935  34.6632252  55.0791150 102.7068258
  35.1386374  55.2718797 101.8987110  33.7397818  55.1350336 102.4611642
  21.5515759  56.2415318  92.2899336  21.3061801  55.3377648  92.4879547
  21.7211674  56.2432468  91.3478814  29.2412469  47.1138994 101.6724092
  29.7594413  47.8500021 101.3470581  28.8867602  47.4202987 102.5070851
  20.8211407  51.9743675  89.7885498  20.1280652  52.0488030  89.1325534
  20.5763159  51.2104019  90.3107015  29.4925063  43.5339277  97.1924989
  29.7726817  42.8662466  97.8185415  30.2775670  43.7268372  96.6799652
  27.2958532  62.7098270  88.7550015  26.7232499  63.3288458  88.3020487
  27.8691325  63.2597632  89.2889937  33.3633921  51.9556911 100.9396564
  34.3151344  52.0555008 100.9608788  33.1937372  51.1635179 101.4494648
  31.3848301  49.0412494 101.1255965  30.7898233  49.3217507 100.4302453
  31.0997998  49.5306395 101.8972706  30.5155791  62.9935421  89.8858597
  31.4486465  62.9280982  90.0891473  30.4279004  63.8291687  89.4273130
  35.8421999  55.1763030 100.0538863  35.8098319  54.2379031 100.2398547
  36.4522623  55.2547067  99.3204688  35.9916488  51.9674074 100.0997147
  35.4755536  51.1832530  99.9127075  36.8756436  51.6392790 100.2643666
  33.6527215  45.7115089  96.0592959  33.4552036  45.4030177  96.9436291
  34.2626920  46.4376728  96.1890889  39.7413846  54.3786900  99.7919351
  39.0147010  54.2442865  99.1835843  39.3261133  54.6863728 100.5976069
  27.5644023  58.0976829 107.5566724  28.4847032  58.2755428 107.7506771
  27.5293606  57.1532875 107.4046424  16.7826188  53.2915423  96.4819999
  16.4628972  52.4380731  96.1894373  16.2359616  53.5064001  97.2377966
  20.5606095  56.0077864 100.1989506  20.7792105  56.9394972 100.2177539
  20.9731869  55.6485838 100.9844309  27.4810313  46.5145949  92.1865194
  26.6711041  46.1693034  92.5620440  28.1694730  46.2053493  92.7752806
  29.4100861  45.5923996  93.8089491  29.9631900  46.0119450  94.4679514
  29.6470948  44.6659744  93.8512447  25.4333961  51.5811070 109.5892255
  25.3330687  52.5305427 109.5204346  25.2155503  51.2529309 108.7168325
  24.6347032  48.8295995  86.1732932  25.4966196  49.1550893  86.4328749
  24.8197376  48.0427491  85.6605998  16.6514448  56.9118335  98.4513121
  15.9577919  56.4972287  97.9383075  17.3987439  56.9538871  97.8546540
  32.7879668  47.7024521  93.3168155  32.2078337  48.3609325  92.9346207
  32.5215601  46.8801866  92.9055572  31.2383235  47.1029579  95.5189475
  31.7383013  47.2146114  94.7103794  31.8818843  46.7990632  96.1590284
  25.2965231  55.0108209 108.4057316  24.8132312  55.8108569 108.6121205
  25.3826170  55.0216154 107.4524760  18.5651190  56.8436588  96.3279136
  18.5421878  56.9424276  95.3761019  18.8751827  57.6901739  96.6496302
  21.2238568  58.9012743 100.4425750  22.1781822  58.8696686 100.3755682
  21.0251092  58.4403367 101.2575976  21.8137950  57.4713859 103.0096548
  22.6330839  57.9657938 103.0331385  22.0874758  56.5545828 102.9814115
  31.5704546  49.8624612  92.3724503  30.6830401  50.1474262  92.1544698
  31.9858535  49.7018375  91.5251780  34.9219083  49.8871133  96.0878842
  35.6979473  50.3767585  96.3603459  34.1967217  50.3129187  96.5450712
  37.3591641  50.5998752  97.1452783  37.9536132  50.3594488  96.4346091
  37.4318225  49.8805882  97.7726319  19.5788797  64.4432363  97.4595948
  19.4443265  63.6832764  96.8933946  19.1620859  65.1673263  96.9924737
  31.5445570  55.3779148  92.5874793  31.4880772  55.8347699  91.7482426
  32.0973913  54.6169832  92.4097636  35.3550376  51.1668879  93.4124913
  35.0987310  50.7665515  94.2433121  34.7303244  51.8812673  93.2875052
  22.7357923  65.3401680  97.6714390  22.6190307  66.2847112  97.5693081
  21.9150369  65.0375241  98.0600190  32.2780349  56.5683929  89.8827323
  32.2229153  56.4028200  88.9415767  31.6526405  57.2759962  90.0389512
  17.0672864  51.8051993 103.7088745  17.7131728  51.2950947 104.1975970
  16.8590016  52.5420675 104.2832170  29.5926257  58.8732841 109.2080885
  30.4617416  59.0473493 108.8467520  29.1133008  59.6927258 109.0856615
  25.5876475  46.0692038  89.4612641  25.5755145  47.0133878  89.6180912
  26.4799897  45.8862183  89.1672102  23.7612437  65.9929942 100.8870319
  24.6639684  66.0253552 101.2036814  23.5349807  65.0630393 100.9016655
  25.5166039  64.7460928  97.5480398  24.5661670  64.7462790  97.4344770
  25.8198525  63.9993663  97.0316432  29.4028594  42.6634815  93.7158578
  28.6360990  42.1093301  93.8615260  29.8139299  42.7356683  94.5772729
  21.4070355  48.9519610 107.8063759  22.2701817  48.5956415 108.0167084
  20.8335766  48.6133505 108.4939163  41.2518732  70.5821467  98.6126160
  41.8897142  70.4628214  97.9089500  41.1339575  71.5302311  98.6714112
  38.0608439  70.5348895  98.5487685  37.7226950  70.4189959  97.6608219
  38.9298207  70.1340060  98.5288691  33.9195254  72.3884371  94.5384576
  33.3560119  72.2974308  93.7700863  33.8047649  71.5684276  95.0187068
  38.5428222  71.6883747 104.5073890  38.5316862  71.2936545 103.6354394
  38.7048861  70.9549819 105.1007662  31.4659686  73.8835563  97.3768796
  32.2580978  73.5426387  96.9615095  31.7056336  73.9930538  98.2970949
  39.4994813  76.0555339  89.8499040  38.8482793  76.6409419  89.4633054
  40.2939176  76.5861534  89.9094078  33.4250440  73.1444476  90.2486175
  34.1981316  72.5973463  90.1099051  33.7775839  74.0088725  90.4600636
  35.2635483  74.4720858 103.4553074  34.9725349  75.3766489 103.3399740
  35.8992467  74.5137386 104.1697144  36.1891690  71.8497707 100.0454434
  36.7855262  71.6253729  99.3311397  36.2466661  71.1082452 100.6479882
  35.7616718  69.3037142  87.8804625  36.0142239  68.7818663  87.1188088
  34.8241277  69.1403288  87.9831308  40.8060001  68.3072921  95.6879368
  41.5923090  67.8892344  95.3369785  41.0698705  69.2119013  95.8561016
  40.9770078  73.7445771  90.3868025  40.3415911  73.8180397  91.0988929
  40.6467485  74.3339370  89.7087104  46.2068428  68.2448154  96.5912346
  46.9393600  67.6747371  96.8250176  45.4507784  67.8569754  97.0318852
  35.4813007  71.2065248  90.0829000  35.3649265  70.5310152  90.7510084
  35.5915267  70.7197622  89.2661153  37.8244548  70.6675395  93.7875689
  37.4602755  70.1406016  94.4988610  38.6811664  70.2773864  93.6142174
  43.7293848  61.9569728 101.0506955  43.3977173  62.8265139 100.8268170
  43.1339462  61.6406012 101.7300985  37.4650035  65.6965295  88.7837037
  37.6324437  66.5645531  89.1507509  37.2747204  65.8592577  87.8598327
  40.2225368  74.1582274 100.4502868  39.9226091  75.0607313 100.3418675
  39.8776427  73.8914457 101.3024021  33.6737849  70.6096071  96.4839572
  32.7488346  70.4772285  96.6917264  33.9222263  71.3890290  96.9809515
  43.6222512  66.6764814  98.1300305  42.7139389  66.6080222  97.8359066
  43.5710107  67.1536759  98.9582131  37.4439256  68.1522952  89.7683704
  37.3238881  68.5980003  90.6069185  36.7491844  68.5008270  89.2097242
  31.0346660  70.2529344  97.3183361  31.1639042  70.5063823  98.2322773
  30.3544112  70.8457052  96.9988016  35.2046148  80.9226594  93.4173836
  35.1270177  81.8734419  93.4962316  34.6007791  80.5772467  94.0748762
  37.6963377  68.0954460 106.0735202  36.9196711  68.6548380 106.0638067
  38.3353940  68.5811243 106.5950073  45.4884158  64.8781252  99.9078179
  44.8458538  65.1713786  99.2617974  44.9839087  64.7634173 100.7131376
  43.1424322  68.6244426  90.5964038  44.0542178  68.8571812  90.4211736
  42.6333969  69.2081470  90.0339117  35.9509750  70.9039913 105.6353169
  36.6924434  71.4424957 105.3587993  35.2446735  71.5306202 105.7924721
  41.4265089  73.0469053 104.2325331  41.8348445  72.6051464 103.4879963
  40.7042351  72.4721681 104.4859524  37.7796159  67.9841660 101.6058888
  38.6257355  68.4081074 101.7493537  37.7194797  67.3275285 102.2997451
  41.7493904  73.6070244  97.9877620  41.1202766  73.7715958  97.2853688
  41.3619566  74.0211854  98.7588584  45.6283136  74.5424682  95.3421984
  44.9434174  74.9223583  94.7919017  45.7126985  75.1520009  96.0753931
  40.9295605  65.6446029 103.2640061  40.6856537  66.3988089 102.7274337
  41.2055535  66.0231376 104.0987309  42.8834068  72.1884641 101.9417327
  43.0950963  72.8316401 101.2651708  42.8363816  71.3546957 101.4739257
  40.4860296  64.8002462  98.8453899  39.6244776  65.0983715  99.1370637
  40.5122731  65.0172860  97.9134932  37.3021866  73.3444652  95.2527705
  37.7660211  73.6232355  94.4632327  37.0378664  72.4428097  95.0700796
  34.1945947  72.8916134  98.1907468  34.7647304  73.3203402  97.5524953
  34.7854059  72.6098718  98.8891654  36.2390752  69.4667805  92.0617270
  36.9414795  69.9188848  92.5291196  35.9071380  68.8251623  92.6897163
  34.6871113  68.0579561 106.4368479  34.0569774  68.7395842 106.6703876
  34.5807201  67.9462643 105.4921618  29.9816086  67.7251357  97.3634404
  29.1915140  67.9808886  96.8874514  30.4727333  68.5399695  97.4686444
  43.9979895  75.0656596 100.1139684  44.8197339  74.6636784  99.8322366
  43.9942298  74.9624831 101.0655800  31.9330831  68.0895936  94.3217880
  31.1361995  68.2014631  94.8401376  31.7056423  68.4282589  93.4558771
  37.7636499  74.6140640 102.2700395  37.8280931  75.0761047 103.1058567
  37.0547423  73.9838005 102.3982705  28.2653789  67.9781848  99.7949394
  28.5161827  68.8628858 100.0606970  28.8013337  67.7986449  99.0224486
  52.0885889  71.4095345  96.4624656  51.3349597  70.8402743  96.3068660
  52.2233430  71.3758009  97.4095291  37.4784517  76.2808747  92.1379375
  37.3430191  77.1260283  92.5664223  38.0194329  76.4828025  91.3745309
  33.9651856  62.3600327 108.7993730  33.5718802  61.8066526 109.4741375
  34.7817997  62.6710905 109.1900248  30.9313914  73.7984185  92.7107300
  31.4438435  74.5927435  92.8612865  31.5836627  73.1010476  92.6440902
  32.7408799  76.9149941  94.7930054  32.9175427  77.8367906  94.6051037
  33.5365632  76.6008361  95.2224433  36.8819817  63.7758206 106.3913987
  37.6229531  64.3765359 106.3118449  37.1137740  63.0335844 105.8332030
  32.0261155  68.9614573 104.6692217  31.9114670  68.0599831 104.9699316
  31.1705673  69.2078270 104.3177033  39.1052993  76.9032314 106.2679717
  38.6616847  76.1168692 105.9500622  39.7670207  77.0911464 105.6023608
  33.8640114  78.4328115 100.7940396  34.4147539  78.3045179 100.0217390
  33.0251590  78.7323004 100.4435289  41.2034231  77.1835114 104.2961119
  41.1852706  78.0043995 103.8041388  42.1254151  77.0589189 104.5211260
  37.6607285  74.6979243 105.1384627  38.1935622  73.9367531 104.9083935
  37.1321366  74.4052895 105.8808781  28.8962831  72.1272839  93.4866871
  29.7338053  72.5369848  93.2700579  29.0741098  71.1872282  93.4567065
  40.7927263  69.7947920  89.1750704  40.2773886  70.5652525  89.4139091
  40.5204571  69.1213056  89.7983765  38.3774374  64.6397621  94.2335942
  37.5215970  64.2504471  94.0541581  38.7901326  64.7189582  93.3735728
  45.7661537  72.5480275  91.1103877  44.9890980  72.2091434  90.6659039
  46.4453018  72.5532898  90.4358842  40.5813566  67.6675012  91.0010485
  40.2763702  67.9821161  91.8520628  41.5344008  67.7456432  91.0437818
  39.0259998  73.8265236  92.6503439  38.4981359  73.0917995  92.3376676
  38.5247501  74.6039912  92.4043407  44.0052844  72.0214256  97.7670485
  43.3476518  72.7113517  97.8550614  44.8093243  72.4110688  98.1104472
  33.7578725  64.4884902  95.0110050  34.3322477  64.2660083  94.2783243
  34.3449708  64.5573596  95.7638652  42.8158303  70.3758629  95.8174427
  43.3290184  71.0088621  96.3196137  43.4659527  69.7759824  95.4517787
  34.0848313  66.5189363  89.0305936  33.2485625  66.8564049  89.3515210
  33.9453082  66.3838343  88.0933073  37.1712598  71.6445446  85.6538412
  36.2639660  71.4134699  85.8529561  37.6683630  70.8483065  85.8412394
  40.0780677  80.3542953  88.5735098  39.4042376  80.6574650  89.1820056
  40.4646499  81.1572033  88.2240555  39.2939134  67.8508084  98.0632768
  38.3761695  68.0723031  97.9054456  39.7099277  67.9254395  97.2044475
  40.0774181  69.2499500  93.1935448  40.8246000  69.7620897  92.8842570
  40.3465771  68.9283553  94.0539841  38.3500831  71.7458041  90.1762402
  37.4412051  71.4617073  90.2734872  38.3795915  72.1657119  89.3165709
  43.5820099  75.3564630  93.9453570  43.1282426  74.5155540  94.0018760
  42.9514066  75.9926029  94.2828350  42.5253018  66.2856616  95.1754237
  41.7875775  65.7734002  95.5064480  42.7779792  65.8456998  94.3637514
  42.0253038  77.1941127  94.8803388  42.3176013  77.7546184  94.1615753
  42.5351659  77.4869688  95.6356547  28.9189002  69.4663555  94.1577604
  28.7213402  68.8732915  93.4328671  28.3635666  69.1615765  94.8753543
  36.8985726  69.3586661  96.2772197  36.9534335  68.4060498  96.2014674
  36.0876928  69.5146100  96.7613496  38.0476919  73.2866784  87.5150481
  37.6096349  72.5702643  87.0556118  38.7887360  73.5142899  86.9535572
  34.8378085  67.9763721  94.0362576  34.0245951  68.2757892  94.4427768
  35.3337080  67.5819410  94.7537059  36.9886663  77.9721478  95.9696841
  36.9462842  78.1982324  95.0405373  37.9049362  77.7384853  96.1182642
  40.4352297  68.4405545 102.8677470  40.7901685  68.6677019 103.7271936
  41.0824428  68.7723922 102.2454726  46.1650034  71.5623981  93.5726799
  46.0267933  71.7525577  92.6447988  45.8086253  72.3243364  94.0294850
  34.3292160  65.5482077  99.6523811  34.9691540  65.4070836  98.9546775
  33.4969691  65.2616590  99.2762413  46.1919414  73.6300508  98.5838071
  46.6255920  73.5375797  99.4321125  46.9050994  73.6058009  97.9458087
  35.1052464  74.8484507  95.7658804  35.8993063  74.3534827  95.5641379
  34.3944157  74.3202370  95.4026509  39.9247309  77.2302602 100.1171171
  39.9784331  77.7993539 100.8848887  39.0562090  77.4004488  99.7525208
  31.4135228  68.9927589  91.8418556  30.4832816  68.9312044  92.0588519
  31.5092700  68.4703541  91.0455198  31.3320777  65.5182402  94.4296798
  31.5927594  66.4327735  94.3205959  32.1537949  65.0506844  94.5793411
  32.8045702  66.9320159 101.5995623  33.4768755  66.7237521 100.9508272
  31.9775489  66.7342245 101.1600855  47.0534963  73.6724209 101.1170956
  47.2470853  74.5770020 101.3630231  46.9535581  73.2131628 101.9509541
  38.7071274  63.5582100 103.6161283  38.0599189  64.2572049 103.5225760
  39.4772289  63.9918244 103.9837532  42.1150072  73.8230952 106.6911837
  41.9635578  73.5941503 105.7741920  42.1054751  74.7801553 106.7043182
  38.8835408  71.3962865 101.6758103  39.8127468  71.5474024 101.5027071
  38.4626438  71.4846885 100.8206750  37.6823740  75.4213529  99.4456641
  37.5434826  75.0532313 100.3182579  36.8938336  75.9361168  99.2740599
  38.2771892  80.5222625  90.7882177  38.4523648  80.0510669  91.6027800
  37.5904680  81.1488392  91.0163438  39.2328955  74.7995132  96.8345479
  38.8978788  74.7595902  97.7303129  38.7332901  74.1339848  96.3615889
  33.2073199  70.2062762 102.3598060  33.0692997  69.4743000 102.9609599
  34.1178123  70.1171662 102.0782248  42.1688147  72.1451166  87.1082538
  41.5517318  71.4197994  87.0115591  41.7004635  72.9060526  86.7649613
  35.8355500  69.9182721 101.8481739  36.5455118  69.2775913 101.8068358
  35.7924808  70.1695616 102.7707920  43.8242279  76.8550074 104.7688319
  43.7654825  76.1709294 104.1018902  44.2261797  77.5969064 104.3168945
  34.5484434  66.9047939 103.6677379  34.0121791  66.4538677 104.3198975
  33.9601142  67.0393848 102.9247843  32.8432977  83.6711988  97.5622038
  33.0829576  84.3030512  98.2401056  32.0002174  83.3200028  97.8487397
  43.8259686  74.8189658 103.0002298  42.9386465  74.4815580 103.1228697
  44.3958237  74.0872689 103.2371064  25.4788833  71.1513750  96.3245350
  26.1659873  70.8375480  95.7366365  25.3236962  72.0555115  96.0512601
  30.2823555  66.0403947 100.7530373  30.1981744  65.4329616 100.0180783
  29.4606262  66.5312965 100.7539870  37.3560839  79.4791111  99.9663542
  37.2831011  80.2846082 100.4782846  36.9138232  79.6783076  99.1411563
  37.1450619  78.7162881  93.4766363  36.3618141  79.2584561  93.5704588
  37.8443364  79.2336860  93.8760604  40.4547269  64.5257510  96.1200568
  40.9515969  63.7727472  95.8001639  39.6834250  64.5621827  95.5543778
  48.3077026  70.2297876  97.7618860  48.2966903  71.1122591  97.3912793
  47.4394406  69.8769426  97.5673397  39.8159523  79.3777945 102.1221700
  40.5287495  80.0125409 102.0497602  39.3249551  79.4741811 101.3061702
  41.5377050  73.2829197  93.6938992  40.6033328  73.4030660  93.5243696
  41.7153718  72.3801664  93.4299002  37.0382238  66.6674893  95.8472253
  36.6680025  66.1145933  96.5353159  37.5341330  66.0633027  95.2947253
  44.9249601  69.1246517  94.2289026  45.3910053  69.9574508  94.1549329
  45.3757102  68.6591498  94.9334284  34.8671436  77.1272388 102.9427271
  35.5680896  77.7608871 103.0956665  34.3966551  77.4687120 102.1822910
  42.9925832  75.4690338  91.2275178  43.2685676  75.3546932  92.1369052
  42.1230331  75.0707823  91.1887351  42.6672722  69.6816996 100.7679821
  42.0144172  69.9292903 100.1132274  43.0453102  68.8681134 100.4342299
  39.6279896  79.7176689  94.8707992  39.8102291  78.8998345  95.3335744
  40.4512882  79.9344381  94.4332882  39.9622062  78.6444874  92.1323040
  40.4909828  78.1337328  91.5193202  40.2250281  78.3287404  92.9968573
  38.7160295  70.4236807 107.2545858  38.0400932  70.3230936 107.9248234
  39.5387929  70.2676020 107.7181856  30.4639154  76.6608743  99.8758374
  31.0492591  75.9152431 100.0086278  30.2663993  76.9712700 100.7595038
  33.3177810  79.6959991  94.8920816  32.6488185  80.1806118  94.4084856
  33.1790679  79.9429211  95.8064195  25.0556809  69.2314343  98.5962817
  25.0940909  68.6977934  99.3899935  24.5497102  68.7049549  97.9773794
  37.4583078  81.7303734 101.4903474  38.0101386  81.8935356 102.2552560
  37.7989272  82.3208172 100.8183499  32.4347571  64.0778884 102.0925359
  32.4988898  64.9393715 101.6802757  32.3714692  63.4652886 101.3597718
  31.9099844  66.1502016 105.7398393  32.5371883  65.7679094 106.3535918
  31.0527763  65.9316218 106.1054086  42.3093952  76.5564992 107.3452129
  42.8533856  77.1694950 106.8507084  41.7280797  77.1144570 107.8619142
  28.6865387  67.9578446  91.6716748  28.9818828  67.0489124  91.6183802
  27.7853422  67.9366185  91.3497751  40.5951465  79.6785710  98.4767157
  40.4702605  78.8775449  97.9678102  41.2530557  80.1731903  97.9881127
  32.2159634  66.0334442  97.6544297  31.4946219  66.6470410  97.5151770
  33.0052889  66.5692207  97.5760943  42.6586374  77.4794730 100.1046707
  41.7116709  77.3600081 100.0325033  43.0069147  76.5917228 100.1872968
  35.0185947  63.3688869 103.9284949  35.5420349  63.6151165 104.6911258
  34.7998280  64.2008903 103.5088086  30.4153228  65.6392543  91.7956073
  30.0865934  64.7589922  91.6131179  30.7692599  65.5840212  92.6832463
  39.6632807  77.2747446  96.3051059  39.5157770  76.3464153  96.4858629
  40.4886301  77.2967537  95.8208134  33.5295051  65.9265513  92.1631551
  33.8691124  66.4551434  91.4410159  33.9767172  66.2645919  92.9390118
  43.2666929  78.0976005  97.3915932  44.1913476  77.8918866  97.2540383
  43.0982232  77.8492406  98.3005273  36.2238492  64.3102564 101.6134619
  35.8835313  63.5110377 102.0155299  35.5177499  64.6104275 101.0411452
  35.5163199  64.4240135  90.3624844  36.2371561  64.8021387  89.8588561
  34.8928503  65.1429011  90.4659822  39.6594321  65.1285284  91.2983176
  39.8757936  66.0109921  90.9972004  39.1788389  64.7371497  90.5688818
  34.3993543  68.0870997  97.8753921  34.2538124  68.4011300  98.7678202
  33.9218746  68.7055897  97.3224819  36.2589926  65.0773545  97.9234810
  36.2451494  64.1814638  97.5867108  36.9762354  65.0844208  98.5573096
  38.1116056  65.5110885  99.9687938  37.8533834  66.4327956  99.9672268
  37.5801097  65.1141319 100.6588402  43.0562245  78.6161672  92.7478023
  43.2299123  78.0508095  91.9951876  43.5491136  79.4162567  92.5657513
  28.8739205  70.6276341 100.8141582  28.3292673  71.4036149 100.9461856
  29.7518555  70.9747146 100.6560703  35.6626822  63.9587925  93.1922380
  35.7842733  63.0304571  93.3913268  35.3728864  63.9726611  92.2800696
  48.9101636  71.3798095  94.3668323  49.3532782  70.6305420  93.9687446
  48.0328147  71.3708231  93.9842055  44.0437418  77.9328436  89.8474921
  44.7388322  78.5535129  90.0662236  44.3860568  77.0823788  90.1227299
  29.6605227  69.7546237 103.7071739  28.9186963  69.9028873 104.2936369
  29.3397971  70.0154503 102.8438488  45.9428841  75.3828142  91.3762252
  46.4680165  75.7215415  90.6511572  45.8551193  74.4475157  91.1925387
  37.6048889  79.2962216 103.5052129  37.9136016  79.0511362 104.3774828
  38.4024372  79.5008854 103.0170999  37.6269502  81.4500125  95.7357505
  37.1874492  80.9576504  96.4290362  38.3777618  80.9073093  95.4949581
  30.1061841  77.6411666  95.7382133  30.9319860  77.3415438  95.3580777
  29.7555893  76.8719289  96.1871922  35.0743374  76.9938134  97.8079807
  34.4523383  76.3308839  97.5082035  35.7448241  77.0199266  97.1253455
  28.3070446  75.5597993  96.6971067  27.4702354  75.1320167  96.5155068
  28.2794091  75.7530436  97.6341858  35.1467901  65.4719922 107.4012313
  35.1956057  66.3482045 107.0190083  35.6890415  64.9297315 106.8283956
  45.6322747  76.0161046 106.6813450  44.8418291  75.9985185 106.1417950
  45.3956101  76.5549339 107.4362487  45.7520622  72.8653512 103.9946179
  45.8018627  72.7003519 104.9361701  45.6434545  71.9980771 103.6044059
  34.6356881  75.5442058  91.2838268  34.7845001  76.2277522  90.6304940
  35.4423324  75.5247148  91.7987723  43.0424384  68.8484440 105.3105485
  43.9434247  68.7090905 105.0189483  43.1172359  69.0138895 106.2503663
  37.3767190  66.2251295 104.1558672  36.5070499  66.5184861 103.8841260
  37.6126670  66.8091740 104.8765935  47.2538819  75.2850454 104.2388200
  46.9623627  75.6480434 105.0751661  46.6410950  74.5717462 104.0601532
  48.4534501  72.8503333  96.7590770  49.2881392  73.2893137  96.9228331
  48.5893630  72.3741987  95.9399016  45.5026007  70.4083068 102.7068258
  45.9780129  70.6010714 101.8987110  44.5791572  70.4642254 102.4611642
  32.3909514  71.5707235  92.2899336  32.1455556  70.6669565  92.4879547
  32.5605428  71.5724386  91.3478814  31.6605161  67.3035593  89.7885498
  30.9674406  67.3779948  89.1325534  31.4156913  66.5395937  90.3107015
  38.1352286  78.0390188  88.7550015  37.5626253  78.6580375  88.3020487
  38.7085080  78.5889550  89.2889937  44.2027676  67.2848828 100.9396564
  45.1545099  67.3846926 100.9608788  44.0331126  66.4927097 101.4494648
  42.2242055  64.3704411 101.1255965  41.6291988  64.6509424 100.4302453
  41.9391752  64.8598312 101.8972706  41.3549546  78.3227338  89.8858597
  42.2880219  78.2572900  90.0891473  41.2672759  79.1583605  89.4273130
  43.9837563  77.6393209  86.8462545  43.9051194  77.3053072  87.7398303
  44.8047229  78.1314977  86.8454017  46.6815754  70.5054948 100.0538863
  46.6492074  69.5670949 100.2398547  47.2916377  70.5838985  99.3204688
  38.5199085  69.3751001  86.0966067  39.4658189  69.2457209  86.1654486
  38.1413330  68.6365663  86.5735496  46.8310242  67.2965991 100.0997147
  46.3149291  66.5124448  99.9127075  47.7150191  66.9684708 100.2643666
  52.4992304  71.5670955  99.1944900  53.2295692  71.3056243  99.7552604
  51.8899249  70.8299677  99.2346968  50.5807601  69.7078817  99.7919351
  49.8540764  69.5734782  99.1835843  50.1654888  70.0155646 100.5976069
  38.4037777  73.4268747 107.5566724  39.3240787  73.6047346 107.7506771
  38.3687360  72.4824792 107.4046424  36.7042002  67.3000977  86.0320953
  35.7973457  67.0034090  86.1083666  36.9817983  67.0030795  85.1655239
  27.6219942  68.6207341  96.4819999  27.3022726  67.7672649  96.1894373
  27.0753370  68.8355919  97.2377966  31.3999850  71.3369782 100.1989506
  31.6185859  72.2686890 100.2177539  31.8125624  70.9777756 100.9844309
  36.2727715  66.9102987 109.5892255  36.1724442  67.8597344 109.5204346
  36.0549257  66.5821226 108.7168325  27.4908202  72.2410252  98.4513121
  26.7971674  71.8264205  97.9383075  28.2381193  72.2830789  97.8546540
  42.0776989  62.4321497  95.5189475  42.5776768  62.5438031  94.7103794
  42.7212597  62.1282550  96.1590284  36.1358985  70.3400126 108.4057316
  35.6526067  71.1400486 108.6121205  36.2219924  70.3508071 107.4524760
  29.4044945  72.1728506  96.3279136  29.3815633  72.2716193  95.3761019
  29.7145581  73.0193657  96.6496302  32.0632323  74.2304661 100.4425750
  33.0175576  74.1988603 100.3755682  31.8644846  73.7695285 101.2575976
  32.6531705  72.8005777 103.0096548  33.4724594  73.2949856 103.0331385
  32.9268512  71.8837745 102.9814115  30.4182551  79.7724281  97.4595948
  30.2837019  79.0124681  96.8933946  30.0014614  80.4965180  96.9924737
  41.5541514  74.9561204  86.4672523  42.2577364  75.1611207  87.0830179
  40.8304163  75.5237966  86.7321607  42.3839325  70.7071065  92.5874793
  42.3274526  71.1639617  91.7482426  42.9367667  69.9461750  92.4097636
  50.5056468  69.2356870  95.9196204  49.9456026  69.3050060  96.6927766
  49.8999972  69.0597855  95.1995700  33.5751677  80.6693598  97.6714390
  33.4584061  81.6139030  97.5693081  32.7544123  80.3667159  98.0600190
  43.4628212  75.3943733  88.5170983  44.2973816  74.9624932  88.3348458
  43.3012555  75.2225747  89.4447878  43.1174104  71.8975847  89.8827323
  43.0622908  71.7320118  88.9415767  42.4920159  72.6051879  90.0389512
  27.9066619  67.1343911 103.7088745  28.5525483  66.6242865 104.1975970
  27.6983770  67.8712593 104.2832170  40.4320011  74.2024758 109.2080885
  41.3011171  74.3765411 108.8467520  39.9526763  75.0219175 109.0856615
  34.6006191  81.3221859 100.8870319  35.5033438  81.3545470 101.2036814
  34.3743561  80.3922310 100.9016655  36.3559793  80.0752846  97.5480398
  35.4055424  80.0754708  97.4344770  36.6592280  79.3285581  97.0316432
  32.2464110  64.2811528 107.8063759  33.1095571  63.9248333 108.0167084
  31.6729521  63.9425423 108.4939163  52.0912487  85.9113384  98.6126160
  52.7290897  85.7920132  97.9089500  51.9733330  86.8594228  98.6714112
  48.9002193  85.8640812  98.5487685  48.5620705  85.7481877  97.6608219
  49.7691961  85.4631978  98.5288691  44.7589009  87.7176289  94.5384576
  44.1953874  87.6266226  93.7700863  44.6441404  86.8976193  95.0187068
  49.3821976  87.0175664 104.5073890  49.3710617  86.6228462 103.6354394
  49.5442616  86.2841737 105.1007662  42.3053441  89.2127480  97.3768796
  43.0974733  88.8718305  96.9615095  42.5450091  89.3222456  98.2970949
  50.3388568  91.3847257  89.8499040  49.6876547  91.9701337  89.4633054
  51.1332930  91.9153451  89.9094078  44.2644195  88.4736394  90.2486175
  45.0375071  87.9265381  90.1099051  44.6169594  89.3380643  90.4600636
  46.1029237  89.8012776 103.4553074  45.8119103  90.7058407 103.3399740
  46.7386222  89.8429304 104.1697144  47.0285444  87.1789625 100.0454434
  47.6249016  86.9545647  99.3311397  47.0860416  86.4374370 100.6479882
  46.6010473  84.6329060  87.8804625  46.8535993  84.1110581  87.1188088
  45.6635032  84.4695205  87.9831308  51.6453755  83.6364838  95.6879368
  52.4316845  83.2184261  95.3369785  51.9092460  84.5410930  95.8561016
  51.8163833  89.0737689  90.3868025  51.1809666  89.1472315  91.0988929
  51.4861239  89.6631287  89.7087104  57.0462182  83.5740071  96.5912346
  57.7787354  83.0039288  96.8250176  56.2901538  83.1861672  97.0318852
  46.3206761  86.5357166  90.0829000  46.2043019  85.8602069  90.7510084
  46.4309021  86.0489540  89.2661153  48.6638302  85.9967313  93.7875689
  48.2996509  85.4697934  94.4988610  49.5205418  85.6065782  93.6142174
  54.5687603  77.2861646 101.0506955  54.2370928  78.1557056 100.8268170
  53.9733216  76.9697930 101.7300985  48.3043789  81.0257213  88.7837037
  48.4718192  81.8937449  89.1507509  48.1140958  81.1884494  87.8598327
  51.0619122  89.4874192 100.4502868  50.7619845  90.3899230 100.3418675
  50.7170182  89.2206375 101.3024021  44.5131604  85.9387988  96.4839572
  43.5882100  85.8064202  96.6917264  44.7616017  86.7182208  96.9809515
  54.4616266  82.0056732  98.1300305  53.5533143  81.9372140  97.8359066
  54.4103862  82.4828677  98.9582131  48.2833010  83.4814870  89.7683704
  48.1632635  83.9271921  90.6069185  47.5885598  83.8300188  89.2097242
  41.8740415  85.5821262  97.3183361  42.0032796  85.8355741  98.2322773
  41.1937866  86.1748970  96.9988016  46.0439902  96.2518512  93.4173836
  45.9663932  97.2026337  93.4962316  45.4401546  95.9064384  94.0748762
  48.5357132  83.4246377 106.0735202  47.7590466  83.9840297 106.0638067
  49.1747695  83.9103160 106.5950073  56.3277913  80.2073170  99.9078179
  55.6852293  80.5005703  99.2617974  55.8232841  80.0926090 100.7131376
  53.9818076  83.9536343  90.5964038  54.8935932  84.1863730  90.4211736
  53.4727723  84.5373387  90.0339117  46.7903504  86.2331831 105.6353169
  47.5318189  86.7716875 105.3587993  46.0840490  86.8598119 105.7924721
  52.2658844  88.3760971 104.2325331  52.6742200  87.9343382 103.4879963
  51.5436105  87.8013599 104.4859524  48.6189914  83.3133578 101.6058888
  49.4651109  83.7372991 101.7493537  48.5588552  82.6567202 102.2997451
  52.5887659  88.9362162  97.9877620  51.9596521  89.1007876  97.2853688
  52.2013321  89.3503771  98.7588584  56.4676890  89.8716600  95.3421984
  55.7827929  90.2515501  94.7919017  56.5520740  90.4811926  96.0753931
  51.7689359  80.9737946 103.2640061  51.5250291  81.7280007 102.7274337
  52.0449290  81.3523294 104.0987309  53.7227822  87.5176559 101.9417327
  53.9344717  88.1608318 101.2651708  53.6757570  86.6838875 101.4739257
  51.3254051  80.1294379  98.8453899  50.4638530  80.4275633  99.1370637
  51.3516486  80.3464778  97.9134932  48.1415620  88.6736570  95.2527705
  48.6053966  88.9524273  94.4632327  47.8772418  87.7720014  95.0700796
  45.0339701  88.2208051  98.1907468  45.6041059  88.6495320  97.5524953
  45.6247813  87.9390636  98.8891654  47.0784506  84.7959722  92.0617270
  47.7808550  85.2480766  92.5291196  46.7465135  84.1543541  92.6897163
  45.5264868  83.3871479 106.4368479  44.8963529  84.0687760 106.6703876
  45.4200956  83.2754560 105.4921618  40.8209840  83.0543275  97.3634404
  40.0308894  83.3100803  96.8874514  41.3121088  83.8691613  97.4686444
  54.8373650  90.3948514 100.1139684  55.6591094  89.9928701  99.8322366
  54.8336053  90.2916748 101.0655800  42.7724586  83.4187854  94.3217880
  41.9755749  83.5306548  94.8401376  42.5450178  83.7574506  93.4558771
  48.6030253  89.9432557 102.2700395  48.6674686  90.4052965 103.1058567
  47.8941177  89.3129922 102.3982705  39.1047543  83.3073765  99.7949394
  39.3555582  84.1920775 100.0606970  39.6407092  83.1278367  99.0224486
  62.9279643  86.7387263  96.4624656  62.1743351  86.1694661  96.3068660
  63.0627184  86.7049927  97.4095291  48.3178271  91.6100665  92.1379375
  48.1823946  92.4552201  92.5664223  48.8588084  91.8119942  91.3745309
  44.8045611  77.6892245 108.7993730  44.4112556  77.1358443 109.4741375
  45.6211751  78.0002823 109.1900248  41.7707668  89.1276103  92.7107300
  42.2832189  89.9219353  92.8612865  42.4230381  88.4302393  92.6440902
  43.5802553  92.2441859  94.7930054  43.7569181  93.1659824  94.6051037
  44.3759387  91.9300278  95.2224433  47.7213572  79.1050124 106.3913987
  48.4623285  79.7057277 106.3118449  47.9531495  78.3627762 105.8332030
  42.8654910  84.2906491 104.6692217  42.7508425  83.3891748 104.9699316
  42.0099427  84.5370188 104.3177033  49.9446747  92.2324231 106.2679717
  49.5010602  91.4460610 105.9500622  50.6063961  92.4203382 105.6023608
  44.7033869  93.7620033 100.7940396  45.2541294  93.6337096 100.0217390
  43.8645345  94.0614922 100.4435289  52.0427986  92.5127031 104.2961119
  52.0246461  93.3335912 103.8041388  52.9647906  92.3881106 104.5211260
  48.5001040  90.0271161 105.1384627  49.0329376  89.2659449 104.9083935
  47.9715121  89.7344813 105.8808781  51.6670735  75.1331227 100.6678269
  51.3235004  76.0232868 100.5917379  52.0349697  74.9432884  99.8047854
  39.7356585  87.4564757  93.4866871  40.5731807  87.8661766  93.2700579
  39.9134853  86.5164199  93.4567065  51.6321017  85.1239838  89.1750704
  51.1167641  85.8944442  89.4139091  51.3598326  84.4504974  89.7983765
  49.2168128  79.9689539  94.2335942  48.3609725  79.5796389  94.0541581
  49.6295080  80.0481499  93.3735728  50.7467275  77.5035882  98.6327502
  50.2432071  77.4666017  97.8195307  51.0397882  78.4128625  98.6924159
  46.9910161  77.5874612  97.6393684  47.8563158  77.3917420  97.2799573
  47.0587670  77.3584963  98.5663040  56.6055291  87.8772192  91.1103877
  55.8284734  87.5383352  90.6659039  57.2846772  87.8824816  90.4358842
  51.4207321  82.9966930  91.0010485  51.1157456  83.3113079  91.8520628
  52.3737763  83.0748350  91.0437818  49.8653752  89.1557153  92.6503439
  49.3375114  88.4209913  92.3376676  49.3641255  89.9331830  92.4043407
  54.8446598  87.3506174  97.7670485  54.1870273  88.0405435  97.8550614
  55.6486998  87.7402606  98.1104472  44.5972480  79.8176819  95.0110050
  45.1716232  79.5952001  94.2783243  45.1843462  79.8865514  95.7638652
  53.6552057  85.7050546  95.8174427  54.1683939  86.3380538  96.3196137
  54.3053281  85.1051742  95.4517787  44.9242067  81.8481281  89.0305936
  44.0879379  82.1855967  89.3515210  44.7846837  81.7130260  88.0933073
  46.8995148  76.6918068  93.7385120  46.2459560  76.3767086  93.1141735
  46.8575622  76.0693809  94.4644943  48.0106353  86.9737363  85.6538412
  47.1033414  86.7426617  85.8529561  48.5077385  86.1774983  85.8412394
  50.9174431  95.6834871  88.5735098  50.2436130  95.9866567  89.1820056
  51.3040253  96.4863951  88.2240555  50.1332888  83.1800002  98.0632768
  49.2155449  83.4014949  97.9054456  50.5493032  83.2546312  97.2044475
  50.9167936  84.5791418  93.1935448  51.6639755  85.0912815  92.8842570
  51.1859525  84.2575470  94.0539841  49.1894586  87.0749958  90.1762402
  48.2805805  86.7908991  90.2734872  49.2189670  87.4949037  89.3165709
  54.4213853  90.6856548  93.9453570  53.9676181  89.8447458  94.0018760
  53.7907820  91.3217946  94.2828350  53.3646773  81.6148534  95.1754237
  52.6269530  81.1025920  95.5064480  53.6173547  81.1748915  94.3637514
  52.8646793  92.5233045  94.8803388  53.1569767  93.0838102  94.1615753
  53.3745413  92.8161606  95.6356547  53.4658400  74.3924786  95.7696006
  53.7717277  73.5322149  95.4821921  54.1911005  74.9842406  95.5695000
  39.7582756  84.7955472  94.1577604  39.5607156  84.2024833  93.4328671
  39.2029420  84.4907683  94.8753543  47.7379480  84.6878579  96.2772197
  47.7928090  83.7352415  96.2014674  46.9270682  84.8438018  96.7613496
  48.8870674  88.6158702  87.5150481  48.4490104  87.8994561  87.0556118
  49.6281115  88.8434817  86.9535572  45.6771840  83.3055639  94.0362576
  44.8639705  83.6049809  94.4427768  46.1730834  82.9111327  94.7537059
  47.8280418  93.3013396  95.9696841  47.7856597  93.5274242  95.0405373
  48.7443117  93.0676770  96.1182642  51.2746052  83.7697463 102.8677470
  51.6295439  83.9968936 103.7271936  51.9218183  84.1015840 102.2454726
  57.0043789  86.8915899  93.5726799  56.8661687  87.0817495  92.6447988
  56.6480007  87.6535282  94.0294850  45.1685915  80.8773994  99.6523811
  45.8085294  80.7362753  98.9546775  44.3363445  80.5908508  99.2762413
  57.0313168  88.9592426  98.5838071  57.4649675  88.8667715  99.4321125
  57.7444749  88.9349927  97.9458087  45.9446219  90.1776425  95.7658804
  46.7386817  89.6826745  95.5641379  45.2337911  89.6494288  95.4026509
  50.7641063  92.5594520 100.1171171  50.8178085  93.1285456 100.8848887
  49.8955844  92.7296405  99.7525208  42.2528982  84.3219506  91.8418556
  41.3226570  84.2603962  92.0588519  42.3486454  83.7995459  91.0455198
  42.1714531  80.8474319  94.4296798  42.4321348  81.7619652  94.3205959
  42.9931703  80.3798762  94.5793411  43.6439456  82.2612076 101.5995623
  44.3162510  82.0529439 100.9508272  42.8169243  82.0634162 101.1600855
  57.8928718  89.0016127 101.1170956  58.0864608  89.9061937 101.3630231
  57.7929336  88.5423546 101.9509541  49.5465028  78.8874017 103.6161283
  48.8992944  79.5863967 103.5225760  50.3166044  79.3210161 103.9837532
  52.9543826  89.1522869 106.6911837  52.8029333  88.9233421 105.7741920
  52.9448506  90.1093471 106.7043182  49.7229163  86.7254782 101.6758103
  50.6521223  86.8765942 101.5027071  49.3020193  86.8138803 100.8206750
  48.5217495  90.7505447  99.4456641  48.3828580  90.3824231 100.3182579
  47.7332091  91.2653086  99.2740599  49.1165647  95.8514543  90.7882177
  49.2917402  95.3802586  91.6027800  48.4298435  96.4780309  91.0163438
  50.0722710  90.1287049  96.8345479  49.7372542  90.0887819  97.7303129
  49.5726655  89.4631765  96.3615889  44.0466954  85.5354679 102.3598060
  43.9086752  84.8034918 102.9609599  44.9571877  85.4463579 102.0782248
  53.0081901  87.4743084  87.1082538  52.3911072  86.7489912  87.0115591
  52.5398390  88.2352444  86.7649613  46.6749254  85.2474639 101.8481739
  47.3848873  84.6067831 101.8068358  46.6318563  85.4987534 102.7707920
  54.6636033  92.1841992 104.7688319  54.6048579  91.5001212 104.1018902
  55.0655551  92.9260982 104.3168945  45.3878188  82.2339857 103.6677379
  44.8515545  81.7830595 104.3198975  44.7994897  82.3685765 102.9247843
  43.6826732  99.0003906  97.5622038  43.9223330  99.6322430  98.2401056
  42.8395928  98.6491946  97.8487397  44.7980447  81.6928508  86.2303843
  43.9209914  81.5717309  85.8666089  45.2738200  80.9014586  85.9782731
  54.6653440  90.1481576 103.0002298  53.7780219  89.8107498 103.1228697
  55.2351991  89.4164607 103.2371064  36.3182587  86.4805668  96.3245350
  37.0053627  86.1667398  95.7366365  36.1630716  87.3847032  96.0512601
  41.1217310  81.3695864 100.7530373  41.0375498  80.7621534 100.0180783
  40.3000016  81.8604883 100.7539870  48.1954594  94.8083028  99.9663542
  48.1224765  95.6138000 100.4782846  47.7531987  95.0074994  99.1411563
  47.9844373  94.0454798  93.4766363  47.2011895  94.5876479  93.5704588
  48.6837119  94.5628778  93.8760604  51.2941023  79.8549428  96.1200568
  51.7909723  79.1019390  95.8001639  50.5228005  79.8913744  95.5543778
  59.1470781  85.5589793  97.7618860  59.1360657  86.4414509  97.3912793
  58.2788160  85.2061344  97.5673397  50.6553277  94.7069862 102.1221700
  51.3681249  95.3417327 102.0497602  50.1643306  94.8033728 101.3061702
  52.3770804  88.6121115  93.6938992  51.4427083  88.7322577  93.5243696
  52.5547473  87.7093582  93.4299002  47.8775992  81.9966811  95.8472253
  47.5073780  81.4437851  96.5353159  48.3735085  81.3924944  95.2947253
  55.7643356  84.4538434  94.2289026  56.2303808  85.2866426  94.1549329
  56.2150856  83.9883416  94.9334284  45.7065191  92.4564306 102.9427271
  46.4074650  93.0900789 103.0956665  45.2360306  92.7979037 102.1822910
  53.8319587  90.7982256  91.2275178  54.1079431  90.6838850  92.1369052
  52.9624085  90.3999740  91.1887351  53.7360018  76.8219021  98.2679927
  52.8223098  77.0523248  98.4362134  54.1653120  76.9057465  99.1193960
  53.5066477  85.0108913 100.7679821  52.8537927  85.2584821 100.1132274
  53.8846857  84.1973051 100.4342299  50.4673651  95.0468606  94.8707992
  50.6496045  94.2290262  95.3335744  51.2906637  95.2636299  94.4332882
  50.8015816  93.9736792  92.1323040  51.3303583  93.4629246  91.5193202
  51.0644036  93.6579322  92.9968573  49.5554050  85.7528724 107.2545858
  48.8794687  85.6522854 107.9248234  50.3781684  85.5967938 107.7181856
  41.3032909  91.9900661  99.8758374  41.8886346  91.2444349 100.0086278
  41.1057747  92.3004618 100.7595038  44.1571564  95.0251908  94.8920816
  43.4881939  95.5098036  94.4084856  44.0184434  95.2721129  95.8064195
  35.8950564  84.5606261  98.5962817  35.9334663  84.0269852  99.3899935
  35.3890856  84.0341467  97.9773794  48.2976833  97.0595652 101.4903474
  48.8495141  97.2227273 102.2552560  48.6383026  97.6500090 100.8183499
  43.2741326  79.4070802 102.0925359  43.3382652  80.2685632 101.6802757
  43.2108446  78.7944803 101.3597718  42.7493598  81.4793934 105.7398393
  43.3765637  81.0971011 106.3535918  41.8921517  81.2608136 106.1054086
  53.1487707  91.8856909 107.3452129  53.6927611  92.4986868 106.8507084
  52.5674552  92.4436488 107.8619142  39.5259141  83.2870363  91.6716748
  39.8212582  82.3781042  91.6183802  38.6247177  83.2658103  91.3497751
  51.4345220  95.0077627  98.4767157  51.3096359  94.2067367  97.9678102
  52.0924311  95.5023821  97.9881127  43.0553388  81.3626360  97.6544297
  42.3339974  81.9762327  97.5151770  43.8446644  81.8984125  97.5760943
  53.4980128  92.8086647 100.1046707  52.5510464  92.6891999 100.0325033
  53.8462901  91.9209145 100.1872968  45.8579702  78.6980786 103.9284949
  46.3814103  78.9443083 104.6911258  45.6392035  79.5300821 103.5088086
  41.2546983  80.9684461  91.7956073  40.9259689  80.0881840  91.6131179
  41.6086353  80.9132130  92.6832463  50.5026562  92.6039364  96.3051059
  50.3551524  91.6756071  96.4858629  51.3280055  92.6259454  95.8208134
  44.3688806  81.2557431  92.1631551  44.7084878  81.7843352  91.4410159
  44.8160926  81.5937837  92.9390118  54.1060683  93.4267922  97.3915932
  55.0307231  93.2210784  97.2540383  53.9375987  93.1784323  98.3005273
  47.0632247  79.6394481 101.6134619  46.7229067  78.8402294 102.0155299
  46.3571253  79.9396192 101.0411452  47.7148719  76.7243794 100.0661942
  48.5374788  76.2504272  99.9440832  47.9586782  77.5034278 100.5660628
  46.3556953  79.7532052  90.3624844  47.0765316  80.1313305  89.8588561
  45.7322257  80.4720929  90.4659822  50.4988076  80.4577201  91.2983176
  50.7151690  81.3401839  90.9972004  50.0182143  80.0663415  90.5688818
  45.2387297  83.4162914  97.8753921  45.0931878  83.7303218  98.7678202
  44.7612501  84.0347815  97.3224819  47.0983680  80.4065462  97.9234810
  47.0845249  79.5106556  97.5867108  47.8156108  80.4136126  98.5573096
  48.9509811  80.8402803  99.9687938  48.6927589  81.7619873  99.9672268
  48.4194851  80.4433237 100.6588402  53.8956000  93.9453590  92.7478023
  54.0692877  93.3800012  91.9951876  54.3884891  94.7454485  92.5657513
  39.7132959  85.9568259 100.8141582  39.1686428  86.7328067 100.9461856
  40.5912309  86.3039063 100.6560703  46.5020576  79.2879843  93.1922380
  46.6236487  78.3596489  93.3913268  46.2122618  79.3018529  92.2800696
  49.3711767  76.9734753  96.3289100  49.3933463  77.0374086  95.3741080
  49.7879826  76.1339262  96.5229606  59.7495391  86.7090013  94.3668323
  60.1926537  85.9597338  93.9687446  58.8721901  86.7000149  93.9842055
  54.8831172  93.2620354  89.8474921  55.5782077  93.8827047  90.0662236
  55.2254322  92.4115705  90.1227299  40.4998981  85.0838155 103.7071739
  39.7580717  85.2320790 104.2936369  40.1791726  85.3446421 102.8438488
  56.7822595  90.7120060  91.3762252  57.3073919  91.0507332  90.6511572
  56.6944948  89.7767075  91.1925387  48.4442644  94.6254133 103.5052129
  48.7529770  94.3803280 104.3774828  49.2418126  94.8300772 103.0170999
  48.4663256  96.7792043  95.7357505  48.0268246  96.2868422  96.4290362
  49.2171373  96.2365011  95.4949581  40.9455595  92.9703584  95.7382133
  41.7713615  92.6707356  95.3580777  40.5949647  92.2011206  96.1871922
  45.9137128  92.3230052  97.8079807  45.2917137  91.6600757  97.5082035
  46.5841995  92.3491184  97.1253455  39.1464200  90.8889910  96.6971067
  38.3096108  90.4612085  96.5155068  39.1187845  91.0822354  97.6341858
  45.9861656  80.8011840 107.4012313  46.0349811  81.6773963 107.0190083
  46.5284170  80.2589233 106.8283956  56.4716501  91.3452963 106.6813450
  55.6812045  91.3277102 106.1417950  56.2349856  91.8841257 107.4362487
  56.5914376  88.1945430 103.9946179  56.6412381  88.0295437 104.9361701
  56.4828300  87.3272689 103.6044059  45.4750635  90.8733975  91.2838268
  45.6238755  91.5569440  90.6304940  46.2817079  90.8539065  91.7987723
  53.8818139  84.1776358 105.3105485  54.7828002  84.0382823 105.0189483
  53.9566113  84.3430813 106.2503663  48.2160944  81.5543212 104.1558672
  47.3464254  81.8476779 103.8841260  48.4520424  82.1383657 104.8765935
  58.0932573  90.6142371 104.2388200  57.8017382  90.9772352 105.0751661
  57.4804704  89.9009380 104.0601532  59.2928256  88.1795251  96.7590770
  60.1275147  88.6185055  96.9228331  59.4287384  87.7033904  95.9399016
  56.3419761  85.7374986 102.7068258  56.8173883  85.9302632 101.8987110
  55.4185327  85.7934172 102.4611642  43.2303268  86.8999153  92.2899336
  42.9849310  85.9961483  92.4879547  43.3999183  86.9016303  91.3478814
  50.9199978  77.7722829 101.6724092  51.4381922  78.5083856 101.3470581
  50.5655111  78.0786823 102.5070851  42.4998916  82.6327511  89.7885498
  41.8068161  82.7071866  89.1325534  42.2550667  81.8687854  90.3107015
  51.1712572  74.1923112  97.1924989  51.4514326  73.5246301  97.8185415
  51.9563179  74.3852208  96.6799652  48.9746041  93.3682106  88.7550015
  48.4020008  93.9872293  88.3020487  49.5478834  93.9181468  89.2889937
  55.0421430  82.6140746 100.9396564  55.9938853  82.7138844 100.9608788
  54.8724881  81.8219014 101.4494648  53.0635810  79.6996329 101.1255965
  52.4685742  79.9801342 100.4302453  52.7785507  80.1890230 101.8972706
  52.1943300  93.6519256  89.8858597  53.1273974  93.5864818  90.0891473
  52.1066513  94.4875523  89.4273130  54.8231317  92.9685126  86.8462545
  54.7444949  92.6344990  87.7398303  55.6440984  93.4606894  86.8454017
  57.5209508  85.8346866 100.0538863  57.4885828  84.8962866 100.2398547
  58.1310132  85.9130902  99.3204688  49.3592839  84.7042919  86.0966067
  50.3051944  84.5749127  86.1654486  48.9807084  83.9657581  86.5735496
  57.6703997  82.6257909 100.0997147  57.1543045  81.8416366  99.9127075
  58.5543945  82.2976626 100.2643666  55.3314724  76.3698925  96.0592959
  55.1339545  76.0614013  96.9436291  55.9414429  77.0960564  96.1890889
  63.3386058  86.8962872  99.1944900  64.0689447  86.6348161  99.7552604
  62.7293004  86.1591594  99.2346968  61.4201355  85.0370735  99.7919351
  60.6934519  84.9026700  99.1835843  61.0048642  85.3447564 100.5976069
  49.2431532  88.7560665 107.5566724  50.1634541  88.9339264 107.7506771
  49.2081115  87.8116710 107.4046424  47.5435756  82.6292895  86.0320953
  46.6367212  82.3326008  86.1083666  47.8211737  82.3322713  85.1655239
  38.4613697  83.9499258  96.4819999  38.1416481  83.0964567  96.1894373
  37.9147125  84.1647837  97.2377966  42.2393604  86.6661699 100.1989506
  42.4579614  87.5978807 100.2177539  42.6519378  86.3069674 100.9844309
  49.1597822  77.1729785  92.1865194  48.3498550  76.8276870  92.5620440
  49.8482239  76.8637328  92.7752806  51.0888370  76.2507832  93.8089491
  51.6419409  76.6703285  94.4679514  51.3258457  75.3243580  93.8512447
  47.1121470  82.2394905 109.5892255  47.0118196  83.1889262 109.5204346
  46.8943012  81.9113144 108.7168325  46.3134541  79.4879830  86.1732932
  47.1753705  79.8134729  86.4328749  46.4984885  78.7011326  85.6605998
  38.3301957  87.5702170  98.4513121  37.6365428  87.1556123  97.9383075
  39.0774948  87.6122706  97.8546540  54.4667177  78.3608357  93.3168155
  53.8865846  79.0193161  92.9346207  54.2003110  77.5385701  92.9055572
  52.9170744  77.7613414  95.5189475  53.4170522  77.8729949  94.7103794
  53.5606352  77.4574467  96.1590284  46.9752740  85.6692044 108.4057316
  46.4919821  86.4692404 108.6121205  47.0613679  85.6799989 107.4524760
  40.2438699  87.5020424  96.3279136  40.2209387  87.6008111  95.3761019
  40.5539336  88.3485574  96.6496302  42.9026077  89.5596579 100.4425750
  43.8569331  89.5280521 100.3755682  42.7038601  89.0987202 101.2575976
  43.4925459  88.1297695 103.0096548  44.3118348  88.6241773 103.0331385
  43.7662267  87.2129663 102.9814115  53.2492055  80.5208447  92.3724503
  52.3617910  80.8058098  92.1544698  53.6646044  80.3602210  91.5251780
  56.6006592  80.5454968  96.0878842  57.3766982  81.0351420  96.3603459
  55.8754726  80.9713022  96.5450712  59.0379150  81.2582587  97.1452783
  59.6323641  81.0178323  96.4346091  59.1105734  80.5389718  97.7726319
  41.2576306  95.1016198  97.4595948  41.1230774  94.3416599  96.8933946
  40.8408368  95.8257098  96.9924737  52.3935269  90.2853122  86.4672523
  53.0971119  90.4903124  87.0830179  51.6697918  90.8529884  86.7321607
  53.2233079  86.0362983  92.5874793  53.1668281  86.4931534  91.7482426
  53.7761422  85.2753668  92.4097636  57.0337885  81.8252715  93.4124913
  56.7774819  81.4249351  94.2433121  56.4090753  82.5396509  93.2875052
  61.3450223  84.5648788  95.9196204  60.7849781  84.6341977  96.6927766
  60.7393726  84.3889773  95.1995700  44.4145432  95.9985515  97.6714390
  44.2977816  96.9430948  97.5693081  43.5937878  95.6959077  98.0600190
  54.3021966  90.7235651  88.5170983  55.1367570  90.2916849  88.3348458
  54.1406309  90.5517665  89.4447878  53.9567858  87.2267764  89.8827323
  53.9016662  87.0612036  88.9415767  53.3313914  87.9343797  90.0389512
  38.7460373  82.4635829 103.7088745  39.3919237  81.9534783 104.1975970
  38.5377525  83.2004510 104.2832170  51.2713766  89.5316676 109.2080885
  52.1404925  89.7057328 108.8467520  50.7920517  90.3511093 109.0856615
  47.2663984  76.7275873  89.4612641  47.2542654  77.6717713  89.6180912
  48.1587406  76.5446019  89.1672102  45.4399946  96.6513777 100.8870319
  46.3427193  96.6837387 101.2036814  45.2137316  95.7214228 100.9016655
  47.1953548  95.4044764  97.5480398  46.2449179  95.4046625  97.4344770
  47.4986034  94.6577498  97.0316432  51.0816103  73.3218650  93.7158578
  50.3148499  72.7677137  93.8615260  51.4926808  73.3940519  94.5772729
  43.0857864  79.6103446 107.8063759  43.9489326  79.2540251 108.0167084
  42.5123275  79.2717341 108.4939163  62.9306241 101.2405302  98.6126160
  63.5684651 101.1212049  97.9089500  62.8127084 102.1886146  98.6714112
  59.7395948 101.1932730  98.5487685  59.4014459 101.0773795  97.6608219
  60.6085716 100.7923895  98.5288691  55.5982763 103.0468207  94.5384576
  55.0347628 102.9558143  93.7700863  55.4835158 102.2268111  95.0187068
  60.2215731 102.3467582 104.5073890  60.2104371 101.9520380 103.6354394
  60.3836370 101.6133654 105.1007662  53.1447195 104.5419398  97.3768796
  53.9368487 104.2010223  96.9615095  53.3843845 104.6514373  98.2970949
  61.1782322 106.7139174  89.8499040  60.5270302 107.2993255  89.4633054
  61.9726685 107.2445369  89.9094078  55.1037949 103.8028311  90.2486175
  55.8768825 103.2557298  90.1099051  55.4563348 104.6672561  90.4600636
  56.9422992 105.1304694 103.4553074  56.6512858 106.0350325 103.3399740
  57.5779976 105.1721221 104.1697144  57.8679199 102.5081542 100.0454434
  58.4642771 102.2837565  99.3311397  57.9254170 101.7666288 100.6479882
  57.4404227  99.9620978  87.8804625  57.6929748  99.4402499  87.1188088
  56.5028786  99.7987123  87.9831308  62.4847510  98.9656756  95.6879368
  63.2710599  98.5476179  95.3369785  62.7486214  99.8702848  95.8561016
  62.6557587 104.4029606  90.3868025  62.0203420 104.4764233  91.0988929
  62.3254994 104.9923205  89.7087104  57.1600516 101.8649083  90.0829000
  57.0436774 101.1893987  90.7510084  57.2702776 101.3781457  89.2661153
  59.5032057 101.3259231  93.7875689  59.1390264 100.7989852  94.4988610
  60.3599173 100.9357700  93.6142174  59.1437544  96.3549130  88.7837037
  59.3111946  97.2229367  89.1507509  58.9534713  96.5176412  87.8598327
  61.9012877 104.8166109 100.4502868  61.6013600 105.7191148 100.3418675
  61.5563936 104.5498292 101.3024021  55.3525358 101.2679906  96.4839572
  54.4275855 101.1356120  96.6917264  55.6009772 102.0474125  96.9809515
  65.3010021  97.3348649  98.1300305  64.3926898  97.2664058  97.8359066
  65.2497616  97.8120594  98.9582131  59.1226765  98.8106788  89.7683704
  59.0026390  99.2563839  90.6069185  58.4279353  99.1592105  89.2097242
  52.7134169 100.9113180  97.3183361  52.8426551 101.1647659  98.2322773
  52.0331621 101.5040888  96.9988016  56.8833657 111.5810430  93.4173836
  56.8057686 112.5318255  93.4962316  56.2795300 111.2356302  94.0748762
  59.3750886  98.7538295 106.0735202  58.5984220  99.3132215 106.0638067
  60.0141449  99.2395078 106.5950073  64.8211831  99.2828261  90.5964038
  65.7329687  99.5155648  90.4211736  64.3121478  99.8665305  90.0339117
  57.6297259 101.5623748 105.6353169  58.3711943 102.1008792 105.3587993
  56.9234244 102.1890037 105.7924721  63.1052598 103.7052889 104.2325331
  63.5135954 103.2635299 103.4879963  62.3829860 103.1305516 104.4859524
  59.4583668  98.6425496 101.6058888  60.3044864  99.0664909 101.7493537
  59.3982306  97.9859120 102.2997451  63.4281413 104.2654079  97.9877620
  62.7990275 104.4299794  97.2853688  63.0407075 104.6795689  98.7588584
  67.3070645 105.2008517  95.3421984  66.6221683 105.5807419  94.7919017
  67.3914494 105.8103844  96.0753931  62.6083114  96.3029864 103.2640061
  62.3644046  97.0571924 102.7274337  62.8843044  96.6815212 104.0987309
  64.5621577 102.8468476 101.9417327  64.7738472 103.4900236 101.2651708
  64.5151325 102.0130793 101.4739257  62.1647805  95.4586297  98.8453899
  61.3032284  95.7567550  99.1370637  62.1910240  95.6756696  97.9134932
  58.9809375 104.0028487  95.2527705  59.4447720 104.2816190  94.4632327
  58.7166173 103.1011932  95.0700796  55.8733456 103.5499969  98.1907468
  56.4434813 103.9787237  97.5524953  56.4641568 103.2682554  98.8891654
  57.9178261 100.1251640  92.0617270  58.6202304 100.5772684  92.5291196
  57.5858889  99.4835459  92.6897163  56.3658622  98.7163396 106.4368479
  55.7357283  99.3979677 106.6703876  56.2594710  98.6046478 105.4921618
  51.6603595  98.3835193  97.3634404  50.8702649  98.6392721  96.8874514
  52.1514842  99.1983530  97.4686444  65.6767404 105.7240432 100.1139684
  66.4984848 105.3220619  99.8322366  65.6729807 105.6208666 101.0655800
  53.6118340  98.7479772  94.3217880  52.8149504  98.8598466  94.8401376
  53.3843932  99.0866424  93.4558771  59.4424008 105.2724475 102.2700395
  59.5068440 105.7344882 103.1058567  58.7334932 104.6421840 102.3982705
  49.9441298  98.6365683  99.7949394  50.1949336  99.5212693 100.0606970
  50.4800846  98.4570285  99.0224486  59.1572026 106.9392582  92.1379375
  59.0217700 107.7844118  92.5664223  59.6981838 107.1411860  91.3745309
  55.6439365  93.0184162 108.7993730  55.2506311  92.4650361 109.4741375
  56.4605506  93.3294741 109.1900248  52.6101423 104.4568021  92.7107300
  53.1225944 105.2511271  92.8612865  53.2624136 103.7594311  92.6440902
  54.4196308 107.5733777  94.7930054  54.5962936 108.4951742  94.6051037
  55.2153141 107.2592196  95.2224433  58.5607326  94.4342041 106.3913987
  59.3017040  95.0349195 106.3118449  58.7925249  93.6919679 105.8332030
  53.7048664  99.6198409 104.6692217  53.5902179  98.7183666 104.9699316
  52.8493182  99.8662105 104.3177033  60.7840502 107.5616149 106.2679717
  60.3404356 106.7752528 105.9500622  61.4457716 107.7495300 105.6023608
  55.5427623 109.0911951 100.7940396  56.0935048 108.9629014 100.0217390
  54.7039099 109.3906840 100.4435289  62.8821740 107.8418949 104.2961119
  62.8640215 108.6627830 103.8041388  63.8041660 107.7173024 104.5211260
  59.3394794 105.3563078 105.1384627  59.8723131 104.5951367 104.9083935
  58.8108875 105.0636730 105.8808781  62.5064489  90.4623144 100.6678269
  62.1628759  91.3524786 100.5917379  62.8743452  90.2724802  99.8047854
  50.5750340 102.7856675  93.4866871  51.4125562 103.1953683  93.2700579
  50.7528607 101.8456117  93.4567065  62.4714772 100.4531755  89.1750704
  61.9561395 101.2236360  89.4139091  62.1992080  99.7796892  89.7983765
  60.0561883  95.2981456  94.2335942  59.2003479  94.9088307  94.0541581
  60.4688835  95.3773417  93.3735728  61.5861030  92.8327800  98.6327502
  61.0825825  92.7957935  97.8195307  61.8791636  93.7420542  98.6924159
  57.8303915  92.9166529  97.6393684  58.6956912  92.7209338  97.2799573
  57.8981424  92.6876881  98.5663040  62.2601075  98.3258848  91.0010485
  61.9551211  98.6404997  91.8520628  63.2131517  98.4040267  91.0437818
  60.7047507 104.4849071  92.6503439  60.1768868 103.7501830  92.3376676
  60.2035010 105.2623747  92.4043407  65.6840353 102.6798091  97.7670485
  65.0264027 103.3697353  97.8550614  66.4880752 103.0694523  98.1104472
  55.4366234  95.1468737  95.0110050  56.0109986  94.9243919  94.2783243
  56.0237217  95.2157432  95.7638652  64.4945812 101.0342464  95.8174427
  65.0077693 101.6672456  96.3196137  65.1447036 100.4343660  95.4517787
  55.7635822  97.1773198  89.0305936  54.9273134  97.5147885  89.3515210
  55.6240591  97.0422178  88.0933073  57.7388902  92.0209986  93.7385120
  57.0853315  91.7059003  93.1141735  57.6969376  91.3985727  94.4644943
  58.8500107 102.3029281  85.6538412  57.9427169 102.0718535  85.8529561
  59.3471139 101.5066900  85.8412394  61.7568186 111.0126788  88.5735098
  61.0829885 111.3158485  89.1820056  62.1434008 111.8155869  88.2240555
  60.9726643  98.5091920  98.0632768  60.0549204  98.7306867  97.9054456
  61.3886786  98.5838230  97.2044475  61.7561690  99.9083335  93.1935448
  62.5033509 100.4204733  92.8842570  62.0253280  99.5867388  94.0539841
  60.0288340 102.4041876  90.1762402  59.1199560 102.1200909  90.2734872
  60.0583424 102.8240955  89.3165709  65.2607608 106.0148466  93.9453570
  64.8069935 105.1739375  94.0018760  64.6301575 106.6509864  94.2828350
  64.2040527  96.9440452  95.1754237  63.4663284  96.4317838  95.5064480
  64.4567301  96.5040833  94.3637514  63.7040547 107.8524962  94.8803388
  63.9963522 108.4130019  94.1615753  64.2139168 108.1453523  95.6356547
  64.3052155  89.7216704  95.7696006  64.6111032  88.8614067  95.4821921
  65.0304760  90.3134324  95.5695000  50.5976511 100.1247390  94.1577604
  50.4000911  99.5316751  93.4328671  50.0423175  99.8199600  94.8753543
  58.5773235 100.0170497  96.2772197  58.6321844  99.0644333  96.2014674
  57.7664437 100.1729936  96.7613496  59.7264428 103.9450620  87.5150481
  59.2883858 103.2286479  87.0556118  60.4674869 104.1726735  86.9535572
  56.5165594  98.6347556  94.0362576  55.7033460  98.9341727  94.4427768
  57.0124589  98.2403245  94.7537059  58.6674172 108.6305313  95.9696841
  58.6250351 108.8566160  95.0405373  59.5836871 108.3968688  96.1182642
  62.1139806  99.0989381 102.8677470  62.4689194  99.3260854 103.7271936
  62.7611937  99.4307758 102.2454726  56.0079669  96.2065912  99.6523811
  56.6479049  96.0654671  98.9546775  55.1757200  95.9200425  99.2762413
  67.8706923 104.2884344  98.5838071  68.3043429 104.1959633  99.4321125
  68.5838503 104.2641844  97.9458087  56.7839973 105.5068342  95.7658804
  57.5780572 105.0118662  95.5641379  56.0731665 104.9786205  95.4026509
  61.6034818 107.8886438 100.1171171  61.6571840 108.4577374 100.8848887
  60.7349599 108.0588323  99.7525208  53.0922737  99.6511424  91.8418556
  52.1620325  99.5895880  92.0588519  53.1880209  99.1287377  91.0455198
  53.0108286  96.1766237  94.4296798  53.2715103  97.0911570  94.3205959
  53.8325458  95.7090679  94.5793411  54.4833211  97.5903994 101.5995623
  55.1556264  97.3821356 100.9508272  53.6562997  97.3926080 101.1600855
  68.7322472 104.3308044 101.1170956  68.9258362 105.2353855 101.3630231
  68.6323090 103.8715463 101.9509541  60.3858783  94.2165935 103.6161283
  59.7386698  94.9155885 103.5225760  61.1559798  94.6502079 103.9837532
  63.7937581 104.4814787 106.6911837  63.6423087 104.2525339 105.7741920
  63.7842260 105.4385389 106.7043182  60.5622917 102.0546700 101.6758103
  61.4914977 102.2057859 101.5027071  60.1413947 102.1430721 100.8206750
  59.3611249 106.0797364  99.4456641  59.2222335 105.7116149 100.3182579
  58.5725845 106.5945004  99.2740599  59.9559401 111.1806461  90.7882177
  60.1311157 110.7094504  91.6027800  59.2692189 111.8072227  91.0163438
  60.9116464 105.4578967  96.8345479  60.5766297 105.4179737  97.7303129
  60.4120410 104.7923683  96.3615889  54.8860708 100.8646597 102.3598060
  54.7480506 100.1326836 102.9609599  55.7965632 100.7755497 102.0782248
  57.5143009 100.5766556 101.8481739  58.2242627  99.9359749 101.8068358
  57.4712317 100.8279451 102.7707920  65.5029788 107.5133910 104.7688319
  65.4442334 106.8293130 104.1018902  65.9049306 108.2552900 104.3168945
  56.2271943  97.5631774 103.6677379  55.6909300  97.1122513 104.3198975
  55.6388651  97.6977683 102.9247843  54.5220486 114.3295824  97.5622038
  54.7617085 114.9614348  98.2401056  53.6789683 113.9783864  97.8487397
  55.6374202  97.0220426  86.2303843  54.7603668  96.9009226  85.8666089
  56.1131955  96.2306504  85.9782731  65.5047195 105.4773494 103.0002298
  64.6173974 105.1399415 103.1228697  66.0745746 104.7456525 103.2371064
  47.1576342 101.8097585  96.3245350  47.8447382 101.4959315  95.7366365
  47.0024471 102.7138950  96.0512601  51.9611064  96.6987782 100.7530373
  51.8769253  96.0913451 100.0180783  51.1393770  97.1896800 100.7539870
  59.0348348 110.1374946  99.9663542  58.9618520 110.9429917 100.4782846
  58.5925741 110.3366912  99.1411563  58.8238128 109.3746716  93.4766363
  58.0405650 109.9168396  93.5704588  59.5230873 109.8920696  93.8760604
  62.1334778  95.1841345  96.1200568  62.6303477  94.4311308  95.8001639
  61.3621759  95.2205662  95.5543778  61.4947032 110.0361780 102.1221700
  62.2075004 110.6709245 102.0497602  61.0037060 110.1325646 101.3061702
  63.2164559 103.9413033  93.6938992  62.2820837 104.0614495  93.5243696
  63.3941227 103.0385499  93.4299002  58.7169747  97.3258728  95.8472253
  58.3467534  96.7729769  96.5353159  59.2128839  96.7216862  95.2947253
  56.5458945 107.7856223 102.9427271  57.2468405 108.4192706 103.0956665
  56.0754060 108.1270955 102.1822910  64.6713341 106.1274173  91.2275178
  64.9473185 106.0130768  92.1369052  63.8017840 105.7291658  91.1887351
  64.5753773  92.1510939  98.2679927  63.6616853  92.3815166  98.4362134
  65.0046874  92.2349383  99.1193960  64.3460231 100.3400831 100.7679821
  63.6931681 100.5876738 100.1132274  64.7240611  99.5264969 100.4342299
  61.3067405 110.3760524  94.8707992  61.4889800 109.5582180  95.3335744
  62.1300391 110.5928216  94.4332882  61.6409571 109.3028709  92.1323040
  62.1697337 108.7921164  91.5193202  61.9037790 108.9871239  92.9968573
  60.3947804 101.0820642 107.2545858  59.7188441 100.9814771 107.9248234
  61.2175438 100.9259856 107.7181856  52.1426663 107.3192579  99.8758374
  52.7280100 106.5736266 100.0086278  51.9451502 107.6296535 100.7595038
  54.9965319 110.3543826  94.8920816  54.3275694 110.8389954  94.4084856
  54.8578188 110.6013046  95.8064195  46.7344318  99.8898179  98.5962817
  46.7728418  99.3561769  99.3899935  46.2284611  99.3633384  97.9773794
  59.1370587 112.3887569 101.4903474  59.6888895 112.5519191 102.2552560
  59.4776781 112.9792007 100.8183499  54.1135080  94.7362719 102.0925359
  54.1776407  95.5977550 101.6802757  54.0502201  94.1236721 101.3597718
  53.5887353  96.8085852 105.7398393  54.2159392  96.4262929 106.3535918
  52.7315272  96.5900054 106.1054086  63.9881461 107.2148827 107.3452129
  64.5321365 107.8278785 106.8507084  63.4068306 107.7728405 107.8619142
  50.3652896  98.6162281  91.6716748  50.6606337  97.7072959  91.6183802
  49.4640931  98.5950020  91.3497751  62.2738974 110.3369545  98.4767157
  62.1490114 109.5359285  97.9678102  62.9318066 110.8315738  97.9881127
  53.8947143  96.6918277  97.6544297  53.1733728  97.3054245  97.5151770
  54.6840398  97.2276042  97.5760943  64.3373883 108.1378565 100.1046707
  63.3904218 108.0183916 100.0325033  64.6856656 107.2501063 100.1872968
  56.6973456  94.0272704 103.9284949  57.2207858  94.2735000 104.6911258
  56.4785789  94.8592739 103.5088086  52.0940737  96.2976379  91.7956073
  51.7653443  95.4173757  91.6131179  52.4480108  96.2424047  92.6832463
  61.3420316 107.9331281  96.3051059  61.1945279 107.0047989  96.4858629
  62.1673810 107.9551372  95.8208134  55.2082560  96.5849348  92.1631551
  55.5478633  97.1135270  91.4410159  55.6554681  96.9229754  92.9390118
  64.9454438 108.7559840  97.3915932  65.8700985 108.5502701  97.2540383
  64.7769741 108.5076241  98.3005273  57.9026001  94.9686399 101.6134619
  57.5622822  94.1694212 102.0155299  57.1965007  95.2688110 101.0411452
  58.5542473  92.0535711 100.0661942  59.3768542  91.5796190  99.9440832
  58.7980537  92.8326195 100.5660628  57.1950708  95.0823970  90.3624844
  57.9159070  95.4605223  89.8588561  56.5716012  95.8012847  90.4659822
  61.3381830  95.7869119  91.2983176  61.5545445  96.6693757  90.9972004
  60.8575898  95.3955332  90.5688818  56.0781052  98.7454832  97.8753921
  55.9325633  99.0595135  98.7678202  55.6006255  99.3639732  97.3224819
  57.9377435  95.7357380  97.9234810  57.9239003  94.8398473  97.5867108
  58.6549863  95.7428044  98.5573096  59.7903565  96.1694720  99.9687938
  59.5321343  97.0911791  99.9672268  59.2588606  95.7725155 100.6588402
  64.7349754 109.2745507  92.7478023  64.9086632 108.7091930  91.9951876
  65.2278645 110.0746402  92.5657513  50.5526714 101.2860177 100.8141582
  50.0080182 102.0619984 100.9461856  51.4306064 101.6330981 100.6560703
  57.3414331  94.6171760  93.1922380  57.4630242  93.6888407  93.3913268
  57.0516373  94.6310446  92.2800696  60.2105521  92.3026671  96.3289100
  60.2327218  92.3666004  95.3741080  60.6273580  91.4631179  96.5229606
  51.3392736 100.4130073 103.7071739  50.5974472 100.5612708 104.2936369
  51.0185480 100.6738338 102.8438488  59.2836398 109.9546051 103.5052129
  59.5923525 109.7095198 104.3774828  60.0811880 110.1592689 103.0170999
  59.3057011 112.1083961  95.7357505  58.8662001 111.6160339  96.4290362
  60.0565127 111.5656928  95.4949581  51.7849349 108.2995502  95.7382133
  52.6107369 107.9999273  95.3580777  51.4343401 107.5303124  96.1871922
  56.7530883 107.6521970  97.8079807  56.1310892 106.9892675  97.5082035
  57.4235750 107.6783102  97.1253455  49.9857955 106.2181828  96.6971067
  49.1489863 105.7904002  96.5155068  49.9581600 106.4114271  97.6341858
  56.8255410  96.1303758 107.4012313  56.8743566  97.0065881 107.0190083
  57.3677924  95.5881151 106.8283956  67.3110256 106.6744881 106.6813450
  66.5205800 106.6569020 106.1417950  67.0743610 107.2133175 107.4362487
  67.4308131 103.5237347 103.9946179  67.4806136 103.3587355 104.9361701
  67.3222054 102.6564606 103.6044059  56.3144390 106.2025893  91.2838268
  56.4632510 106.8861357  90.6304940  57.1210833 106.1830983  91.7987723
  64.7211893  99.5068275 105.3105485  65.6221756  99.3674740 105.0189483
  64.7959868  99.6722730 106.2503663  59.0554699  96.8835130 104.1558672
  58.1858008  97.1768696 103.8841260  59.2914179  97.4675575 104.8765935
  68.9326328 105.9434289 104.2388200  68.6411136 106.3064269 105.0751661
  68.3198459 105.2301297 104.0601532  67.1813516 101.0666904 102.7068258
  67.6567638 101.2594550 101.8987110  66.2579081 101.1226089 102.4611642
  54.0697023 102.2291071  92.2899336  53.8243064 101.3253401  92.4879547
  54.2392937 102.2308221  91.3478814  61.7593732  93.1014747 101.6724092
  62.2775676  93.8375774 101.3470581  61.4048865  93.4078740 102.5070851
  53.3392670  97.9619428  89.7885498  52.6461915  98.0363783  89.1325534
  53.0944422  97.1979772  90.3107015  62.0106327  89.5215030  97.1924989
  62.2908080  88.8538219  97.8185415  62.7956934  89.7144125  96.6799652
  59.8139795 108.6974024  88.7550015  59.2413762 109.3164211  88.3020487
  60.3872589 109.2473385  89.2889937  65.8815185  97.9432664 100.9396564
  66.8332608  98.0430761 100.9608788  65.7118635  97.1510932 101.4494648
  63.9029564  95.0288247 101.1255965  63.3079497  95.3093260 100.4302453
  63.6179261  95.5182148 101.8972706  60.1986594 100.0334836  86.0966067
  61.1445698  99.9041044  86.1654486  59.8200839  99.2949498  86.5735496
  66.1708478  91.6990842  96.0592959  65.9733299  91.3905930  96.9436291
  66.7808184  92.4252481  96.1890889  60.0825286 104.0852582 107.5566724
  61.0028296 104.2631181 107.7506771  60.0474869 103.1408628 107.4046424
  58.3829511  97.9584813  86.0320953  57.4760966  97.6617925  86.1083666
  58.6605492  97.6614631  85.1655239  49.3007451  99.2791176  96.4819999
  48.9810235  98.4256484  96.1894373  48.7540879  99.4939754  97.2377966
  53.0787359 101.9953617 100.1989506  53.2973368 102.9270725 100.2177539
  53.4913133 101.6361591 100.9844309  59.9991576  92.5021702  92.1865194
  59.1892305  92.1568787  92.5620440  60.6875993  92.1929246  92.7752806
  61.9282125  91.5799749  93.8089491  62.4813163  91.9995203  94.4679514
  62.1652211  90.6535497  93.8512447  57.9515224  97.5686823 109.5892255
  57.8511951  98.5181180 109.5204346  57.7336766  97.2405062 108.7168325
  57.1528295  94.8171748  86.1732932  58.0147459  95.1426646  86.4328749
  57.3378640  94.0303244  85.6605998  49.1695711 102.8994088  98.4513121
  48.4759183 102.4848040  97.9383075  49.9168702 102.9414624  97.8546540
  65.3060932  93.6900274  93.3168155  64.7259601  94.3485078  92.9346207
  65.0396865  92.8677619  92.9055572  63.7564498  93.0905332  95.5189475
  64.2564277  93.2021867  94.7103794  64.4000106  92.7866385  96.1590284
  57.8146494 100.9983962 108.4057316  57.3313576 101.7984322 108.6121205
  57.9007433 101.0091907 107.4524760  51.0832454 102.8312341  96.3279136
  51.0603142 102.9300029  95.3761019  51.3933090 103.6777492  96.6496302
  53.7419832 104.8888496 100.4425750  54.6963085 104.8572439 100.3755682
  53.5432355 104.4279120 101.2575976  54.3319214 103.4589612 103.0096548
  55.1512103 103.9533691 103.0331385  54.6056021 102.5421581 102.9814115
  64.0885810  95.8500365  92.3724503  63.2011665  96.1350015  92.1544698
  64.5039799  95.6894128  91.5251780  52.0970060 110.4308116  97.4595948
  51.9624528 109.6708517  96.8933946  51.6802123 111.1549016  96.9924737
  64.0626834 101.3654901  92.5874793  64.0062035 101.8223452  91.7482426
  64.6155176 100.6045585  92.4097636  55.2539186 111.3277433  97.6714390
  55.1371570 112.2722865  97.5693081  54.4331632 111.0250994  98.0600190
  49.5854128  97.7927746 103.7088745  50.2312992  97.2826700 104.1975970
  49.3771279  98.5296428 104.2832170  62.1107520 104.8608594 109.2080885
  62.9798680 105.0349246 108.8467520  61.6314272 105.6803011 109.0856615
  58.1057738  92.0567791  89.4612641  58.0936408  93.0009631  89.6180912
  58.9981160  91.8737936  89.1672102  56.2793700 111.9805695 100.8870319
  57.1820947 112.0129305 101.2036814  56.0531070 111.0506146 100.9016655
  58.0347302 110.7336681  97.5480398  57.0842933 110.7338543  97.4344770
  58.3379788 109.9869416  97.0316432  61.9209858  88.6510568  93.7158578
  61.1542254  88.0969054  93.8615260  62.3320563  88.7232436  94.5772729
  53.9251619  94.9395363 107.8063759  54.7883080  94.5832168 108.0167084
  53.3517030  94.6009258 108.4939163  70.5789702 116.5224648  98.5487685
  70.2408214 116.4065713  97.6608219  71.4479470 116.1215813  98.5288691
  66.4376518 118.3760124  94.5384576  65.8741383 118.2850061  93.7700863
  66.3228913 117.5560029  95.0187068  71.0609485 117.6759500 104.5073890
  71.0498126 117.2812298 103.6354394  71.2230125 116.9425572 105.1007662
  63.9840950 119.8711316  97.3768796  64.7762242 119.5302140  96.9615095
  64.2237600 119.9806291  98.2970949  65.9431704 119.1320229  90.2486175
  66.7162580 118.5849216  90.1099051  66.2957103 119.9964478  90.4600636
  67.7816746 120.4596611 103.4553074  67.4906612 121.3642242 103.3399740
  68.4173731 120.5013139 104.1697144  68.7072953 117.8373460 100.0454434
  69.3036525 117.6129482  99.3311397  68.7647925 117.0958205 100.6479882
  67.9994270 117.1941001  90.0829000  67.8830528 116.5185905  90.7510084
  68.1096530 116.7073375  89.2661153  72.7406631 120.1458027 100.4502868
  72.4407354 121.0483066 100.3418675  72.3957691 119.8790210 101.3024021
  66.1919113 116.5971824  96.4839572  65.2669609 116.4648038  96.6917264
  66.4403526 117.3766043  96.9809515  63.5527924 116.2405097  97.3183361
  63.6820305 116.4939576  98.2322773  62.8725375 116.8332805  96.9988016
  67.7227411 126.9102347  93.4173836  67.6451441 127.8610172  93.4962316
  67.1189055 126.5648220  94.0748762  70.2144641 114.0830213 106.0735202
  69.4377975 114.6424133 106.0638067  70.8535204 114.5686996 106.5950073
  68.4691013 116.8915666 105.6353169  69.2105698 117.4300710 105.3587993
  67.7627999 117.5181955 105.7924721  73.9446353 119.0344806 104.2325331
  74.3529709 118.5927217 103.4879963  73.2223614 118.4597434 104.4859524
  70.2977423 113.9717413 101.6058888  71.1438618 114.3956827 101.7493537
  70.2376061 113.3151038 102.2997451  69.8203129 119.3320405  95.2527705
  70.2841475 119.6108108  94.4632327  69.5559927 118.4303850  95.0700796
  66.7127210 118.8791887  98.1907468  67.2828567 119.3079155  97.5524953
  67.3035322 118.5974471  98.8891654  67.2052377 114.0455314 106.4368479
  66.5751038 114.7271595 106.6703876  67.0988465 113.9338396 105.4921618
  62.4997349 113.7127110  97.3634404  61.7096403 113.9684639  96.8874514
  62.9908597 114.5275448  97.4686444  64.4512095 114.0771689  94.3217880
  63.6543258 114.1890384  94.8401376  64.2237687 114.4158342  93.4558771
  70.2817762 120.6016393 102.2700395  70.3462195 121.0636800 103.1058567
  69.5728686 119.9713758 102.3982705  60.7835052 113.9657601  99.7949394
  61.0343091 114.8504611 100.0606970  61.3194601 113.7862202  99.0224486
  69.9965780 122.2684500  92.1379375  69.8611455 123.1136036  92.5664223
  70.5375593 122.4703778  91.3745309  66.4833120 108.3476080 108.7993730
  66.0900065 107.7942279 109.4741375  67.2999260 108.6586658 109.1900248
  63.4495177 119.7859938  92.7107300  63.9619698 120.5803188  92.8612865
  64.1017890 119.0886229  92.6440902  65.2590062 122.9025694  94.7930054
  65.4356690 123.8243659  94.6051037  66.0546896 122.5884114  95.2224433
  69.4001081 109.7633959 106.3913987  70.1410794 110.3641112 106.3118449
  69.6319003 109.0211597 105.8332030  64.5442419 114.9490326 104.6692217
  64.4295934 114.0475584 104.9699316  63.6886936 115.1954023 104.3177033
  71.6234256 122.8908067 106.2679717  71.1798111 122.1044445 105.9500622
  72.2851470 123.0787217 105.6023608  66.3821378 124.4203868 100.7940396
  66.9328803 124.2920932 100.0217390  65.5432854 124.7198757 100.4435289
  73.7215494 123.1710867 104.2961119  73.7033970 123.9919748 103.8041388
  74.6435415 123.0464942 104.5211260  70.1788549 120.6854996 105.1384627
  70.7116885 119.9243284 104.9083935  69.6502630 120.3928648 105.8808781
  61.4144094 118.1148593  93.4866871  62.2519316 118.5245601  93.2700579
  61.5922362 117.1748035  93.4567065  66.2759989 110.4760655  95.0110050
  66.8503741 110.2535836  94.2783243  66.8630971 110.5449349  95.7638652
  68.5782657 107.3501904  93.7385120  67.9247069 107.0350921  93.1141735
  68.5363131 106.7277644  94.4644943  72.5961940 126.3418706  88.5735098
  71.9223639 126.6450403  89.1820056  72.9827762 127.1447786  88.2240555
  61.4370265 115.4539308  94.1577604  61.2394665 114.8608669  93.4328671
  60.8816929 115.1491518  94.8753543  70.5658183 119.2742537  87.5150481
  70.1277613 118.5578396  87.0556118  71.3068624 119.5018652  86.9535572
  69.5067927 123.9597231  95.9696841  69.4644106 124.1858077  95.0405373
  70.4230626 123.7260606  96.1182642  66.8473424 111.5357830  99.6523811
  67.4872803 111.3946589  98.9546775  66.0150954 111.2492343  99.2762413
  67.6233728 120.8360260  95.7658804  68.4174326 120.3410580  95.5641379
  66.9125420 120.3078123  95.4026509  72.4428572 123.2178356 100.1171171
  72.4965594 123.7869292 100.8848887  71.5743353 123.3880241  99.7525208
  63.9316491 114.9803342  91.8418556  63.0014079 114.9187797  92.0588519
  64.0273963 114.4579294  91.0455198  63.8502040 111.5058155  94.4296798
  64.1108857 112.4203488  94.3205959  64.6719212 111.0382597  94.5793411
  65.3226965 112.9195912 101.5995623  65.9950019 112.7113274 100.9508272
  64.4956752 112.7217998 101.1600855  71.2252537 109.5457853 103.6161283
  70.5780452 110.2447802 103.5225760  71.9953553 109.9793997 103.9837532
  74.6331335 119.8106705 106.6911837  74.4816842 119.5817257 105.7741920
  74.6236015 120.7677306 106.7043182  71.4016672 117.3838618 101.6758103
  72.3308732 117.5349777 101.5027071  70.9807702 117.4722638 100.8206750
  70.2005004 121.4089282  99.4456641  70.0616089 121.0408066 100.3182579
  69.4119600 121.9236921  99.2740599  70.7953156 126.5098378  90.7882177
  70.9704911 126.0386422  91.6027800  70.1085944 127.1364145  91.0163438
  65.7254463 116.1938515 102.3598060  65.5874261 115.4618754 102.9609599
  66.6359386 116.1047415 102.0782248  68.3536763 115.9058474 101.8481739
  69.0636382 115.2651666 101.8068358  68.3106072 116.1571369 102.7707920
  67.0665697 112.8923692 103.6677379  66.5303054 112.4414430 104.3198975
  66.4782406 113.0269601 102.9247843  65.3614241 129.6587741  97.5622038
  65.6010839 130.2906265  98.2401056  64.5183437 129.3075781  97.8487397
  57.9970096 117.1389503  96.3245350  58.6841136 116.8251233  95.7366365
  57.8418225 118.0430868  96.0512601  62.8004819 112.0279700 100.7530373
  62.7163007 111.4205369 100.0180783  61.9787525 112.5188718 100.7539870
  69.8742103 125.4666864  99.9663542  69.8012274 126.2721835 100.4782846
  69.4319496 125.6658829  99.1411563  69.6631882 124.7038634  93.4766363
  68.8799404 125.2460314  93.5704588  70.3624628 125.2212613  93.8760604
  72.3340786 125.3653698 102.1221700  73.0468758 126.0001163 102.0497602
  71.8430815 125.4617564 101.3061702  67.3852700 123.1148141 102.9427271
  68.0862159 123.7484624 103.0956665  66.9147815 123.4562873 102.1822910
  72.1461160 125.7052442  94.8707992  72.3283554 124.8874098  95.3335744
  72.9694146 125.9220134  94.4332882  71.2341559 116.4112560 107.2545858
  70.5582196 116.3106689 107.9248234  72.0569193 116.2551773 107.7181856
  62.9820418 122.6484496  99.8758374  63.5673855 121.9028184 100.0086278
  62.7845256 122.9588453 100.7595038  65.8359073 125.6835744  94.8920816
  65.1669448 126.1681871  94.4084856  65.6971943 125.9304964  95.8064195
  57.5738073 115.2190096  98.5962817  57.6122172 114.6853687  99.3899935
  57.0678365 114.6925302  97.9773794  69.9764342 127.7179487 101.4903474
  70.5282650 127.8811109 102.2552560  70.3170535 128.3083925 100.8183499
  64.9528835 110.0654637 102.0925359  65.0170161 110.9269468 101.6802757
  64.8895955 109.4528639 101.3597718  64.4281107 112.1377769 105.7398393
  65.0553146 111.7554847 106.3535918  63.5709026 111.9191971 106.1054086
  74.8275216 122.5440745 107.3452129  75.3715120 123.1570703 106.8507084
  74.2462061 123.1020323 107.8619142  61.2046650 113.9454199  91.6716748
  61.5000091 113.0364877  91.6183802  60.3034686 113.9241938  91.3497751
  64.7340897 112.0210195  97.6544297  64.0127483 112.6346163  97.5151770
  65.5234153 112.5567960  97.5760943  67.5367211 109.3564622 103.9284949
  68.0601612 109.6026918 104.6911258  67.3179544 110.1884656 103.5088086
  62.9334492 111.6268296  91.7956073  62.6047198 110.7465675  91.6131179
  63.2873862 111.5715965  92.6832463  68.7419756 110.2978317 101.6134619
  68.4016576 109.4986130 102.0155299  68.0358762 110.5980028 101.0411452
  66.9174806 114.0746750  97.8753921  66.7719387 114.3887053  98.7678202
  66.4400010 114.6931650  97.3224819  61.3920468 116.6152094 100.8141582
  60.8473937 117.3911902 100.9461856  62.2699818 116.9622899 100.6560703
  68.1808085 109.9463678  93.1922380  68.3023996 109.0180324  93.3913268
  67.8910127 109.9602364  92.2800696  62.1786490 115.7421990 103.7071739
  61.4368226 115.8904626 104.2936369  61.8579235 116.0030256 102.8438488
  70.1230153 125.2837969 103.5052129  70.4317279 125.0387115 104.3774828
  70.9205635 125.4884607 103.0170999  70.1450765 127.4375878  95.7357505
  69.7055755 126.9452257  96.4290362  70.8958882 126.8948846  95.4949581
  62.6243104 123.6287419  95.7382133  63.4501124 123.3291191  95.3580777
  62.2737156 122.8595042  96.1871922  67.5924637 122.9813887  97.8079807
  66.9704646 122.3184592  97.5082035  68.2629504 123.0075019  97.1253455
  60.8251709 121.5473746  96.6971067  59.9883617 121.1195920  96.5155068
  60.7975354 121.7406189  97.6341858  67.6649165 111.4595675 107.4012313
  67.7137320 112.3357798 107.0190083  68.2071679 110.9173068 106.8283956
  67.1538144 121.5317811  91.2838268  67.3026264 122.2153275  90.6304940
  67.9604588 121.5122901  91.7987723  69.8948453 112.2127048 104.1558672
  69.0251762 112.5060614 103.8841260  70.1307933 112.7967493 104.8765935
  64.9090777 117.5582988  92.2899336  64.6636819 116.6545318  92.4879547
  65.0786692 117.5600139  91.3478814  64.1786425 113.2911346  89.7885498
  63.4855670 113.3655701  89.1325534  63.9338176 112.5271690  90.3107015
  70.6533550 124.0265941  88.7550015  70.0807517 124.6456128  88.3020487
  71.2266343 124.5765303  89.2889937  70.9219041 119.4144500 107.5566724
  71.8422050 119.5923099 107.7506771  70.8868624 118.4700545 107.4046424
  60.1401206 114.6083094  96.4819999  59.8203990 113.7548402  96.1894373
  59.5934634 114.8231672  97.2377966  63.9181113 117.3245535 100.1989506
  64.1367123 118.2562643 100.2177539  64.3306887 116.9653509 100.9844309
  68.7908978 112.8978741 109.5892255  68.6905705 113.8473097 109.5204346
  68.5730521 112.5696979 108.7168325  60.0089466 118.2286005  98.4513121
  59.3152937 117.8139958  97.9383075  60.7562457 118.2706542  97.8546540
  68.6540249 116.3275879 108.4057316  68.1707330 117.1276239 108.6121205
  68.7401188 116.3383824 107.4524760  61.9226208 118.1604259  96.3279136
  61.8996896 118.2591946  95.3761019  62.2326845 119.0069410  96.6496302
  64.5813586 120.2180414 100.4425750  65.5356840 120.1864356 100.3755682
  64.3826110 119.7571038 101.2575976  65.1712968 118.7881530 103.0096548
  65.9905857 119.2825609 103.0331385  65.4449776 117.8713498 102.9814115
  62.9363815 125.7600034  97.4595948  62.8018283 125.0000434  96.8933946
  62.5195877 126.4840933  96.9924737  66.0932941 126.6569351  97.6714390
  65.9765325 127.6014783  97.5693081  65.2725387 126.3542912  98.0600190
  60.4247882 113.1219664 103.7088745  61.0706746 112.6118618 104.1975970
  60.2165034 113.8588346 104.2832170  72.9501275 120.1900511 109.2080885
  73.8192434 120.3641164 108.8467520  72.4708026 121.0094928 109.0856615
  67.1187455 127.3097612 100.8870319  68.0214702 127.3421223 101.2036814
  66.8924825 126.3798063 100.9016655  68.8741057 126.0628599  97.5480398
  67.9236688 126.0630461  97.4344770  69.1773543 125.3161334  97.0316432
  64.7645373 110.2687281 107.8063759  65.6276835 109.9124086 108.0167084
  64.1910784 109.9301176 108.4939163  84.6093750 131.8989137  98.6126160
  85.2472160 131.7795885  97.9089500  84.4914593 132.8469981  98.6714112
  81.4183457 131.8516565  98.5487685  81.0801968 131.7357630  97.6608219
  82.2873225 131.4507731  98.5288691  77.2770272 133.7052042  94.5384576
  76.7135137 133.6141979  93.7700863  77.1622667 132.8851946  95.0187068
  81.9003240 133.0051417 104.5073890  81.8891880 132.6104215 103.6354394
  82.0623879 132.2717490 105.1007662  74.8234704 135.2003234  97.3768796
  75.6155996 134.8594058  96.9615095  75.0631354 135.3098209  98.2970949
  82.8569831 137.3723010  89.8499040  82.2057811 137.9577090  89.4633054
  83.6514194 137.9029205  89.9094078  76.7825458 134.4612147  90.2486175
  77.5556334 133.9141134  90.1099051  77.1350857 135.3256396  90.4600636
  78.6210501 135.7888529 103.4553074  78.3300367 136.6934160 103.3399740
  79.2567485 135.8305057 104.1697144  79.5466708 133.1665378 100.0454434
  80.1430280 132.9421400  99.3311397  79.6041679 132.4250123 100.6479882
  79.1191736 130.6204813  87.8804625  79.3717257 130.0986334  87.1188088
  78.1816295 130.4570958  87.9831308  84.1635019 129.6240591  95.6879368
  84.9498108 129.2060014  95.3369785  84.4273723 130.5286683  95.8561016
  84.3345096 135.0613442  90.3868025  83.6990929 135.1348068  91.0988929
  84.0042503 135.6507040  89.7087104  89.5643446 129.5615824  96.5912346
  90.2968618 128.9915041  96.8250176  88.8082802 129.1737425  97.0318852
  78.8388025 132.5232919  90.0829000  78.7224283 131.8477822  90.7510084
  78.9490285 132.0365293  89.2661153  81.1819566 131.9843066  93.7875689
  80.8177773 131.4573687  94.4988610  82.0386682 131.5941535  93.6142174
  80.8225053 127.0132966  88.7837037  80.9899455 127.8813202  89.1507509
  80.6322222 127.1760247  87.8598327  83.5800386 135.4749945 100.4502868
  83.2801109 136.3774983 100.3418675  83.2351445 135.2082128 101.3024021
  77.0312867 131.9263741  96.4839572  76.1063364 131.7939955  96.6917264
  77.2797281 132.7057961  96.9809515  80.8014274 129.4690623  89.7683704
  80.6813899 129.9147674  90.6069185  80.1066862 129.8175941  89.2097242
  74.3921678 131.5697015  97.3183361  74.5214060 131.8231494  98.2322773
  73.7119130 132.1624723  96.9988016  78.5621166 142.2394265  93.4173836
  78.4845195 143.1902090  93.4962316  77.9582809 141.8940137  94.0748762
  86.4999340 129.9412096  90.5964038  87.4117196 130.1739483  90.4211736
  85.9908987 130.5249141  90.0339117  79.3084768 132.2207584 105.6353169
  80.0499452 132.7592628 105.3587993  78.6021753 132.8473872 105.7924721
  85.1068922 134.9237915  97.9877620  84.4777784 135.0883629  97.2853688
  84.7194584 135.3379524  98.7588584  88.9858154 135.8592353  95.3421984
  88.3009192 136.2391254  94.7919017  89.0702003 136.4687679  96.0753931
  86.2409085 133.5052312 101.9417327  86.4525981 134.1484072 101.2651708
  86.1938834 132.6714628 101.4739257  80.6596884 134.6612323  95.2527705
  81.1235229 134.9400026  94.4632327  80.3953682 133.7595767  95.0700796
  77.5520965 134.2083804  98.1907468  78.1222322 134.6371073  97.5524953
  78.1429077 133.9266389  98.8891654  79.5965770 130.7835475  92.0617270
  80.2989813 131.2356519  92.5291196  79.2646398 130.1419294  92.6897163
  78.0446131 129.3747232 106.4368479  77.4144792 130.0563513 106.6703876
  77.9382219 129.2630313 105.4921618  87.3554913 136.3824267 100.1139684
  88.1772357 135.9804454  99.8322366  87.3517316 136.2792501 101.0655800
  81.1211517 135.9308310 102.2700395  81.1855949 136.3928718 103.1058567
  80.4122441 135.3005675 102.3982705  71.6228807 129.2949518  99.7949394
  71.8736845 130.1796528 100.0606970  72.1588355 129.1154120  99.0224486
  95.4460906 132.7263016  96.4624656  94.6924615 132.1570414  96.3068660
  95.5808448 132.6925680  97.4095291  80.8359535 137.5976418  92.1379375
  80.7005209 138.4427954  92.5664223  81.3769347 137.7995695  91.3745309
  77.3226874 123.6767998 108.7993730  76.9293820 123.1234196 109.4741375
  78.1393014 123.9878576 109.1900248  74.2888932 135.1151856  92.7107300
  74.8013452 135.9095106  92.8612865  74.9411645 134.4178146  92.6440902
  76.0983817 138.2317612  94.7930054  76.2750445 139.1535577  94.6051037
  76.8940650 137.9176031  95.2224433  75.3836173 130.2782244 104.6692217
  75.2689688 129.3767501 104.9699316  74.5280691 130.5245941 104.3177033
  82.4628011 138.2199984 106.2679717  82.0191865 137.4336363 105.9500622
  83.1245224 138.4079135 105.6023608  77.2215132 139.7495786 100.7940396
  77.7722557 139.6212849 100.0217390  76.3826608 140.0490675 100.4435289
  84.5609249 138.5002784 104.2961119  84.5427724 139.3211665 103.8041388
  85.4829169 138.3756859 104.5211260  81.0182303 136.0146914 105.1384627
  81.5510640 135.2535202 104.9083935  80.4896384 135.7220566 105.8808781
  72.2537849 133.4440510  93.4866871  73.0913071 133.8537519  93.2700579
  72.4316116 132.5039952  93.4567065  84.1502281 131.1115591  89.1750704
  83.6348904 131.8820195  89.4139091  83.8779589 130.4380727  89.7983765
  89.1236555 133.8647945  91.1103877  88.3465998 133.5259105  90.6659039
  89.8028036 133.8700569  90.4358842  83.9388584 128.9842683  91.0010485
  83.6338720 129.2988832  91.8520628  84.8919026 129.0624103  91.0437818
  82.3835016 135.1432906  92.6503439  81.8556377 134.4085666  92.3376676
  81.8822519 135.9207583  92.4043407  87.3627862 133.3381927  97.7670485
  86.7051536 134.0281188  97.8550614  88.1668261 133.7278359  98.1104472
  86.1733321 131.6926299  95.8174427  86.6865202 132.3256291  96.3196137
  86.8234545 131.0927495  95.4517787  80.5287616 132.9613117  85.6538412
  79.6214678 132.7302370  85.8529561  81.0258648 132.1650736  85.8412394
  83.4355695 141.6710624  88.5735098  82.7617394 141.9742320  89.1820056
  83.8221517 142.4739704  88.2240555  82.6514152 129.1675755  98.0632768
  81.7336713 129.3890702  97.9054456  83.0674295 129.2422065  97.2044475
  83.4349199 130.5667171  93.1935448  84.1821018 131.0788568  92.8842570
  83.7040789 130.2451223  94.0539841  81.7075849 133.0625711  90.1762402
  80.7987069 132.7784744  90.2734872  81.7370933 133.4824790  89.3165709
  86.9395117 136.6732301  93.9453570  86.4857444 135.8323211  94.0018760
  86.3089084 137.3093699  94.2828350  85.3828056 138.5108798  94.8803388
  85.6751030 139.0713855  94.1615753  85.8926677 138.8037359  95.6356547
  72.2764020 130.7831225  94.1577604  72.0788420 130.1900586  93.4328671
  71.7210684 130.4783436  94.8753543  80.2560743 130.6754332  96.2772197
  80.3109353 129.7228168  96.2014674  79.4451946 130.8313771  96.7613496
  81.4051937 134.6034455  87.5150481  80.9671367 133.8870314  87.0556118
  82.1462378 134.8310570  86.9535572  80.3461681 139.2889149  95.9696841
  80.3037860 139.5149995  95.0405373  81.2624380 139.0552523  96.1182642
  89.5225052 132.8791652  93.5726799  89.3842951 133.0693248  92.6447988
  89.1661271 133.6411035  94.0294850  89.5494432 134.9468179  98.5838071
  89.9830938 134.8543468  99.4321125  90.2626012 134.9225680  97.9458087
  78.4627482 136.1652178  95.7658804  79.2568081 135.6702498  95.5641379
  77.7519174 135.6370041  95.4026509  83.2822327 138.5470273 100.1171171
  83.3359349 139.1161210 100.8848887  82.4137108 138.7172158  99.7525208
  74.7710246 130.3095259  91.8418556  73.8407834 130.2479715  92.0588519
  74.8667718 129.7871212  91.0455198  90.4109981 134.9891880 101.1170956
  90.6045871 135.8937690 101.3630231  90.3110599 134.5299299 101.9509541
  85.4725090 135.1398622 106.6911837  85.3210596 134.9109174 105.7741920
  85.4629769 136.0969224 106.7043182  82.2410426 132.7130535 101.6758103
  83.1702486 132.8641695 101.5027071  81.8201456 132.8014556 100.8206750
  81.0398758 136.7381200  99.4456641  80.9009844 136.3699984 100.3182579
  80.2513354 137.2528839  99.2740599  81.6346910 141.8390296  90.7882177
  81.8098666 141.3678339  91.6027800  80.9479698 142.4656062  91.0163438
  82.5903973 136.1162802  96.8345479  82.2553806 136.0763572  97.7303129
  82.0907919 135.4507518  96.3615889  76.5648217 131.5230432 102.3598060
  76.4268015 130.7910671 102.9609599  77.4753141 131.4339332 102.0782248
  85.5263165 133.4618837  87.1082538  84.9092336 132.7365665  87.0115591
  85.0579653 134.2228197  86.7649613  87.1817297 138.1717745 104.7688319
  87.1229843 137.4876965 104.1018902  87.5836815 138.9136735 104.3168945
  76.2007995 144.9879659  97.5622038  76.4404594 145.6198183  98.2401056
  75.3577192 144.6367699  97.8487397  77.3161711 127.6804261  86.2303843
  76.4391177 127.5593062  85.8666089  77.7919464 126.8890339  85.9782731
  87.1834704 136.1357329 103.0002298  86.2961483 135.7983251 103.1228697
  87.7533255 135.4040360 103.2371064  68.8363851 132.4681421  96.3245350
  69.5234891 132.1543151  95.7366365  68.6811980 133.3722785  96.0512601
  80.7135857 140.7958781  99.9663542  80.6406029 141.6013753 100.4782846
  80.2713250 140.9950747  99.1411563  80.5025637 140.0330551  93.4766363
  79.7193159 140.5752232  93.5704588  81.2018382 140.5504531  93.8760604
  91.6652044 131.5465546  97.7618860  91.6541921 132.4290262  97.3912793
  90.7969424 131.1937097  97.5673397  83.1734541 140.6945615 102.1221700
  83.8862513 141.3293080 102.0497602  82.6824569 140.7909481 101.3061702
  84.8952068 134.5996868  93.6938992  83.9608346 134.7198330  93.5243696
  85.0728736 133.6969335  93.4299002  88.2824619 130.4414187  94.2289026
  88.7485071 131.2742179  94.1549329  88.7332119 129.9759169  94.9334284
  78.2246454 138.4440059 102.9427271  78.9255914 139.0776542 103.0956665
  77.7541569 138.7854790 102.1822910  86.3500850 136.7858009  91.2275178
  86.6260694 136.6714603  92.1369052  85.4805349 136.3875493  91.1887351
  82.9854914 141.0344359  94.8707992  83.1677309 140.2166015  95.3335744
  83.8087900 141.2512052  94.4332882  83.3197080 139.9612545  92.1323040
  83.8484846 139.4504999  91.5193202  83.5825299 139.6455075  92.9968573
  73.8214172 137.9776414  99.8758374  74.4067609 137.2320102 100.0086278
  73.6239011 138.2880371 100.7595038  76.6752828 141.0127661  94.8920816
  76.0063203 141.4973789  94.4084856  76.5365697 141.2596882  95.8064195
  68.4131827 130.5482014  98.5962817  68.4515927 130.0145605  99.3899935
  67.9072120 130.0217220  97.9773794  80.8158096 143.0471405 101.4903474
  81.3676404 143.2103026 102.2552560  81.1564290 143.6375843 100.8183499
  75.2674862 127.4669687 105.7398393  75.8946901 127.0846764 106.3535918
  74.4102781 127.2483889 106.1054086  85.6668970 137.8732662 107.3452129
  86.2108874 138.4862621 106.8507084  85.0855815 138.4312241 107.8619142
  72.0440405 129.2746116  91.6716748  72.3393846 128.3656795  91.6183802
  71.1428440 129.2533856  91.3497751  83.9526483 140.9953380  98.4767157
  83.8277623 140.1943120  97.9678102  84.6105575 141.4899574  97.9881127
  86.0161392 138.7962400 100.1046707  85.0691727 138.6767752 100.0325033
  86.3644165 137.9084898 100.1872968  73.7728246 126.9560214  91.7956073
  73.4440952 126.0757593  91.6131179  74.1267617 126.9007883  92.6832463
  83.0207825 138.5915117  96.3051059  82.8732788 137.6631824  96.4858629
  83.8461319 138.6135207  95.8208134  86.6241947 139.4143675  97.3915932
  87.5488494 139.2086537  97.2540383  86.4557250 139.1660077  98.3005273
  86.4137263 139.9329343  92.7478023  86.5874141 139.3675765  91.9951876
  86.9066154 140.7330238  92.5657513  72.2314223 131.9444012 100.8141582
  71.6867691 132.7203820 100.9461856  73.1093573 132.2914816 100.6560703
  92.2676654 132.6965766  94.3668323  92.7107800 131.9473091  93.9687446
  91.3903165 132.6875902  93.9842055  87.4012436 139.2496107  89.8474921
  88.0963340 139.8702800  90.0662236  87.7435586 138.3991458  90.1227299
  73.0180245 131.0713908 103.7071739  72.2761981 131.2196543 104.2936369
  72.6972989 131.3322174 102.8438488  89.3003859 136.6995813  91.3762252
  89.8255183 137.0383085  90.6511572  89.2126211 135.7642828  91.1925387
  80.9623907 140.6129886 103.5052129  81.2711034 140.3679033 104.3774828
  81.7599389 140.8176525 103.0170999  80.9844519 142.7667796  95.7357505
  80.5449510 142.2744175  96.4290362  81.7352636 142.2240764  95.4949581
  73.4636858 138.9579337  95.7382133  74.2894878 138.6583109  95.3580777
  73.1130910 138.1886959  96.1871922  78.4318392 138.3105805  97.8079807
  77.8098401 137.6476510  97.5082035  79.1023259 138.3366937  97.1253455
  71.6645464 136.8765663  96.6971067  70.8277372 136.4487838  96.5155068
  71.6369109 137.0698107  97.6341858  88.9897765 137.3328716 106.6813450
  88.1993309 137.3152855 106.1417950  88.7531119 137.8717010 107.4362487
  89.1095640 134.1821183 103.9946179  89.1593645 134.0171190 104.9361701
  89.0009563 133.3148442 103.6044059  77.9931899 136.8609728  91.2838268
  78.1420019 137.5445193  90.6304940  78.7998342 136.8414818  91.7987723
  90.6113837 136.6018124 104.2388200  90.3198645 136.9648105 105.0751661
  89.9985968 135.8885133 104.0601532  91.8109519 134.1671004  96.7590770
  92.6456410 134.6060808  96.9228331  91.9468648 133.6909657  95.9399016
  88.8601025 131.7250739 102.7068258  89.3355147 131.9178385 101.8987110
  87.9366590 131.7809925 102.4611642  75.7484532 132.8874906  92.2899336
  75.5030573 131.9837236  92.4879547  75.9180446 132.8892057  91.3478814
  75.0180179 128.6203264  89.7885498  74.3249424 128.6947619  89.1325534
  74.7731931 127.8563607  90.3107015  81.4927304 139.3557859  88.7550015
  80.9201271 139.9748046  88.3020487  82.0660098 139.9057221  89.2889937
  84.7124564 139.6395009  89.8858597  85.6455237 139.5740571  90.0891473
  84.6247777 140.4751276  89.4273130  87.3412581 138.9560879  86.8462545
  87.2626212 138.6220743  87.7398303  88.1622247 139.4482647  86.8454017
  90.0390772 131.8222619 100.0538863  90.0067092 130.8838619 100.2398547
  90.6491395 131.9006655  99.3204688  81.8774103 130.6918672  86.0966067
  82.8233207 130.5624880  86.1654486  81.4988348 129.9533334  86.5735496
  95.8567322 132.8838625  99.1944900  96.5870710 132.6223914  99.7552604
  95.2474267 132.1467347  99.2346968  93.9382619 131.0246488  99.7919351
  93.2115782 130.8902453  99.1835843  93.5229906 131.3323317 100.5976069
  81.7612795 134.7436418 107.5566724  82.6815805 134.9215017 107.7506771
  81.7262378 133.7992463 107.4046424  80.0617020 128.6168648  86.0320953
  79.1548475 128.3201761  86.1083666  80.3393001 128.3198466  85.1655239
  70.9794960 129.9375011  96.4819999  70.6597744 129.0840320  96.1894373
  70.4328388 130.1523590  97.2377966  74.7574868 132.6537452 100.1989506
  74.9760877 133.5854560 100.2177539  75.1700641 132.2945427 100.9844309
  78.8315804 125.4755583  86.1732932  79.6934968 125.8010482  86.4328749
  79.0166149 124.6887079  85.6605998  70.8483220 133.5577923  98.4513121
  70.1546692 133.1431876  97.9383075  71.5956211 133.5998459  97.8546540
  86.9848441 124.3484110  93.3168155  86.4047110 125.0068914  92.9346207
  86.7184374 123.5261454  92.9055572  72.7619963 133.4896177  96.3279136
  72.7390651 133.5883864  95.3761019  73.0720599 134.3361327  96.6496302
  75.4207341 135.5472332 100.4425750  76.3750594 135.5156274 100.3755682
  75.2219864 135.0862955 101.2575976  76.0106723 134.1173448 103.0096548
  76.8299612 134.6117526 103.0331385  76.2843530 133.2005416 102.9814115
  85.7673319 126.5084200  92.3724503  84.8799174 126.7933851  92.1544698
  86.1827308 126.3477963  91.5251780  91.5560414 127.2458340  97.1452783
  92.1504904 127.0054076  96.4346091  91.6286997 126.5265471  97.7726319
  73.7757569 141.0891951  97.4595948  73.6412037 140.3292352  96.8933946
  73.3589632 141.8132851  96.9924737  84.9116532 136.2728875  86.4672523
  85.6152382 136.4778877  87.0830179  84.1879181 136.8405637  86.7321607
  85.7414343 132.0238736  92.5874793  85.6849544 132.4807287  91.7482426
  86.2942685 131.2629421  92.4097636  89.5519149 127.8128468  93.4124913
  89.2956083 127.4125104  94.2433121  88.9272017 128.5272262  93.2875052
  93.8631486 130.5524541  95.9196204  93.3031044 130.6217730  96.6927766
  93.2574990 130.3765526  95.1995700  76.9326695 141.9861268  97.6714390
  76.8159079 142.9306701  97.5693081  76.1119141 141.6834830  98.0600190
  86.8203230 136.7111404  88.5170983  87.6548834 136.2792602  88.3348458
  86.6587573 136.5393418  89.4447878  86.4749122 133.2143517  89.8827323
  86.4197926 133.0487789  88.9415767  85.8495177 133.9219550  90.0389512
  71.2641637 128.4511582 103.7088745  71.9100500 127.9410536 104.1975970
  71.0558788 129.1880263 104.2832170  83.7895029 135.5192429 109.2080885
  84.6586189 135.6933081 108.8467520  83.3101781 136.3386846 109.0856615
  77.9581209 142.6389530 100.8870319  78.8608456 142.6713140 101.2036814
  77.7318579 141.7089981 100.9016655  79.7134811 141.3920517  97.5480398
  78.7630442 141.3922378  97.4344770  80.0167297 140.6453251  97.0316432
  75.6039128 125.5979199 107.8063759  76.4670589 125.2416004 108.0167084
  75.0304539 125.2593094 108.4939163  95.4487505 147.2281055  98.6126160
  96.0865915 147.1087802  97.9089500  95.3308348 148.1761899  98.6714112
  92.2577211 147.1808483  98.5487685  91.9195723 147.0649548  97.6608219
  93.1266979 146.7799648  98.5288691  88.1164027 149.0343960  94.5384576
  87.5528892 148.9433897  93.7700863  88.0016422 148.2143864  95.0187068
  85.6628459 150.5295151  97.3768796  86.4549751 150.1885976  96.9615095
  85.9025109 150.6390126  98.2970949  87.6219213 149.7904064  90.2486175
  88.3950089 149.2433052  90.1099051  87.9744612 150.6548314  90.4600636
  90.3860462 148.4957295 100.0454434  90.9824034 148.2713318  99.3311397
  90.4435434 147.7542041 100.6479882  89.9585490 145.9496731  87.8804625
  90.2111011 145.4278252  87.1188088  89.0210050 145.7862876  87.9831308
  95.0028773 144.9532509  95.6879368  95.7891863 144.5351932  95.3369785
  95.2667478 145.8578601  95.8561016  95.1738851 150.3905359  90.3868025
  94.5384684 150.4639986  91.0988929  94.8436257 150.9798958  89.7087104
 100.4037200 144.8907742  96.5912346 101.1362372 144.3206959  96.8250176
  99.6476556 144.5029343  97.0318852  89.6781779 147.8524837  90.0829000
  89.5618037 147.1769740  90.7510084  89.7884039 147.3657210  89.2661153
  92.0213320 147.3134984  93.7875689  91.6571527 146.7865605  94.4988610
  92.8780436 146.9233453  93.6142174  97.9262621 138.6029316 101.0506955
  97.5945946 139.4724727 100.8268170  97.3308234 138.2865600 101.7300985
  91.6618807 142.3424883  88.7837037  91.8293209 143.2105120  89.1507509
  91.4715976 142.5052165  87.8598327  94.4194140 150.8041862 100.4502868
  94.1194863 151.7066901 100.3418675  94.0745200 150.5374045 101.3024021
  87.8706622 147.2555659  96.4839572  86.9457118 147.1231873  96.6917264
  88.1191035 148.0349878  96.9809515  97.8191284 143.3224402  98.1300305
  96.9108161 143.2539811  97.8359066  97.7678880 143.7996347  98.9582131
  91.6408028 144.7982541  89.7683704  91.5207653 145.2439592  90.6069185
  90.9460616 145.1467858  89.2097242  85.2315433 146.8988933  97.3183361
  85.3607814 147.1523412  98.2322773  84.5512884 147.4916641  96.9988016
  99.6852931 141.5240841  99.9078179  99.0427311 141.8173374  99.2617974
  99.1807859 141.4093761 100.7131376  97.3393094 145.2704014  90.5964038
  98.2510950 145.5031401  90.4211736  96.8302741 145.8541058  90.0339117
  91.9764932 144.6301249 101.6058888  92.8226127 145.0540662 101.7493537
  91.9163570 143.9734873 102.2997451  95.9462676 150.2529832  97.9877620
  95.3171539 150.4175547  97.2853688  95.5588339 150.6671442  98.7588584
  95.1264377 142.2905617 103.2640061  94.8825309 143.0447677 102.7274337
  95.4024308 142.6690965 104.0987309  94.6829069 141.4462050  98.8453899
  93.8213548 141.7443304  99.1370637  94.7091504 141.6632449  97.9134932
  91.4990638 149.9904241  95.2527705  91.9628984 150.2691944  94.4632327
  91.2347436 149.0887685  95.0700796  88.3914719 149.5375722  98.1907468
  88.9616076 149.9662990  97.5524953  88.9822831 149.2558307  98.8891654
  90.4359524 146.1127393  92.0617270  91.1383568 146.5648437  92.5291196
  90.1040153 145.4711212  92.6897163  88.8839886 144.7039150 106.4368479
  88.2538547 145.3855430 106.6703876  88.7775974 144.5922231 105.4921618
  84.1784858 144.3710946  97.3634404  83.3883912 144.6268474  96.8874514
  84.6696106 145.1859283  97.4686444  86.1299604 144.7355525  94.3217880
  85.3330767 144.8474219  94.8401376  85.9025196 145.0742177  93.4558771
  82.4622561 144.6241436  99.7949394  82.7130600 145.5088446 100.0606970
  82.9982110 144.4446038  99.0224486  88.1620629 139.0059915 108.7993730
  87.7687574 138.4526114 109.4741375  88.9786769 139.3170494 109.1900248
  91.0788590 140.4217794 106.3913987  91.8198303 141.0224948 106.3118449
  91.3106512 139.6795432 105.8332030  86.2229928 145.6074162 104.6692217
  86.1083443 144.7059419 104.9699316  85.3674445 145.8537858 104.3177033
  95.0245753 136.4498897 100.6678269  94.6810022 137.3400539 100.5917379
  95.3924715 136.2600555  99.8047854  83.0931603 148.7732428  93.4866871
  83.9306825 149.1829436  93.2700579  83.2709871 147.8331870  93.4567065
  94.9896035 146.4407509  89.1750704  94.4742659 147.2112113  89.4139091
  94.7173344 145.7672645  89.7983765  92.5743146 141.2857209  94.2335942
  91.7184743 140.8964060  94.0541581  92.9870098 141.3649170  93.3735728
  94.1042293 138.8203553  98.6327502  93.6007089 138.7833688  97.8195307
  94.3972900 139.7296295  98.6924159  90.3485179 138.9042282  97.6393684
  91.2138176 138.7085091  97.2799573  90.4162688 138.6752634  98.5663040
  94.7782338 144.3134601  91.0010485  94.4732474 144.6280750  91.8520628
  95.7312781 144.3916020  91.0437818  93.2228770 150.4724824  92.6503439
  92.6950132 149.7377583  92.3376676  92.7216273 151.2499500  92.4043407
  98.2021616 148.6673844  97.7670485  97.5445291 149.3573106  97.8550614
  99.0062016 149.0570276  98.1104472  87.9547498 141.1344490  95.0110050
  88.5291250 140.9119672  94.2783243  88.5418480 141.2033185  95.7638652
  97.0127075 147.0218217  95.8174427  97.5258957 147.6548209  96.3196137
  97.6628299 146.4219413  95.4517787  88.2817085 143.1648951  89.0305936
  87.4454397 143.5023638  89.3515210  88.1421855 143.0297931  88.0933073
  90.2570166 138.0085739  93.7385120  89.6034578 137.6934756  93.1141735
  90.2150640 137.3861480  94.4644943  91.3681371 148.2905034  85.6538412
  90.4608432 148.0594288  85.8529561  91.8652402 147.4942653  85.8412394
  93.4907906 144.4967673  98.0632768  92.5730467 144.7182620  97.9054456
  93.9068050 144.5713983  97.2044475  94.2742954 145.8959088  93.1935448
  95.0214773 146.4080486  92.8842570  94.5434543 145.5743141  94.0539841
  92.5469604 148.3917629  90.1762402  91.6380823 148.1076662  90.2734872
  92.5764688 148.8116708  89.3165709  96.7221791 142.9316205  95.1754237
  95.9844548 142.4193591  95.5064480  96.9748564 142.4916586  94.3637514
  96.8233418 135.7092457  95.7696006  97.1292295 134.8489820  95.4821921
  97.5486023 136.3010077  95.5695000  83.1157774 146.1123143  94.1577604
  82.9182174 145.5192504  93.4328671  82.5604438 145.8075353  94.8753543
  91.0954498 146.0046250  96.2772197  91.1503108 145.0520086  96.2014674
  90.2845700 146.1605689  96.7613496  92.2445692 149.9326373  87.5150481
  91.8065122 149.2162232  87.0556118  92.9856133 150.1602488  86.9535572
  89.0346858 144.6223309  94.0362576  88.2214723 144.9217480  94.4427768
  89.5305852 144.2278998  94.7537059  94.6321070 145.0865134 102.8677470
  94.9870457 145.3136607 103.7271936  95.2793201 145.4183511 102.2454726
 100.3618807 148.2083570  93.5726799 100.2236705 148.3985166  92.6447988
 100.0055025 148.9702953  94.0294850  88.5260933 142.1941665  99.6523811
  89.1660312 142.0530424  98.9546775  87.6938463 141.9076178  99.2762413
  89.3021237 151.4944095  95.7658804  90.0961835 150.9994415  95.5641379
  88.5912929 150.9661958  95.4026509  85.6104000 145.6387177  91.8418556
  84.6801588 145.5771633  92.0588519  85.7061472 145.1163130  91.0455198
  85.5289549 142.1641990  94.4296798  85.7896366 143.0787323  94.3205959
  86.3506721 141.6966432  94.5793411  87.0014474 143.5779747 101.5995623
  87.6737528 143.3697109 100.9508272  86.1744261 143.3801833 101.1600855
  92.9040046 140.2041688 103.6161283  92.2567961 140.9031638 103.5225760
  93.6741062 140.6377832 103.9837532  93.0804181 148.0422453 101.6758103
  94.0096241 148.1933613 101.5027071  92.6595211 148.1306474 100.8206750
  93.4297728 151.4454720  96.8345479  93.0947560 151.4055490  97.7303129
  92.9301673 150.7799436  96.3615889  87.4041972 146.8522350 102.3598060
  87.2661770 146.1202589 102.9609599  88.3146895 146.7631250 102.0782248
  96.3656919 148.7910754  87.1082538  95.7486090 148.0657583  87.0115591
  95.8973408 149.5520115  86.7649613  90.0324272 146.5642309 101.8481739
  90.7423891 145.9235502 101.8068358  89.9893581 146.8155204 102.7707920
  88.7453206 143.5507527 103.6677379  88.2090563 143.0998266 104.3198975
  88.1569915 143.6853436 102.9247843  88.1555465 143.0096179  86.2303843
  87.2784932 142.8884979  85.8666089  88.6313218 142.2182257  85.9782731
  84.4792328 142.6863535 100.7530373  84.3950516 142.0789205 100.0180783
  83.6575034 143.1772553 100.7539870  94.6516041 141.1717098  96.1200568
  95.1484741 140.4187061  95.8001639  93.8803023 141.2081415  95.5543778
 102.5045799 146.8757464  97.7618860 102.4935675 147.7582179  97.3912793
 101.6363178 146.5229015  97.5673397  95.7345822 149.9288786  93.6938992
  94.8002101 150.0490248  93.5243696  95.9122491 149.0261252  93.4299002
  91.2351010 143.3134481  95.8472253  90.8648798 142.7605522  96.5353159
  91.7310103 142.7092615  95.2947253  99.1218373 145.7706105  94.2289026
  99.5878826 146.6034097  94.1549329  99.5725874 145.3051087  94.9334284
  97.0935036 138.1386692  98.2679927  96.1798116 138.3690919  98.4362134
  97.5228138 138.2225136  99.1193960  96.8641495 146.3276584 100.7679821
  96.2112945 146.5752491 100.1132274  97.2421875 145.5140722 100.4342299
  79.2525582 145.8773932  98.5962817  79.2909681 145.3437522  99.3899935
  78.7465874 145.3509137  97.9773794  86.6316344 140.7238472 102.0925359
  86.6957670 141.5853303 101.6802757  86.5683464 140.1112474 101.3597718
  86.1068616 142.7961605 105.7398393  86.7340655 142.4138682 106.3535918
  85.2496535 142.5775807 106.1054086  82.8834159 144.6038034  91.6716748
  83.1787600 143.6948712  91.6183802  81.9822195 144.5825773  91.3497751
  86.4128406 142.6794030  97.6544297  85.6914992 143.2929998  97.5151770
  87.2021662 143.2151795  97.5760943  89.2154720 140.0148457 103.9284949
  89.7389121 140.2610754 104.6911258  88.9967053 140.8468492 103.5088086
  84.6122001 142.2852132  91.7956073  84.2834707 141.4049510  91.6131179
  84.9661371 142.2299800  92.6832463  87.7263824 142.5725101  92.1631551
  88.0659896 143.1011023  91.4410159  88.1735944 142.9105507  92.9390118
  90.4207265 140.9562152 101.6134619  90.0804085 140.1569965 102.0155299
  89.7146271 141.2563863 101.0411452  91.0723737 138.0411465 100.0661942
  91.8949806 137.5671943  99.9440832  91.3161800 138.8201948 100.5660628
  89.7131971 141.0699723  90.3624844  90.4340333 141.4480976  89.8588561
  89.0897275 141.7888600  90.4659822  93.8563094 141.7744872  91.2983176
  94.0726708 142.6569510  90.9972004  93.3757161 141.3831085  90.5688818
  88.5962315 144.7330585  97.8753921  88.4506896 145.0470888  98.7678202
  88.1187519 145.3515485  97.3224819  90.4558698 141.7233133  97.9234810
  90.4420267 140.8274226  97.5867108  91.1731126 141.7303797  98.5573096
  92.3084829 142.1570473  99.9687938  92.0502607 143.0787544  99.9672268
  91.7769869 141.7600908 100.6588402  83.0707977 147.2735930 100.8141582
  82.5261445 148.0495738 100.9461856  83.9487327 147.6206734 100.6560703
  89.8595594 140.6047513  93.1922380  89.9811505 139.6764160  93.3913268
  89.5697636 140.6186199  92.2800696  92.7286784 138.2902424  96.3289100
  92.7508481 138.3541757  95.3741080  93.1454843 137.4506932  96.5229606
  83.8573999 146.4005826 103.7071739  83.1155735 146.5488461 104.2936369
  83.5366744 146.6614091 102.8438488  89.3436674 142.1179511 107.4012313
  89.3924829 142.9941634 107.0190083  89.8859188 141.5756904 106.8283956
  91.5735962 142.8710883 104.1558672  90.7039271 143.1644449 103.8841260
  91.8095442 143.4551328 104.8765935  86.5878286 148.2166824  92.2899336
  86.3424328 147.3129154  92.4879547  86.7574201 148.2183974  91.3478814
  94.2774996 139.0890500 101.6724092  94.7956940 139.8251527 101.3470581
  93.9230129 139.3954493 102.5070851  85.8573934 143.9495181  89.7885498
  85.1643178 144.0239536  89.1325534  85.6125685 143.1855525  90.3107015
  94.5287590 135.5090783  97.1924989  94.8089344 134.8413972  97.8185415
  95.3138197 135.7019878  96.6799652  98.3996448 143.9308417 100.9396564
  99.3513871 144.0306514 100.9608788  98.2299899 143.1386685 101.4494648
  96.4210828 141.0164000 101.1255965  95.8260760 141.2969013 100.4302453
  96.1360525 141.5057901 101.8972706 100.8784526 147.1514536 100.0538863
 100.8460846 146.2130537 100.2398547 101.4885150 147.2298573  99.3204688
  92.7167857 146.0210589  86.0966067  93.6626962 145.8916797  86.1654486
  92.3382102 145.2825251  86.5735496 101.0279015 143.9425580 100.0997147
 100.5118063 143.1584036  99.9127075 101.9118963 143.6144296 100.2643666
  98.6889742 137.6866595  96.0592959  98.4914563 137.3781684  96.9436291
  99.2989447 138.4128234  96.1890889  90.9010774 143.9460566  86.0320953
  89.9942230 143.6493678  86.1083666  91.1786755 143.6490384  85.1655239
  81.8188715 145.2666929  96.4819999  81.4991499 144.4132237  96.1894373
  81.2722143 145.4815507  97.2377966  85.5968622 147.9829370 100.1989506
  85.8154632 148.9146478 100.2177539  86.0094396 147.6237345 100.9844309
  92.5172840 138.4897455  92.1865194  91.7073568 138.1444540  92.5620440
  93.2057257 138.1804999  92.7752806  94.4463388 137.5675502  93.8089491
  94.9994427 137.9870956  94.4679514  94.6833475 136.6411250  93.8512447
  89.6709559 140.8047501  86.1732932  90.5328723 141.1302399  86.4328749
  89.8559903 140.0178997  85.6605998  81.6876975 148.8869841  98.4513121
  80.9940446 148.4723793  97.9383075  82.4349966 148.9290377  97.8546540
  97.8242195 139.6776027  93.3168155  97.2440864 140.3360831  92.9346207
  97.5578128 138.8553372  92.9055572  96.2745762 139.0781085  95.5189475
  96.7745540 139.1897620  94.7103794  96.9181370 138.7742138  96.1590284
  83.6013717 148.8188094  96.3279136  83.5784405 148.9175782  95.3761019
  83.9114354 149.6653245  96.6496302  86.8500477 149.4465365 103.0096548
  87.6693366 149.9409444 103.0331385  87.1237285 148.5297334 102.9814115
  96.6067073 141.8376118  92.3724503  95.7192928 142.1225768  92.1544698
  97.0221062 141.6769881  91.5251780  99.9581609 141.8622639  96.0878842
 100.7342000 142.3519091  96.3603459  99.2329744 142.2880693  96.5450712
 102.3954168 142.5750258  97.1452783 102.9898659 142.3345994  96.4346091
 102.4680752 141.8557389  97.7726319  95.7510287 151.6020792  86.4672523
  96.4546137 151.8070795  87.0830179  95.0272936 152.1697554  86.7321607
  96.5808097 147.3530654  92.5874793  96.5243298 147.8099205  91.7482426
  97.1336440 146.5921338  92.4097636 100.3912903 143.1420386  93.4124913
 100.1349837 142.7417021  94.2433121  99.7665771 143.8564179  93.2875052
 104.7025241 145.8816459  95.9196204 104.1424799 145.9509648  96.6927766
 104.0968744 145.7057443  95.1995700  97.3142876 148.5435435  89.8827323
  97.2591680 148.3779706  88.9415767  96.6888932 149.2511468  90.0389512
  82.1035391 143.7803499 103.7088745  82.7494255 143.2702453 104.1975970
  81.8952542 144.5172181 104.2832170  90.6239002 138.0443544  89.4612641
  90.6117672 138.9885384  89.6180912  91.5162424 137.8613689  89.1672102
  94.4391121 134.6386321  93.7158578  93.6723517 134.0844807  93.8615260
  94.8501826 134.7108189  94.5772729  86.4432882 140.9271116 107.8063759
  87.3064344 140.5707921 108.0167084  85.8698293 140.5885011 108.4939163
  19.5731225  16.9299754  85.3371467  20.2109635  16.8106501  84.6334807
  19.4552068  17.8780598  85.3959419  16.3820931  16.8827182  85.2732991
  16.0439442  16.7668247  84.3853526  17.2510699  16.4818347  85.2533997
  12.2407747  18.7362658  81.2629882  11.6772612  18.6452595  80.4946170
  12.1260142  17.9162563  81.7432375  16.8640714  18.0362034  91.2319197
  16.8529355  17.6414832  90.3599700  17.0261353  17.3028106  91.8252968
   9.7872179  20.2313850  84.1014103  10.5793470  19.8904675  83.6860402
  10.0268829  20.3408825  85.0216256  17.8207305  22.4033626  76.5744347
  17.1695285  22.9887707  76.1878361  18.6151668  22.9339821  76.6339385
  11.7462932  19.4922763  76.9731481  12.5193808  18.9451750  76.8344357
  12.0988331  20.3567013  77.1845943  13.5847975  20.8199146  90.1798381
  13.2937841  21.7244776  90.0645047  14.2204959  20.8615673  90.8942450
  14.5104182  18.1975994  86.7699740  15.1067754  17.9732016  86.0556703
  14.5679153  17.4560740  87.3725188  14.0829210  15.6515429  74.6049931
  14.3354731  15.1296951  73.8433394  13.1453769  15.4881575  74.7076615
  19.1272493  14.6551208  82.4124675  19.9135582  14.2370631  82.0615092
  19.3911197  15.5597300  82.5806323  19.2982570  20.0924058  77.1113331
  18.6628403  20.1658685  77.8234236  18.9679977  20.6817657  76.4332411
  24.5280920  14.5926441  83.3157653  25.2606092  14.0225658  83.5495483
  23.7720276  14.2048041  83.7564159  13.8025499  17.5543535  76.8074306
  13.6861757  16.8788439  77.4755391  13.9127759  17.0675909  75.9906459
  16.1457040  17.0153682  80.5120996  15.7815247  16.4884303  81.2233917
  17.0024156  16.6252152  80.3387481  22.0506341   8.3048015  87.7752262
  21.7189665   9.1743426  87.5513477  21.4551954   7.9884299  88.4546292
  15.7862527  12.0443582  75.5082344  15.9536929  12.9123819  75.8752815
  15.5959696  12.2070864  74.5843633  18.5437860  20.5060561  87.1748174
  18.2438583  21.4085600  87.0663982  18.1988920  20.2392744  88.0269327
  11.9950342  16.9574358  83.2084879  11.0700838  16.8250572  83.4162571
  12.2434755  17.7368577  83.7054821  21.9435004  13.0243101  84.8545612
  21.0351881  12.9558510  84.5604373  21.8922600  13.5015046  85.6827437
  15.7651748  14.5001240  76.4929011  15.6451373  14.9458290  77.3314491
  15.0704336  14.8486557  75.9342549   9.3559153  16.6007631  84.0428668
   9.4851534  16.8542110  84.9568080   8.6756604  17.1935339  83.7233323
  13.5258640  27.2704881  80.1419142  13.4482670  28.2212707  80.2207623
  12.9220284  26.9250754  80.7994068  16.0175870  14.4432747  92.7980509
  15.2409204  15.0026667  92.7883374  16.6566433  14.9289530  93.3195379
  23.8096650  11.2259540  86.6323486  23.1671031  11.5192073  85.9863280
  23.3051579  11.1112460  87.4376682  21.4636814  14.9722713  77.3209345
  22.3754670  15.2050100  77.1457043  20.9546461  15.5559757  76.7584424
  14.2722242  17.2518200  92.3598476  15.0136926  17.7903244  92.0833300
  13.5659227  17.8784489  92.5170028  19.7477582  19.3947341  90.9570638
  20.1560938  18.9529751  90.2125270  19.0254843  18.8199968  91.2104830
  16.1008652  14.3319947  88.3304194  16.9469847  14.7559361  88.4738843
  16.0407289  13.6753572  89.0242758  20.0706396  19.9548531  84.7122926
  19.4415259  20.1194245  84.0098994  19.6832058  20.3690141  85.4833890
  23.9495628  20.8902969  82.0667290  23.2646666  21.2701871  81.5164323
  24.0339478  21.4998296  82.7999238  19.2508097  11.9924316  89.9885368
  19.0069029  12.7466376  89.4519644  19.5268028  12.3709663  90.8232615
  21.2046560  18.5362928  88.6662634  21.4163455  19.1794688  87.9897015
  21.1576308  17.7025245  88.1984564  18.8072789  11.1480749  85.5699206
  17.9457268  11.4462002  85.8615943  18.8335223  11.3651148  84.6380238
  15.6234358  19.6922939  81.9773012  16.0872704  19.9710642  81.1877634
  15.3591156  18.7906384  81.7946102  12.5158439  19.2394421  84.9152775
  13.0859796  19.6681689  84.2770259  13.1066551  18.9577006  85.6136960
  14.5603244  15.8146092  78.7862577  15.2627288  16.2667135  79.2536503
  14.2283873  15.1729911  79.4142470  13.0083606  14.4057848  93.1613786
  12.3782266  15.0874129  93.3949183  12.9019694  14.2940930  92.2166924
  22.3192388  21.4134884  86.8384991  23.1409831  21.0115071  86.5567673
  22.3154791  21.3103118  87.7901107  10.2543324  14.4374224  81.0463187
   9.4574487  14.5492918  81.5646683  10.0268916  14.7760876  80.1804077
  16.0848991  20.9618927  88.9945702  16.1493424  21.4239334  89.8303873
  15.3759915  20.3316292  89.1228011  30.4098381  17.7573632  83.1869963
  29.6562089  17.1881030  83.0313967  30.5445922  17.7236297  84.1340597
  15.7997009  22.6287034  78.8624682  15.6642684  23.4738570  79.2909530
  16.3406821  22.8306312  78.0990616   9.2526406  20.1462472  79.4352607
   9.7650927  20.9405723  79.5858172   9.9049119  19.4488763  79.3686208
  11.0621291  23.2628229  81.5175360  11.2387919  24.1846193  81.3296344
  11.8578124  22.9486648  81.9469740  10.3473647  15.3092861  91.3937523
  10.2327163  14.4078118  91.6944622   9.4918165  15.5556557  91.0422340
  17.4265485  23.2510601  92.9925024  16.9829339  22.4646979  92.6745928
  18.0882699  23.4389751  92.3268915  12.1852606  24.7806402  87.5185702
  12.7360032  24.6523466  86.7462696  11.3464082  25.0801291  87.1680595
  19.5246723  23.5313401  91.0206425  19.5065199  24.3522282  90.5286694
  20.4466643  23.4067476  91.2456566  15.9819777  21.0457530  91.8629934
  16.5148114  20.2845818  91.6329242  15.4533859  20.7531182  92.6054088
   7.2175323  18.4751127  80.2112177   8.0550545  18.8848135  79.9945885
   7.3953591  17.5350569  80.1812371  19.1139755  16.1426207  75.8996010
  18.5986379  16.9130812  76.1384398  18.8417064  15.4691344  76.5229072
  16.6986866  10.9875908  80.9581249  15.8428463  10.5982759  80.7786888
  17.1113818  11.0667869  80.0981034  24.0874029  18.8958562  77.8349184
  23.3103472  18.5569722  77.3904346  24.7665510  18.9011185  77.1604149
  18.9026058  14.0153299  77.7255792  18.5976194  14.3299449  78.5765935
  19.8556500  14.0934719  77.7683125  17.3472490  20.1743523  79.3748746
  16.8193852  19.4396282  79.0621983  16.8459993  20.9518199  79.1288714
  22.3265336  18.3692543  84.4915792  21.6689011  19.0591805  84.5795921
  23.1305735  18.7588975  84.8349778  21.1370795  16.7236916  82.5419734
  21.6502677  17.3566908  83.0441443  21.7872019  16.1238111  82.1763094
  12.4060805  12.8667650  75.7551242  11.5698117  13.2042337  76.0760517
  12.2665575  12.7316630  74.8178379  15.4925090  17.9923733  72.3783719
  14.5852152  17.7612986  72.5774868  15.9896122  17.1961352  72.5657700
  18.3993169  26.7021240  75.2980405  17.7254868  27.0052937  75.9065363
  18.7858991  27.5050321  74.9485862  17.6151626  14.1986372  84.7878074
  16.6974187  14.4201319  84.6299762  18.0311769  14.2732682  83.9289782
  18.3986674  15.5977787  79.9180754  19.1458493  16.1099184  79.6087876
  18.6678263  15.2761840  80.7785148  16.6713324  18.0936328  76.9007709
  15.7624543  17.8095361  76.9980178  16.7008408  18.5135406  76.0411016
  21.9032591  21.7042917  80.6698876  21.4494918  20.8633827  80.7264067
  21.2726558  22.3404316  81.0073656  20.8465511  12.6334903  81.8999544
  20.1088268  12.1212290  82.2309786  21.0992284  12.1935285  81.0882821
  20.3465530  23.5419414  81.6048694  20.6388505  24.1024471  80.8861060
  20.8564151  23.8347975  82.3601854  15.2198218  15.7064949  83.0017504
  15.2746828  14.7538785  82.9259981  14.4089420  15.8624388  83.4858803
  16.3689412  19.6345072  74.2395787  15.9308842  18.9180931  73.7801425
  17.1099852  19.8621186  73.6780879  13.1590578  14.3242008  80.7607883
  12.3458443  14.6236179  81.1673075  13.6549572  13.9297697  81.4782365
  15.3099156  24.3199765  82.6942148  15.2675334  24.5460611  81.7650680
  16.2261854  24.0863140  82.8427949  18.7564789  14.7883833  89.5922777
  19.1114177  15.0155306  90.4517243  19.4036921  15.1202210  88.9700032
  24.4862526  17.9102269  80.2972106  24.3480425  18.1003865  79.3693295
  24.1298745  18.6721651  80.7540157  24.5131906  19.9778796  85.3083377
  24.9468413  19.8854085  86.1566431  25.2263487  19.9536296  84.6703393
  13.4264956  21.1962794  82.4904110  14.2205555  20.7013114  82.2886685
  12.7156649  20.6680657  82.1271816  18.2459801  23.5780890  86.8416478
  18.2996823  24.1471826  87.6094194  17.3774582  23.7482775  86.4770515
   9.7347720  15.3405876  78.5663863   8.8045308  15.2790331  78.7833825
   9.8305192  14.8181829  77.7700504  25.3747456  20.0202496  87.8416263
  25.5683346  20.9248307  88.0875538  25.2748074  19.5609915  88.6754848
  17.0283766   9.9060387  90.3406590  16.3811681  10.6050337  90.2471067
  17.7984782  10.3396531  90.7082838  20.4362564  20.1709239  93.4157143
  20.2848071  19.9419791  92.4987227  20.4267244  21.1279840  93.4288488
  17.2047901  17.7441152  88.4003410  18.1339961  17.8952311  88.2272377
  16.7838931  17.8325173  87.5452056  16.0036232  21.7691816  86.1701947
  15.8647318  21.4010601  87.0427886  15.2150829  22.2839456  85.9985905
  16.5984384  26.8700913  77.5127484  16.7736140  26.3988956  78.3273107
  15.9117172  27.4966679  77.7408745  17.5541448  21.1473419  83.5590785
  17.2191280  21.1074189  84.4548435  17.0545393  20.4818135  83.0861195
  11.5285692  16.5541049  89.0843366  11.3905489  15.8221288  89.6854905
  12.4390615  16.4649949  88.8027554  20.4900639  18.4929453  73.8327845
  19.8729810  17.7676281  73.7360898  20.0217128  19.2538814  73.4894919
  14.1567992  16.2661008  88.5727046  14.8667611  15.6254200  88.5313664
  14.1137300  16.5173903  89.4953227  22.1454771  23.2028362  91.4933625
  22.0867317  22.5187582  90.8264208  22.5474289  23.9447352  91.0414251
  12.8696926  13.2526226  90.3922686  12.3334283  12.8016965  91.0444282
  12.2813635  13.3872135  89.6493150  11.1645470  30.0190275  84.2867344
  11.4042068  30.6508800  84.9646363  10.3214666  29.6678315  84.5732703
  22.1472178  21.1667946  89.7247605  21.2598957  20.8293867  89.8474004
  22.7170729  20.4350977  89.9616370  15.6773332  25.8269398  86.6908848
  15.6043503  26.6324369  87.2028153  15.2350725  26.0261364  85.8656870
  15.4663111  25.0641168  80.2011670  14.6830633  25.6062848  80.2949894
  16.1655856  25.5815148  80.6005911  18.7759761  10.8735797  82.8445875
  19.2728461  10.1205760  82.5246945  18.0046743  10.9100114  82.2789084
  26.6289519  16.5776163  84.4864167  26.6179395  17.4600878  84.1158100
  25.7606898  16.2247714  84.2918704  18.1372015  25.7256232  88.8467007
  18.8499987  26.3603697  88.7742908  17.6462044  25.8220098  88.0307009
  19.8589542  19.6307485  80.4184298  18.9245821  19.7508947  80.2489003
  20.0366210  18.7279951  80.1544308  15.3594730  13.0153180  82.5717560
  14.9892518  12.4624221  83.2598465  15.8553822  12.4111314  82.0192560
  23.2462093  15.4724804  80.9534333  23.7122545  16.3052795  80.8794635
  23.6969594  15.0069785  81.6579591  13.1883929  23.4750675  89.6672578
  13.8893388  24.1087158  89.8201972  12.7179044  23.8165407  88.9068217
  21.3138324  21.8168625  77.9520485  21.5898168  21.7025220  78.8614359
  20.4442823  21.4186110  77.9132658  21.2178756   7.8405391  84.9925234
  20.3041836   8.0709618  85.1607441  21.6471858   7.9243835  85.8439266
  20.9885215  16.0295283  87.4925128  20.3356665  16.2771190  86.8377581
  21.3665594  15.2159421  87.1587605  17.9492388  26.0654976  81.5953298
  18.1314783  25.2476632  82.0581051  18.7725374  26.2822668  81.1578188
  18.2834554  24.9923161  78.8568347  18.8122320  24.4815616  78.2438509
  18.5462774  24.6765691  79.7213880  17.0372788  16.7715094  93.9791165
  16.3613425  16.6709223  94.6493540  17.8600421  16.6154308  94.4427162
   8.7851647  23.0087030  86.6003680   9.3705083  22.2630718  86.7331585
   8.5876485  23.3190987  87.4840344  11.6390302  26.0438278  81.6166123
  10.9700677  26.5284405  81.1330163  11.5003172  26.2907498  82.5309501
  15.7795570  28.0782021  88.2148781  16.3313878  28.2413643  88.9797866
  16.1201764  28.6686459  87.5428806  20.6306445  22.9043279  94.0697435
  21.1746349  23.5173237  93.5752390  20.0493290  23.4622857  94.5864448
  18.9163958  26.0263997  85.2012463  18.7915097  25.2253737  84.6923409
  19.5743049  26.5210190  84.7126433  20.9798866  23.8273017  86.8292013
  20.0329202  23.7078368  86.7570340  21.3281639  22.9395515  86.9118275
  17.9845299  23.6225733  83.0296366  17.8370262  22.6942441  83.2103936
  18.8098793  23.6445824  82.5453441  21.5879421  24.4454292  84.1161238
  22.5125969  24.2397153  83.9785689  21.4194725  24.1970693  85.0250580
  17.9806814  11.4763571  78.0228483  18.1970428  12.3588209  77.7217311
  17.5000881  11.0849784  77.2934125  12.7206035  14.4349284  84.5999227
  12.5750616  14.7489587  85.4923509  12.2431239  15.0534184  84.0470126
  16.4328549  11.8589172  86.6933244  16.1746327  12.7806243  86.6917575
  15.9013589  11.4619607  87.3833708  21.3774737  24.9639959  79.4723330
  21.5511615  24.3986382  78.7197182  21.8703629  25.7640854  79.2902820
   7.1951697  16.9754628  87.5386889   6.6505165  17.7514436  87.6707163
   8.0731047  17.3225433  87.3806010  27.2314129  17.7276382  81.0913629
  27.6745275  16.9783707  80.6932753  26.3540639  17.7186519  80.7087361
  22.3649910  24.2806724  76.5720228  23.0600815  24.9013416  76.7907543
  22.7073060  23.4302075  76.8472606   7.9817719  16.1024525  90.4317045
   7.2399455  16.2507160  91.0181676   7.6610463  16.3632790  89.5683795
  24.2641333  21.7306429  78.1007559  24.7892657  22.0693702  77.3756879
  24.1763686  20.7953445  77.9170693  15.9261382  25.6440503  90.2297435
  16.2348508  25.3989650  91.1020135  16.7236864  25.8487141  89.7416306
  15.9481994  27.7978413  82.4602812  15.5086984  27.3054791  83.1535669
  16.6990111  27.2551380  82.2194887   8.4274333  23.9889953  82.4627440
   9.2532353  23.6893725  82.0826084   8.0768385  23.2197576  82.9117229
  13.3955866  23.3416422  84.5325114  12.7735875  22.6787127  84.2327342
  14.0660733  23.3677554  83.8498761   6.6282938  21.9076280  83.4216374
   5.7914846  21.4798454  83.2400375   6.6006583  22.1008723  84.3587165
  23.9535239  22.3639333  93.4058757  23.1630783  22.3463472  92.8663256
  23.7168594  22.9027627  94.1607793  24.0733114  19.2131799  90.7191485
  24.1231119  19.0481807  91.6607008  23.9647038  18.3459058  90.3289366
  12.9569373  21.8920345  78.0083574  13.1057493  22.5755809  77.3550247
  13.7635816  21.8725435  78.5233030  21.3636877  15.1962727  92.0350792
  22.2646739  15.0569192  91.7434790  21.4384851  15.3617182  92.9748969
  15.6979682  12.5729582  90.8803978  14.8282991  12.8663148  90.6086567
  15.9339162  13.1570027  91.6011242  25.5751311  21.6328741  90.9633507
  25.2836119  21.9958721  91.7996968  24.9623442  20.9195749  90.7846839
  26.7746993  19.1981621  83.4836077  27.6093885  19.6371425  83.6473637
  26.9106122  18.7220274  82.6644323  23.8238499  16.7561355  89.4313565
  24.2992621  16.9489002  88.6232416  22.9004065  16.8120541  89.1856948
  10.7122006  17.9185523  79.0144643  10.4668048  17.0147853  79.2124853
  10.8817920  17.9202673  78.0724121  18.4018716   8.7909199  88.3969399
  18.9200660   9.5270226  88.0715887  18.0473849   9.0973192  89.2316158
  16.4564778  24.3868475  75.4795322  15.8838745  25.0058663  75.0265793
  17.0297572  24.9367837  76.0135244  22.5240168  13.6327116  87.6641870
  23.4757591  13.7325213  87.6854094  22.3543619  12.8405384  88.1739955
  20.5454548  10.7182699  87.8501271  19.9504480  10.9987711  87.1547760
  20.2604244  11.2076600  88.6218012  19.6762038  24.6705626  76.6103904
  20.6092711  24.6051187  76.8136779  19.5885251  25.5061892  76.1518437
  22.3050055  23.9871496  73.5707851  22.2263686  23.6531359  74.4643609
  23.1259722  24.4793264  73.5699324  25.0028246  16.8533235  86.7784170
  24.9704566  15.9149236  86.9643854  25.6128870  16.9317272  86.0449995
  16.8411577  15.7229288  72.8211374  17.7870682  15.5935496  72.8899792
  16.4625822  14.9843950  73.2980802  25.1522735  13.6444279  86.8242453
  24.6361783  12.8602735  86.6372382  26.0362683  13.3162995  86.9888973
  22.8133461   7.3885294  82.7838266  22.6158283   7.0800382  83.6681598
  23.4233167   8.1146933  82.9136196  30.8204796  17.9149242  85.9190207
  31.5508184  17.6534530  86.4797910  30.2111741  17.1777964  85.9592275
  28.9020093  16.0557105  86.5164658  28.1753257  15.9213070  85.9081150
  28.4867380  16.3633933  87.3221376  16.7250269  19.7747034  94.2812031
  17.6453279  19.9525633  94.4752078  16.6899852  18.8303080  94.1291730
  15.0254494  13.6479265  72.7566259  14.1185949  13.3512377  72.8328973
  15.3030475  13.3509083  71.8900546   9.7212342  17.6848069  86.9234812
   9.9398352  18.6165177  86.9422846  10.1338116  17.3256043  87.7089616
  14.5940207  13.2581275  96.3137561  14.4936934  14.2075632  96.2449652
  14.3761749  12.9299514  95.4413631   5.8120694  18.5888539  85.1758427
   5.1184166  18.1742492  84.6628382   6.5593685  18.6309076  84.5791846
  21.9485915   9.3794726  80.0413462  21.3684584  10.0379530  79.6591514
  21.6821848   8.5572071  79.6300879  20.3989482   8.7799784  82.2434782
  20.8989260   8.8916318  81.4349101  21.0425089   8.4760837  82.8835590
  14.4571477  16.6878414  95.1302623  13.9738559  17.4878774  95.3366512
  14.5432416  16.6986358  94.1770067   7.7257437  18.5206793  83.0524442
   7.7028125  18.6194481  82.1006325   8.0358073  19.3671944  83.3741608
  10.3844815  20.5782948  87.1671057  11.3388068  20.5466891  87.1000988
  10.1857338  20.1173572  87.9821283  10.9744197  19.1484064  89.7341854
  11.7937086  19.6428143  89.7576692  11.2481005  18.2316032  89.7059422
  20.7310793  11.5394817  79.0969810  19.8436648  11.8244467  78.8790005
  21.1464782  11.3788580  78.2497087  24.0825329  11.5641338  82.8124149
  24.8585719  12.0537790  83.0848766  23.3573463  11.9899392  83.2696019
  26.5197888  12.2768957  83.8698090  27.1142379  12.0364693  83.1591398
  26.5924472  11.5576087  84.4971626   8.7395044  26.1202568  84.1841254
   8.6049512  25.3602969  83.6179253   8.3227106  26.8443468  83.7170043
  19.8754007  21.3039491  73.1917830  20.5789857  21.5089494  73.8075485
  19.1516655  21.8716253  73.4566913  20.7051817  17.0549353  79.3120100
  20.6487018  17.5117904  78.4727732  21.2580159  16.2940037  79.1342943
  24.5156623  12.8439084  80.1370219  24.2593557  12.4435720  80.9678427
  23.8909491  13.5582878  80.0120359  28.8268961  15.5835158  82.6441511
  28.2668519  15.6528347  83.4173073  28.2212464  15.4076142  81.9241007
  11.8964169  27.0171885  84.3959697  11.7796554  27.9617317  84.2938387
  11.0756616  26.7145446  84.7845496  21.7840704  21.7422020  75.2416290
  22.6186308  21.3103219  75.0593765  21.6225047  21.5704034  76.1693184
  21.4386596  18.2454134  76.6072629  21.3835400  18.0798405  75.6661073
  20.8132651  18.9530167  76.7634819  18.7532503  20.5503046  95.9326192
  19.6223663  20.7243698  95.5712827  18.2739255  21.3697462  95.8101921
  12.9218684  27.6700147  87.6115626  13.8245930  27.7023757  87.9282121
  12.6956054  26.7400598  87.6261961  14.6772286  26.4231133  84.2725704
  13.7267917  26.4232995  84.1590076  14.9804772  25.6763868  83.7561739
  30.4124979  32.2591672  85.3371467  31.0503389  32.1398419  84.6334807
  30.2945822  33.2072516  85.3959419  27.2214685  32.2119100  85.2732991
  26.8833197  32.0960164  84.3853526  28.0904454  31.8110265  85.2533997
  23.0801501  34.0654576  81.2629882  22.5166366  33.9744513  80.4946170
  22.9653896  33.2454481  81.7432375  27.7034468  33.3653951  91.2319197
  27.6923109  32.9706750  90.3599700  27.8655108  32.6320024  91.8252968
  20.6265933  35.5605768  84.1014103  21.4187225  35.2196592  83.6860402
  20.8662583  35.6700743  85.0216256  28.6601060  37.7325544  76.5744347
  28.0089040  38.3179624  76.1878361  29.4545423  38.2631739  76.6339385
  22.5856687  34.8214681  76.9731481  23.3587563  34.2743668  76.8344357
  22.9382086  35.6858930  77.1845943  24.4241730  36.1491063  90.1798381
  24.1331596  37.0536694  90.0645047  25.0598714  36.1907591  90.8942450
  25.3497936  33.5267912  86.7699740  25.9461509  33.3023934  86.0556703
  25.4072908  32.7852657  87.3725188  24.9222965  30.9807347  74.6049931
  25.1748485  30.4588868  73.8433394  23.9847524  30.8173493  74.7076615
  29.9666248  29.9843125  82.4124675  30.7529337  29.5662549  82.0615092
  30.2304952  30.8889218  82.5806323  30.1376325  35.4215976  77.1113331
  29.5022158  35.4950602  77.8234236  29.8073731  36.0109575  76.4332411
  35.3674675  29.9218359  83.3157653  36.0999847  29.3517575  83.5495483
  34.6114030  29.5339959  83.7564159  24.6419254  32.8835453  76.8074306
  24.5255512  32.2080356  77.4755391  24.7521513  32.3967827  75.9906459
  26.9850794  32.3445600  80.5120996  26.6209002  31.8176221  81.2233917
  27.8417910  31.9544069  80.3387481  32.8900095  23.6339933  87.7752262
  32.5583420  24.5035344  87.5513477  32.2945708  23.3176217  88.4546292
  26.6256281  27.3735500  75.5082344  26.7930684  28.2415736  75.8752815
  26.4353451  27.5362782  74.5843633  29.3831615  35.8352479  87.1748174
  29.0832338  36.7377518  87.0663982  29.0382674  35.5684662  88.0269327
  22.8344096  32.2866276  83.2084879  21.9094593  32.1542490  83.4162571
  23.0828509  33.0660495  83.7054821  32.7828758  28.3535019  84.8545612
  31.8745636  28.2850427  84.5604373  32.7316354  28.8306964  85.6827437
  26.6045502  29.8293157  76.4929011  26.4845128  30.2750208  77.3314491
  25.9098091  30.1778475  75.9342549  20.1952907  31.9299549  84.0428668
  20.3245288  32.1834028  84.9568080  19.5150358  32.5227257  83.7233323
  24.3652394  42.5996799  80.1419142  24.2876424  43.5504624  80.2207623
  23.7614038  42.2542672  80.7994068  26.8569624  29.7724665  92.7980509
  26.0802958  30.3318585  92.7883374  27.4960187  30.2581448  93.3195379
  34.6490405  26.5551457  86.6323486  34.0064785  26.8483990  85.9863280
  34.1445333  26.4404378  87.4376682  32.3030568  30.3014631  77.3209345
  33.2148425  30.5342017  77.1457043  31.7940216  30.8851675  76.7584424
  25.1115997  32.5810118  92.3598476  25.8530681  33.1195162  92.0833300
  24.4052982  33.2076407  92.5170028  30.5871336  34.7239258  90.9570638
  30.9954692  34.2821669  90.2125270  29.8648598  34.1491886  91.2104830
  26.9402406  29.6611865  88.3304194  27.7863601  30.0851279  88.4738843
  26.8801044  29.0045489  89.0242758  30.9100151  35.2840449  84.7122926
  30.2809013  35.4486163  84.0098994  30.5225813  35.6982059  85.4833890
  34.7889383  36.2194887  82.0667290  34.1040421  36.5993788  81.5164323
  34.8733232  36.8290213  82.7999238  30.0901852  27.3216233  89.9885368
  29.8462783  28.0758294  89.4519644  30.3661782  27.7001581  90.8232615
  32.0440314  33.8654846  88.6662634  32.2557210  34.5086606  87.9897015
  31.9970063  33.0317162  88.1984564  29.6466543  26.4772666  85.5699206
  28.7851022  26.7753920  85.8615943  29.6728978  26.6943065  84.6380238
  26.4628113  35.0214857  81.9773012  26.9266458  35.3002560  81.1877634
  26.1984911  34.1198302  81.7946102  23.3552194  34.5686339  84.9152775
  23.9253551  34.9973607  84.2770259  23.9460306  34.2868923  85.6136960
  25.3996999  31.1438009  78.7862577  26.1021042  31.5959053  79.2536503
  25.0677627  30.5021828  79.4142470  23.8477360  29.7349766  93.1613786
  23.2176021  30.4166047  93.3949183  23.7413448  29.6232848  92.2166924
  19.1422333  29.4021562  84.0879710  18.3521387  29.6579091  83.6119821
  19.6333580  30.2169900  84.1931751  33.1586142  36.7426801  86.8384991
  33.9803586  36.3406989  86.5567673  33.1548545  36.6395035  87.7901107
  21.0937078  29.7666141  81.0463187  20.2968241  29.8784836  81.5646683
  20.8662670  30.1052794  80.1804077  26.9242746  36.2910845  88.9945702
  26.9887178  36.7531252  89.8303873  26.2153670  35.6608209  89.1228011
  17.4260036  29.6552053  86.5194701  17.6768074  30.5399062  86.7852277
  17.9619584  29.4756654  85.7469793  41.2492135  33.0865550  83.1869963
  40.4955844  32.5172948  83.0313967  41.3839677  33.0528214  84.1340597
  26.6390763  37.9578952  78.8624682  26.5036438  38.8030488  79.2909530
  27.1800576  38.1598230  78.0990616  23.1258103  24.0370532  95.5239037
  22.7325049  23.4836730  96.1986681  23.9424243  24.3481110  95.9145555
  20.0920161  35.4754390  79.4352607  20.6044681  36.2697640  79.5858172
  20.7442874  34.7780681  79.3686208  21.9015045  38.5920146  81.5175360
  22.0781674  39.5138111  81.3296344  22.6971879  38.2778566  81.9469740
  26.0426064  25.4528411  93.1159294  26.7835777  26.0535564  93.0363756
  26.2743987  24.7106049  92.5577336  21.1867402  30.6384778  91.3937523
  21.0720917  29.7370035  91.6944622  20.3311920  30.8848475  91.0422340
  28.2659240  38.5802519  92.9925024  27.8223094  37.7938897  92.6745928
  28.9276453  38.7681669  92.3268915  23.0246361  40.1098320  87.5185702
  23.5753786  39.9815384  86.7462696  22.1857837  40.4093209  87.1680595
  30.3640478  38.8605318  91.0206425  30.3458953  39.6814200  90.5286694
  31.2860398  38.7359394  91.2456566  26.8213532  36.3749448  91.8629934
  27.3541869  35.6137736  91.6329242  26.2927613  36.0823100  92.6054088
  29.9883227  21.4809514  87.3923575  29.6447496  22.3711156  87.3162686
  30.3562190  21.2911172  86.5293160  18.0569078  33.8043044  80.2112177
  18.8944300  34.2140053  79.9945885  18.2347345  32.8642487  80.1812371
  29.9533510  31.4718125  75.8996010  29.4380133  32.2422730  76.1384398
  29.6810818  30.7983261  76.5229072  27.5380621  26.3167826  80.9581249
  26.6822217  25.9274676  80.7786888  27.9507572  26.3959787  80.0981034
  29.0679767  23.8514169  85.3572809  28.5644563  23.8144304  84.5440614
  29.3610374  24.7606912  85.4169465  25.3122653  23.9352899  84.3638990
  26.1775650  23.7395707  84.0044880  25.3800162  23.7063251  85.2908347
  34.9267784  34.2250480  77.8349184  34.1497227  33.8861639  77.3904346
  35.6059265  34.2303103  77.1604149  29.7419813  29.3445217  77.7255792
  29.4369948  29.6591366  78.5765935  30.6950255  29.4226637  77.7683125
  28.1866245  35.5035440  79.3748746  27.6587606  34.7688200  79.0621983
  27.6853747  36.2810117  79.1288714  33.1659091  33.6984461  84.4915792
  32.5082765  34.3883722  84.5795921  33.9699490  34.0880893  84.8349778
  22.9184972  26.1655107  81.7355357  23.4928724  25.9430288  81.0028550
  23.5055955  26.2343801  82.4883958  31.9764549  32.0528834  82.5419734
  32.4896431  32.6858825  83.0441443  32.6265773  31.4530029  82.1763094
  23.2454559  28.1959568  75.7551242  22.4091872  28.5334254  76.0760517
  23.1059329  28.0608548  74.8178379  25.2207640  23.0396356  80.4630427
  24.5672052  22.7245373  79.8387041  25.1788114  22.4172096  81.1890249
  26.3318845  33.3215651  72.3783719  25.4245907  33.0904904  72.5774868
  26.8289877  32.5253270  72.5657700  29.2386924  42.0313158  75.2980405
  28.5648622  42.3344855  75.9065363  29.6252746  42.8342238  74.9485862
  28.4545380  29.5278289  84.7878074  27.5367942  29.7493236  84.6299762
  28.8705524  29.6024600  83.9289782  29.2380428  30.9269705  79.9180754
  29.9852247  31.4391102  79.6087876  29.5072018  30.6053758  80.7785148
  27.5107078  33.4228246  76.9007709  26.6018298  33.1387278  76.9980178
  27.5402162  33.8427324  76.0411016  32.7426346  37.0334835  80.6698876
  32.2888673  36.1925745  80.7264067  32.1120312  37.6696233  81.0073656
  31.6859265  27.9626821  81.8999544  30.9482022  27.4504207  82.2309786
  31.9386039  27.5227203  81.0882821  31.1859285  38.8711332  81.6048694
  31.4782259  39.4316389  80.8861060  31.6957905  39.1639893  82.3601854
  31.7870893  20.7403073  82.4941313  32.0929769  19.8800437  82.2067228
  32.5123497  21.3320693  82.2940307  18.0795249  31.1433760  80.8822911
  17.8819648  30.5503120  80.1573978  17.5241913  30.8385970  81.5998850
  26.0591972  31.0356866  83.0017504  26.1140582  30.0830703  82.9259981
  25.2483174  31.1916305  83.4858803  27.2083166  34.9636989  74.2395787
  26.7702596  34.2472848  73.7801425  27.9493607  35.1913104  73.6780879
  23.9984332  29.6533926  80.7607883  23.1852198  29.9528096  81.1673075
  24.4943326  29.2589615  81.4782365  26.1492910  39.6491683  82.6942148
  26.1069089  39.8752529  81.7650680  27.0655609  39.4155057  82.8427949
  29.5958544  30.1175750  89.5922777  29.9507932  30.3447224  90.4517243
  30.2430675  30.4494127  88.9700032  35.3256281  33.2394186  80.2972106
  35.1874179  33.4295782  79.3693295  34.9692500  34.0013569  80.7540157
  23.4898407  27.2252281  86.3769118  24.1297786  27.0841041  85.6792081
  22.6575938  26.9386795  86.0007720  35.3525660  35.3070713  85.3083377
  35.7862167  35.2146002  86.1566431  36.0657241  35.2828214  84.6703393
  24.2658711  36.5254712  82.4904110  25.0599309  36.0305032  82.2886685
  23.5550403  35.9972575  82.1271816  29.0853555  38.9072807  86.8416478
  29.1390578  39.4763744  87.6094194  28.2168337  39.0774692  86.4770515
  20.5741474  30.6697794  78.5663863  19.6439062  30.6082249  78.7833825
  20.6698946  30.1473746  77.7700504  20.4927023  27.1952606  81.1542105
  20.7533841  28.1097940  81.0451265  21.3144196  26.7277049  81.3038718
  21.9651949  28.6090364  88.3240929  22.6375002  28.4007726  87.6753578
  21.1381735  28.4112450  87.8846162  36.2141210  35.3494414  87.8416263
  36.4077100  36.2540224  88.0875538  36.1141828  34.8901833  88.6754848
  27.8677521  25.2352305  90.3406590  27.2205436  25.9342254  90.2471067
  28.6378536  25.6688448  90.7082838  31.2756319  35.5001157  93.4157143
  31.1241825  35.2711708  92.4987227  31.2660998  36.4571758  93.4288488
  28.0441655  33.0733069  88.4003410  28.9733715  33.2244229  88.2272377
  27.6232685  33.1617090  87.5452056  26.8429987  37.0983734  86.1701947
  26.7041073  36.7302518  87.0427886  26.0544583  37.6131373  85.9985905
  28.3935202  36.4765337  83.5590785  28.0585035  36.4366107  84.4548435
  27.8939148  35.8110052  83.0861195  22.3679446  31.8832967  89.0843366
  22.2299244  31.1513205  89.6854905  23.2784369  31.7941867  88.8027554
  31.3294394  33.8221371  73.8327845  30.7123564  33.0968199  73.7360898
  30.8610882  34.5830731  73.4894919  24.9961747  31.5952926  88.5727046
  25.7061365  30.9546118  88.5313664  24.9531055  31.8465821  89.4953227
  32.9848525  38.5320279  91.4933625  32.9261072  37.8479499  90.8264208
  33.3868044  39.2739269  91.0414251  23.7090681  28.5818144  90.3922686
  23.1728038  28.1308882  91.0444282  23.1207389  28.7164053  89.6493150
  22.0039224  45.3482193  84.2867344  22.2435822  45.9800717  84.9646363
  21.1608421  44.9970233  84.5732703  23.1192940  28.0406795  72.9549149
  22.2422406  27.9195596  72.5911396  23.5950693  27.2492874  72.7028038
  32.9865933  36.4959863  89.7247605  32.0992711  36.1585785  89.8474004
  33.5564484  35.7642894  89.9616370  14.6395080  32.8283955  83.0490656
  15.3266120  32.5145685  82.4611672  14.4843208  33.7325320  82.7757908
  19.4429802  27.7174151  87.4775680  19.3587991  27.1099821  86.7426090
  18.6212508  28.2083170  87.4785176  26.5167086  41.1561316  86.6908848
  26.4437257  41.9616287  87.2028153  26.0744479  41.3553281  85.8656870
  26.3056866  40.3933086  80.2011670  25.5224388  40.9354766  80.2949894
  27.0049611  40.9107065  80.6005911  29.6153516  26.2027715  82.8445875
  30.1122215  25.4497677  82.5246945  28.8440497  26.2392032  82.2789084
  37.4683273  31.9068081  84.4864167  37.4573149  32.7892796  84.1158100
  36.6000653  31.5539631  84.2918704  28.9765770  41.0548150  88.8467007
  29.6893742  41.6895614  88.7742908  28.4855798  41.1512016  88.0307009
  30.6983296  34.9599402  80.4184298  29.7639575  35.0800865  80.2489003
  30.8759965  34.0571869  80.1544308  26.1988484  28.3445098  82.5717560
  25.8286272  27.7916138  83.2598465  26.6947577  27.7403231  82.0192560
  34.0855848  30.8016722  80.9534333  34.5516300  31.6344713  80.8794635
  34.5363348  30.3361703  81.6579591  24.0277683  38.8042593  89.6672578
  24.7287143  39.4379076  89.8201972  23.5572798  39.1457325  88.9068217
  32.1532079  37.1460543  77.9520485  32.4291923  37.0317137  78.8614359
  31.2836578  36.7478028  77.9132658  32.0572511  23.1697309  84.9925234
  31.1435590  23.4001535  85.1607441  32.4865612  23.2535753  85.8439266
  31.8278969  31.3587200  87.4925128  31.1750419  31.6063108  86.8377581
  32.2059349  30.5451339  87.1587605  29.1228308  40.3215079  78.8568347
  29.6516075  39.8107533  78.2438509  29.3856528  40.0057609  79.7213880
  27.8766542  32.1007012  93.9791165  27.2007179  32.0001141  94.6493540
  28.6994176  31.9446225  94.4427162  19.6245401  38.3378948  86.6003680
  20.2098838  37.5922636  86.7331585  19.4270240  38.6482905  87.4840344
  22.4784056  41.3730195  81.6166123  21.8094432  41.8576323  81.1330163
  22.3396926  41.6199416  82.5309501  14.2163056  30.9084548  85.3208123
  14.2547155  30.3748139  86.1145242  13.7103349  30.3819754  84.7019101
  26.6189325  43.4073939  88.2148781  27.1707633  43.5705560  88.9797866
  26.9595518  43.9978377  87.5428806  21.5953818  25.7549089  88.8170666
  21.6595145  26.6163920  88.4048063  21.5320938  25.1423090  88.0843024
  21.0706091  27.8272221  92.4643700  21.6978129  27.4449299  93.0781224
  20.2134010  27.6086423  92.8299393  31.4700199  38.2335197  94.0697435
  32.0140103  38.8465155  93.5752390  30.8887044  38.7914775  94.5864448
  17.8471633  29.6348650  78.3962055  18.1425075  28.7259329  78.3429109
  16.9459669  29.6136390  78.0743057  29.7557712  41.3555915  85.2012463
  29.6308852  40.5545654  84.6923409  30.4136803  41.8502108  84.7126433
  21.3765880  27.7104647  84.3789603  20.6552466  28.3240615  84.2397077
  22.1659136  28.2462412  84.3006249  31.8192621  39.1564935  86.8292013
  30.8722956  39.0370286  86.7570340  32.1675394  38.2687433  86.9118275
  24.1792194  25.0459074  90.6530255  24.7026596  25.2921370  91.4156565
  23.9604527  25.8779108  90.2333393  19.5759475  27.3162748  78.5201380
  19.2472181  26.4360127  78.3376486  19.9298846  27.2610417  79.4077769
  28.8239054  38.9517651  83.0296366  28.6764016  38.0234358  83.2103936
  29.6492547  38.9737742  82.5453441  22.6901298  27.6035718  78.8876858
  23.0297371  28.1321639  78.1655466  23.1373419  27.9416124  79.6635424
  32.4273176  39.7746210  84.1161238  33.3519723  39.5689071  83.9785689
  32.2588479  39.5262611  85.0250580  25.3844739  25.9872769  88.3379926
  25.0441559  25.1880582  88.7400606  24.6783745  26.2874479  87.7656759
  26.0361211  23.0722081  86.7907249  26.8587280  22.5982559  86.6686139
  26.2799274  23.8512565  87.2905935  24.6769445  26.1010339  77.0870150
  25.3977808  26.4791592  76.5833867  24.0534749  26.8199216  77.1905128
  28.8200568  26.8055488  78.0228483  29.0364183  27.6880126  77.7217311
  28.3394635  26.4141702  77.2934125  23.5599790  29.7641202  84.5999227
  23.4144370  30.0781505  85.4923509  23.0824993  30.3826102  84.0470126
  25.4196172  26.7543750  84.6480117  25.4057741  25.8584843  84.3112415
  26.1368601  26.7614413  85.2818403  27.2722303  27.1881090  86.6933244
  27.0140081  28.1098161  86.6917575  26.7407344  26.7911524  87.3833708
  32.2168492  40.2931877  79.4723330  32.3905369  39.7278299  78.7197182
  32.7097383  41.0932772  79.2902820  18.0345452  32.3046546  87.5386889
  17.4898920  33.0806354  87.6707163  18.9124802  32.6517351  87.3806010
  24.8233068  25.6358130  79.9167687  24.9448980  24.7074776  80.1158575
  24.5335111  25.6496816  79.0046002  27.6924259  23.3213040  83.0534407
  27.7145956  23.3852373  82.0986386  28.1092318  22.4817549  83.2474913
  33.2043664  39.6098641  76.5720228  33.8994569  40.2305334  76.7907543
  33.5466815  38.7593993  76.8472606  18.8211474  31.4316442  90.4317045
  18.0793210  31.5799078  91.0181676  18.5004218  31.6924708  89.5683795
  35.1035088  37.0598347  78.1007559  35.6286412  37.3985620  77.3756879
  35.0157440  36.1245362  77.9170693  26.7655136  40.9732421  90.2297435
  27.0742263  40.7281567  91.1020135  27.5630618  41.1779059  89.7416306
  19.2668087  39.3181871  82.4627440  20.0926107  39.0185643  82.0826084
  18.9162139  38.5489494  82.9117229  24.2349620  38.6708339  84.5325114
  23.6129630  38.0079044  84.2327342  24.9054487  38.6969471  83.8498761
  17.4676692  37.2368198  83.4216374  16.6308601  36.8090372  83.2400375
  17.4400338  37.4300641  84.3587165  24.3074148  27.1490127  94.1257620
  24.3562303  28.0252250  93.7435389  24.8496662  26.6067520  93.5529263
  34.7928994  37.6931251  93.4058757  34.0024537  37.6755389  92.8663256
  34.5562348  38.2319544  94.1607793  34.9126869  34.5423717  90.7191485
  34.9624874  34.3773724  91.6607008  34.8040792  33.6750976  90.3289366
  23.7963127  37.2212263  78.0083574  23.9451248  37.9047727  77.3550247
  24.6029571  37.2017353  78.5233030  32.2030631  30.5254645  92.0350792
  33.1040494  30.3861110  91.7434790  32.2778606  30.6909100  92.9748969
  26.5373436  27.9021500  90.8803978  25.6676746  28.1955066  90.6086567
  26.7732917  28.4861945  91.6011242  36.4145065  36.9620658  90.9633507
  36.1229874  37.3250639  91.7996968  35.8017197  36.2487667  90.7846839
  37.6140748  34.5273538  83.4836077  38.4487639  34.9663342  83.6473637
  37.7499877  34.0512191  82.6644323  34.6632254  32.0853273  89.4313565
  35.1386375  32.2780919  88.6232416  33.7397819  32.1412459  89.1856948
  21.5515760  33.2477440  79.0144643  21.3061802  32.3439770  79.2124853
  21.7211675  33.2494591  78.0724121  29.2412470  24.1201117  88.3969399
  29.7594414  24.8562144  88.0715887  28.8867603  24.4265110  89.2316158
  20.8211408  28.9805798  76.5130805  20.1280653  29.0550153  75.8570841
  20.5763160  28.2166141  77.0352321  29.4925064  20.5401399  83.9170295
  29.7726818  19.8724588  84.5430722  30.2775671  20.7330495  83.4044959
  27.2958533  39.7160393  75.4795322  26.7232500  40.3350580  75.0265793
  27.8691327  40.2659755  76.0135244  33.3633923  28.9619033  87.6641870
  34.3151346  29.0617131  87.6854094  33.1937373  28.1697302  88.1739955
  31.3848302  26.0474616  87.8501271  30.7898234  26.3279629  87.1547760
  31.0997999  26.5368517  88.6218012  30.5155793  39.9997543  76.6103904
  31.4486466  39.9343105  76.8136779  30.4279005  40.8353810  76.1518437
  33.1443809  39.3163414  73.5707851  33.0657441  38.9823277  74.4643609
  33.9653476  39.8085181  73.5699324  35.8422001  32.1825153  86.7784170
  35.8098321  31.2441154  86.9643854  36.4522624  32.2609190  86.0449995
  27.6805331  31.0521206  72.8211374  28.6264436  30.9227414  72.8899792
  27.3019576  30.3135868  73.2980802  35.9916489  28.9736196  86.8242453
  35.4755538  28.1894653  86.6372382  36.8756438  28.6454913  86.9888973
  33.6527216  22.7177212  82.7838266  33.4552037  22.4092300  83.6681598
  34.2626922  23.4438851  82.9136196  41.6598550  33.2441160  85.9190207
  42.3901939  32.9826448  86.4797910  41.0505496  32.5069882  85.9592275
  39.7413847  31.3849022  86.5164658  39.0147011  31.2504987  85.9081150
  39.3261134  31.6925851  87.3221376  27.5644024  35.1038952  94.2812031
  28.4847033  35.2817551  94.4752078  27.5293607  34.1594997  94.1291730
  25.8648249  28.9771182  72.7566259  24.9579704  28.6804295  72.8328973
  26.1424230  28.6801000  71.8900546  16.7826189  30.2977546  83.2065306
  16.4628973  29.4442854  82.9139680  16.2359617  30.5126124  83.9623273
  20.5606096  33.0139987  86.9234812  20.7792106  33.9457094  86.9422846
  20.9731870  32.6547961  87.7089616  27.4810314  23.5208072  78.9110501
  26.6711043  23.1755157  79.2865747  28.1694731  23.2115616  79.4998112
  29.4100863  22.5986119  80.5334797  29.9631901  23.0181572  81.1924820
  29.6470949  21.6721867  80.5757753  25.4333962  28.5873192  96.3137561
  25.3330689  29.5367549  96.2449652  25.2155504  28.2591431  95.4413631
  24.6347033  25.8358117  72.8978239  25.4966197  26.1613016  73.1574056
  24.8197377  25.0489613  72.3851304  16.6514449  33.9180457  85.1758427
  15.9577920  33.5034410  84.6628382  17.3987440  33.9600994  84.5791846
  32.7879670  24.7086644  80.0413462  32.2078339  25.3671448  79.6591514
  32.5215602  23.8863989  79.6300879  31.2383236  24.1091702  82.2434782
  31.7383014  24.2208236  81.4349101  31.8818844  23.8052754  82.8835590
  25.2965232  32.0170331  95.1302623  24.8132314  32.8170691  95.3366512
  25.3826171  32.0278276  94.1770067  18.5651191  33.8498711  83.0524442
  18.5421880  33.9486398  82.1006325  18.8751828  34.6963862  83.3741608
  21.2238569  35.9074866  87.1671057  22.1781823  35.8758808  87.1000988
  21.0251093  35.4465490  87.9821283  21.8137951  34.4775982  89.7341854
  22.6330840  34.9720061  89.7576692  22.0874759  33.5607950  89.7059422
  31.5704548  26.8686734  79.0969810  30.6830403  27.1536385  78.8790005
  31.9858537  26.7080498  78.2497087  34.9219084  26.8933255  82.8124149
  35.6979474  27.3829708  83.0848766  34.1967218  27.3191309  83.2696019
  37.3591642  27.6060874  83.8698090  37.9536133  27.3656610  83.1591398
  37.4318226  26.8868005  84.4971626  19.5788798  41.4494485  84.1841254
  19.4443266  40.6894886  83.6179253  19.1620860  42.1735385  83.7170043
  30.7147761  36.6331409  73.1917830  31.4183611  36.8381411  73.8075485
  29.9910410  37.2008171  73.4566913  31.5445571  32.3841270  79.3120100
  31.4880773  32.8409822  78.4727732  32.0973914  31.6231955  79.1342943
  35.3550377  28.1731002  80.1370219  35.0987312  27.7727638  80.9678427
  34.7303245  28.8874796  80.0120359  39.6662715  30.9127075  82.6441511
  39.1062273  30.9820265  83.4173073  39.0606219  30.7368060  81.9241007
  22.7357924  42.3463802  84.3959697  22.6190308  43.2909235  84.2938387
  21.9150370  42.0437364  84.7845496  32.6234459  37.0713938  75.2416290
  33.4580062  36.6395137  75.0593765  32.4618801  36.8995952  76.1693184
  32.2780351  33.5746051  76.6072629  32.2229155  33.4090323  75.6661073
  31.6526406  34.2822084  76.7634819  17.0672866  28.8114116  90.4334051
  17.7131729  28.3013070  90.9221277  16.8590017  29.5482797  91.0077477
  29.5926258  35.8794963  95.9326192  30.4617418  36.0535616  95.5712827
  29.1133009  36.6989380  95.8101921  25.5876476  23.0754160  76.1857948
  25.5755146  24.0196000  76.3426218  26.4799898  22.8924306  75.8917409
  23.7612438  42.9992064  87.6115626  24.6639685  43.0315675  87.9282121
  23.5349808  42.0692515  87.6261961  25.5166040  41.7523051  84.2725704
  24.5661671  41.7524912  84.1590076  25.8198526  41.0055785  83.7561739
  29.4028596  19.6696937  80.4403884  28.6360991  19.1155424  80.5860567
  29.8139301  19.7418806  81.3018036  21.4070357  25.9581733  94.5309066
  22.2701818  25.6018538  94.7412390  20.8335767  25.6195628  95.2184470
  38.5428223  48.6945869  91.2319197  38.5316864  48.2998667  90.3599700
  38.7048862  47.9611942  91.8252968  43.7293850  38.9631850  87.7752262
  43.3977174  39.8327261  87.5513477  43.1339463  38.6468134  88.4546292
  37.4650036  42.7027418  75.5082344  37.6324438  43.5707654  75.8752815
  37.2747205  42.8654699  74.5843633  37.6963379  45.1016582  92.7980509
  36.9196713  45.6610502  92.7883374  38.3353942  45.5873365  93.3195379
  45.4884159  41.8843375  86.6323486  44.8458540  42.1775908  85.9863280
  44.9839088  41.7696295  87.4376682  35.9509751  47.9102036  92.3598476
  36.6924435  48.4487080  92.0833300  35.2446736  48.5368324  92.5170028
  37.7796161  44.9903783  88.3304194  38.6257356  45.4143196  88.4738843
  37.7194798  44.3337407  89.0242758  40.9295606  42.6508151  89.9885368
  40.6856538  43.4050212  89.4519644  41.2055537  43.0293499  90.8232615
  40.4860298  41.8064584  85.5699206  39.6244777  42.1045838  85.8615943
  40.5122732  42.0234983  84.6380238  34.6871115  45.0641684  93.1613786
  34.0569775  45.7457965  93.3949183  34.5807203  44.9524765  92.2166924
  28.2653790  44.9843970  86.5194701  28.5161829  45.8690980  86.7852277
  28.8013339  44.8048572  85.7469793  33.9651857  39.3662450  95.5239037
  33.5718803  38.8128648  96.1986681  34.7817998  39.6773028  95.9145555
  36.8819818  40.7820329  93.1159294  37.6229532  41.3827482  93.0363756
  37.1137741  40.0397966  92.5577336  32.0261156  45.9676696  91.3937523
  31.9114672  45.0661953  91.6944622  31.1705674  46.2140393  91.0422340
  37.6607286  51.7041366  91.8629934  38.1935623  50.9429654  91.6329242
  37.1321368  51.4115017  92.6054088  40.8276981  36.8101432  87.3923575
  40.4841251  37.7003073  87.3162686  41.1955944  36.6203089  86.5293160
  38.3774375  41.6459743  80.9581249  37.5215971  41.2566594  80.7786888
  38.7901327  41.7251704  80.0981034  39.9073522  39.1806087  85.3572809
  39.4038317  39.1436222  84.5440614  40.2004129  40.0898829  85.4169465
  36.1516408  39.2644816  84.3638990  37.0169404  39.0687625  84.0044880
  36.2193917  39.0355168  85.2908347  36.0601394  38.3688273  80.4630427
  35.4065807  38.0537290  79.8387041  36.0181869  37.7464014  81.1890249
  39.2939135  44.8570207  84.7878074  38.3761696  45.0785154  84.6299762
  39.7099278  44.9316517  83.9289782  42.5253020  43.2918739  81.8999544
  41.7875777  42.7796125  82.2309786  42.7779793  42.8519120  81.0882821
  32.8045703  43.9382281  88.3240929  33.4768757  43.7299643  87.6753578
  31.9775490  43.7404367  87.8846162  38.7071275  40.5644222  90.3406590
  38.0599190  41.2634172  90.2471067  39.4772291  40.9980366  90.7082838
  33.2073200  47.2124884  89.0843366  33.0692998  46.4805123  89.6854905
  34.1178124  47.1233784  88.8027554  35.8355501  46.9244844  88.5727046
  36.5455120  46.2838036  88.5313664  35.7924809  47.1757738  89.4953227
  34.5484435  43.9110061  90.3922686  34.0121792  43.4600800  91.0444282
  33.9601144  44.0455970  89.6493150  30.2823556  43.0466069  87.4775680
  30.1981745  42.4391739  86.7426090  29.4606263  43.5375087  87.4785176
  40.4547270  41.5319633  82.8445875  40.9515970  40.7789595  82.5246945
  39.6834252  41.5683949  82.2789084  38.7160297  47.4298929  93.9791165
  38.0400934  47.3293059  94.6493540  39.5387930  47.2738143  94.4427162
  25.0556810  46.2376466  85.3208123  25.0940910  45.7040057  86.1145242
  24.5497103  45.7111671  84.7019101  32.4347573  41.0841006  88.8170666
  32.4988899  41.9455837  88.4048063  32.3714693  40.4715008  88.0843024
  31.9099845  43.1564139  92.4643700  32.5371884  42.7741216  93.0781224
  31.0527764  42.9378341  92.8299393  35.0185948  40.3750991  90.6530255
  35.5420350  40.6213288  91.4156565  34.7998282  41.2071026  90.2333393
  36.2238494  41.3164686  88.3379926  35.8835314  40.5172499  88.7400606
  35.5177500  41.6166397  87.7656759  36.8754965  38.4013999  86.7907249
  37.6981035  37.9274477  86.6686139  37.1193029  39.1804482  87.2905935
  35.5163200  41.4302257  77.0870150  36.2371562  41.8083510  76.5833867
  34.8928504  42.1491134  77.1905128  38.1116058  42.5173008  86.6933244
  37.8533836  43.4390078  86.6917575  37.5801098  42.1203442  87.3833708
  35.6626823  40.9650048  79.9167687  35.7842734  40.0366694  80.1158575
  35.3728865  40.9788734  79.0046002  38.5318013  38.6504958  83.0534407
  38.5539710  38.7144291  82.0986386  38.9486072  37.8109467  83.2474913
  29.6605228  46.7608360  90.4317045  28.9186964  46.9090995  91.0181676
  29.3397972  47.0216626  89.5683795  35.1467902  42.4782045  94.1257620
  35.1956058  43.3544168  93.7435389  35.6890417  41.9359438  93.5529263
  37.3767191  43.2313417  90.8803978  36.5070500  43.5246983  90.6086567
  37.6126671  43.8153862  91.6011242  40.0806225  39.4493034  88.3969399
  40.5988169  40.1854061  88.0715887  39.7261357  39.7557028  89.2316158
  40.3318819  35.8693317  83.9170295  40.6120573  35.2016506  84.5430722
  41.1169426  36.0622412  83.4044959  42.2242057  41.3766534  87.8501271
  41.6291989  41.6571547  87.1547760  41.9391753  41.8660435  88.6218012
  38.4037778  50.4330870  94.2812031  39.3240788  50.6109469  94.4752078
  38.3687361  49.4886915  94.1291730  36.7042003  44.3063100  72.7566259
  35.7973458  44.0096213  72.8328973  36.9817984  44.0092918  71.8900546
  38.3204069  38.8499990  78.9110501  37.5104797  38.5047075  79.2865747
  39.0088486  38.5407533  79.4998112  40.2494617  37.9278036  80.5334797
  40.8025656  38.3473490  81.1924820  40.4864703  37.0013785  80.5757753
  36.2727716  43.9165110  96.3137561  36.1724443  44.8659467  96.2449652
  36.0549258  43.5883349  95.4413631  35.4740788  41.1650035  72.8978239
  36.3359952  41.4904933  73.1574056  35.6591132  40.3781531  72.3851304
  36.1358986  47.3462249  95.1302623  35.6526068  48.1462609  95.3366512
  36.2219925  47.3570194  94.1770067  32.6531706  49.8067900  89.7341854
  33.4724595  50.3011978  89.7576692  32.9268514  48.8899868  89.7059422
  42.4098302  42.1978652  79.0969810  41.5224157  42.4828303  78.8790005
  42.8252291  42.0372415  78.2497087  27.9066620  44.1406034  90.4334051
  28.5525484  43.6304988  90.9221277  27.6983771  44.8774715  91.0077477
  36.4270231  38.4046078  76.1857948  36.4148900  39.3487918  76.3426218
  37.3193653  38.2216224  75.8917409  40.2422350  34.9988855  80.4403884
  39.4754746  34.4447341  80.5860567  40.6533055  35.0710724  81.3018036
  32.2464111  41.2873651  94.5309066  33.1095573  40.9310455  94.7412390
  31.6729522  40.9487545  95.2184470  46.0439903  73.2580634  80.1419142
  45.9663933  74.2088460  80.2207623  45.4401547  72.9126507  80.7994068
  49.9446749  69.2386354  92.9925024  49.5010603  68.4522732  92.6745928
  50.6063962  69.4265504  92.3268915  44.7033870  70.7682156  87.5185702
  45.2541295  70.6399219  86.7462696  43.8645346  71.0677045  87.1680595
  52.0427987  69.5189154  91.0206425  52.0246462  70.3398035  90.5286694
  52.9647907  69.3943229  91.2456566  50.9174433  72.6896993  75.2980405
  50.2436131  72.9928690  75.9065363  51.3040255  73.4926074  74.9485862
  52.8646794  69.5295167  81.6048694  53.1569768  70.0900224  80.8861060
  53.3745414  69.8223728  82.3601854  47.8280419  70.3075518  82.6942148
  47.7856598  70.5336365  81.7650680  48.7443118  70.0738893  82.8427949
  50.7641064  69.5656643  86.8416478  50.8178087  70.1347579  87.6094194
  49.8955846  69.7358528  86.4770515  49.1165648  72.8576666  77.5127484
  49.2917404  72.3864709  78.3273107  48.4298436  73.4842432  77.7408745
  54.6636034  69.1904115  91.4933625  54.6048580  68.5063335  90.8264208
  55.0655553  69.9323105  91.0414251  43.6826733  76.0066028  84.2867344
  43.9223331  76.6384553  84.9646363  42.8395930  75.6554068  84.5732703
  48.1954595  71.8145151  86.6908848  48.1224766  72.6200122  87.2028153
  47.7531988  72.0137117  85.8656870  47.9844375  71.0516921  80.2011670
  47.2011897  71.5938601  80.2949894  48.6837120  71.5690901  80.6005911
  50.6553279  71.7131985  88.8467007  51.3681251  72.3479450  88.7742908
  50.1643307  71.8095851  88.0307009  45.7065192  69.4626428  89.6672578
  46.4074652  70.0962911  89.8201972  45.2360307  69.8041160  88.9068217
  50.8015817  70.9798914  78.8568347  51.3303584  70.4691369  78.2438509
  51.0644037  70.6641444  79.7213880  41.3032910  68.9962783  86.6003680
  41.8886347  68.2506471  86.7331585  41.1057749  69.3066740  87.4840344
  44.1571565  72.0314031  81.6166123  43.4881941  72.5160158  81.1330163
  44.0184435  72.2783251  82.5309501  48.2976834  74.0657774  88.2148781
  48.8495142  74.2289396  88.9797866  48.6383027  74.6562212  87.5428806
  53.1487708  68.8919032  94.0697435  53.6927612  69.5048990  93.5752390
  52.5674553  69.4498610  94.5864448  51.4345221  72.0139750  85.2012463
  51.3096361  71.2129490  84.6923409  52.0924312  72.5085943  84.7126433
  53.4980130  69.8148770  86.8292013  52.5510465  69.6954121  86.7570340
  53.8462903  68.9271268  86.9118275  50.5026563  69.6101486  83.0296366
  50.3551525  68.6818194  83.2103936  51.3280056  69.6321577  82.5453441
  54.1060685  70.4330045  84.1161238  55.0307232  70.2272906  83.9785689
  53.9375988  70.1846446  85.0250580  53.8956001  70.9515712  79.4723330
  54.0692878  70.3862135  78.7197182  54.3884892  71.7516607  79.2902820
  54.8831173  70.2682477  76.5720228  55.5782078  70.8889169  76.7907543
  55.2254324  69.4177828  76.8472606  48.4442645  71.6316256  90.2297435
  48.7529772  71.3865403  91.1020135  49.2418127  71.8362894  89.7416306
  48.4663257  73.7854166  82.4602812  48.0268248  73.2930544  83.1535669
  49.2171374  73.2427133  82.2194887  40.9455596  69.9765706  82.4627440
  41.7713616  69.6769478  82.0826084  40.5949648  69.2073329  82.9117229
  45.9137129  69.3292175  84.5325114  45.2917139  68.6662880  84.2327342
  46.5841996  69.3553307  83.8498761  56.4716503  68.3515086  93.4058757
  55.6812046  68.3339225  92.8663256  56.2349857  68.8903380  94.1607793
  48.9746042  70.3744228  75.4795322  48.4020009  70.9934416  75.0265793
  49.5478836  70.9243590  76.0135244  52.1943302  70.6581379  76.6103904
  53.1273975  70.5926940  76.8136779  52.1066514  71.4937645  76.1518437
  41.2576307  72.1078321  84.1841254  41.1230775  71.3478722  83.6179253
  40.8408369  72.8319221  83.7170043  44.4145433  73.0047638  84.3959697
  44.2977817  73.9493070  84.2938387  43.5937879  72.7021199  84.7845496
  51.2713767  66.5378799  95.9326192  52.1404927  66.7119451  95.5712827
  50.7920518  67.3573216  95.8101921  45.4399947  73.6575900  87.6115626
  46.3427194  73.6899510  87.9282121  45.2137317  72.7276351  87.6261961
  47.1953549  72.4106886  84.2725704  46.2449180  72.4108748  84.1590076
  47.4986035  71.6639621  83.7561739  55.5982765  80.0530329  81.2629882
  55.0347630  79.9620266  80.4946170  55.4835160  79.2330234  81.7432375
  60.2215732  79.3529704  91.2319197  60.2104373  78.9582503  90.3599700
  60.3836371  78.6195777  91.8252968  53.1447197  81.5481521  84.1014103
  53.9368488  81.2072345  83.6860402  53.3843847  81.6576496  85.0216256
  56.9422993  82.1366816  90.1798381  56.6512859  83.0412447  90.0645047
  57.5779977  82.1783344  90.8942450  57.8679200  79.5143665  86.7699740
  58.4642772  79.2899687  86.0556703  57.9254171  78.7728410  87.3725188
  62.4847511  75.9718878  82.4124675  63.2710600  75.5538302  82.0615092
  62.7486215  76.8764971  82.5806323  59.5032058  78.3321353  80.5120996
  59.1390265  77.8051974  81.2233917  60.3599174  77.9419822  80.3387481
  55.3525360  78.2742029  83.2084879  54.4275856  78.1418243  83.4162571
  55.6009773  79.0536248  83.7054821  52.7134171  77.9175302  84.0428668
  52.8426552  78.1709781  84.9568080  52.0331622  78.5103010  83.7233323
  56.8833658  88.5872552  80.1419142  56.8057688  89.5380377  80.2207623
  56.2795301  88.2418425  80.7994068  59.3750888  75.7600418  92.7980509
  58.5984222  76.3194338  92.7883374  60.0141451  76.2457201  93.3195379
  57.6297260  78.5685871  92.3598476  58.3711944  79.1070915  92.0833300
  56.9234245  79.1952160  92.5170028  59.4583670  75.6487618  88.3304194
  60.3044865  76.0727032  88.4738843  59.3982307  74.9921242  89.0242758
  58.9809376  81.0090610  81.9773012  59.4447722  81.2878313  81.1877634
  58.7166174  80.1074055  81.7946102  55.8733457  80.5562092  84.9152775
  56.4434814  80.9849360  84.2770259  56.4641569  80.2744676  85.6136960
  57.9178262  77.1313762  78.7862577  58.6202306  77.5834806  79.2536503
  57.5858891  76.4897581  79.4142470  56.3658624  75.7225519  93.1613786
  55.7357284  76.4041800  93.3949183  56.2594712  75.6108601  92.2166924
  51.6603596  75.3897315  84.0879710  50.8702650  75.6454844  83.6119821
  52.1514844  76.2045653  84.1931751  53.6118342  75.7541894  81.0463187
  52.8149505  75.8660589  81.5646683  53.3843934  76.0928547  80.1804077
  49.9441299  75.6427806  86.5194701  50.1949338  76.5274815  86.7852277
  50.4800848  75.4632407  85.7469793  55.6439366  70.0246285  95.5239037
  55.2506312  69.4712483  96.1986681  56.4605507  70.3356863  95.9145555
  52.6101424  81.4630143  79.4352607  53.1225945  82.2573393  79.5858172
  53.2624137  80.7656434  79.3686208  54.4196309  84.5795899  81.5175360
  54.5962937  85.5013864  81.3296344  55.2153142  84.2654319  81.9469740
  53.7048665  76.6260531  91.3937523  53.5902181  75.7245789  91.6944622
  52.8493183  76.8724228  91.0422340  60.7840503  84.5678272  92.9925024
  60.3404357  83.7814650  92.6745928  61.4457717  84.7557422  92.3268915
  55.5427624  86.0974073  87.5185702  56.0935049  85.9691137  86.7462696
  54.7039100  86.3968962  87.1680595  62.8821741  84.8481072  91.0206425
  62.8640217  85.6689953  90.5286694  63.8041661  84.7235147  91.2456566
  59.3394795  82.3625201  91.8629934  59.8723132  81.6013489  91.6329242
  58.8108877  82.0698853  92.6054088  50.5750341  79.7918797  80.2112177
  51.4125563  80.2015806  79.9945885  50.7528609  78.8518240  80.1812371
  60.0561884  72.3043579  80.9581249  59.2003480  71.9150429  80.7786888
  60.4688836  72.3835540  80.0981034  55.4366236  72.1530860  81.7355357
  56.0109988  71.9306041  81.0028550  56.0237218  72.2219554  82.4883958
  55.7635823  74.1835321  75.7551242  54.9273135  74.5210007  76.0760517
  55.6240592  74.0484301  74.8178379  57.7388903  69.0272109  80.4630427
  57.0853316  68.7121126  79.8387041  57.6969378  68.4047849  81.1890249
  50.5976512  77.1309513  80.8822911  50.4000912  76.5378873  80.1573978
  50.0423176  76.8261723  81.5998850  58.5773236  77.0232619  83.0017504
  58.6321846  76.0706456  82.9259981  57.7664438  77.1792058  83.4858803
  56.5165596  75.6409679  80.7607883  55.7033461  75.9403850  81.1673075
  57.0124590  75.2465368  81.4782365  58.6674174  85.6367436  82.6942148
  58.6250352  85.8628282  81.7650680  59.5836872  85.4030810  82.8427949
  56.0079670  73.2128034  86.3769118  56.6479050  73.0716794  85.6792081
  55.1757201  72.9262548  86.0007720  56.7839974  82.5130465  82.4904110
  57.5780573  82.0180785  82.2886685  56.0731667  81.9848328  82.1271816
  61.6034819  84.8948560  86.8416478  61.6571841  85.4639497  87.6094194
  60.7349600  85.0650445  86.4770515  53.0922738  76.6573547  78.5663863
  52.1620326  76.5958002  78.7833825  53.1880210  76.1349499  77.7700504
  53.0108287  73.1828359  81.1542105  53.2715104  74.0973693  81.0451265
  53.8325459  72.7152802  81.3038718  54.4833212  74.5966117  88.3240929
  55.1556266  74.3883479  87.6753578  53.6562999  74.3988203  87.8846162
  63.7937582  81.4876910  93.4157143  63.6423089  81.2587461  92.4987227
  63.7842262  82.4447511  93.4288488  59.3611250  83.0859487  86.1701947
  59.2222336  82.7178271  87.0427886  58.5725847  83.6007126  85.9985905
  54.8860709  77.8708720  89.0843366  54.7480507  77.1388958  89.6854905
  55.7965633  77.7817620  88.8027554  57.5143010  77.5828679  88.5727046
  58.2242629  76.9421871  88.5313664  57.4712318  77.8341574  89.4953227
  65.5029789  84.5196032  91.4933625  65.4442335  83.8355252  90.8264208
  65.9049307  85.2615022  91.0414251  56.2271944  74.5693897  90.3922686
  55.6909301  74.1184635  91.0444282  55.6388653  74.7039806  89.6493150
  54.5220488  91.3357946  84.2867344  54.7617086  91.9676470  84.9646363
  53.6789684  90.9845986  84.5732703  55.6374203  74.0282548  72.9549149
  54.7603669  73.9071349  72.5911396  56.1131956  73.2368627  72.7028038
  47.1576343  78.8159708  83.0490656  47.8447383  78.5021438  82.4611672
  47.0024472  79.7201073  82.7757908  51.9611065  73.7049905  87.4775680
  51.8769254  73.0975574  86.7426090  51.1393772  74.1958923  87.4785176
  59.0348349  87.1437069  86.6908848  58.9618521  87.9492040  87.2028153
  58.5925743  87.3429034  85.8656870  62.1334779  72.1903468  82.8445875
  62.6303479  71.4373430  82.5246945  61.3621761  72.2267785  82.2789084
  58.7169748  74.3320851  82.5717560  58.3467535  73.7791891  83.2598465
  59.2128840  73.7278985  82.0192560  56.5458947  84.7918346  89.6672578
  57.2468406  85.4254829  89.8201972  56.0754062  85.1333078  88.9068217
  60.3947806  78.0882765  93.9791165  59.7188443  77.9876894  94.6493540
  61.2175439  77.9321978  94.4427162  52.1426665  84.3254701  86.6003680
  52.7280101  83.5798389  86.7331585  51.9451503  84.6358658  87.4840344
  54.9965320  87.3605949  81.6166123  54.3275695  87.8452076  81.1330163
  54.8578190  87.6075169  82.5309501  46.7344319  76.8960301  85.3208123
  46.7728419  76.3623892  86.1145242  46.2284612  76.3695507  84.7019101
  59.1370588  89.3949692  88.2148781  59.6888896  89.5581314  88.9797866
  59.4776782  89.9854130  87.5428806  54.1135082  71.7424842  88.8170666
  54.1776408  72.6039673  88.4048063  54.0502202  71.1298843  88.0843024
  53.5887354  73.8147974  92.4643700  54.2159393  73.4325052  93.0781224
  52.7315273  73.5962176  92.8299393  63.9881463  84.2210950  94.0697435
  64.5321367  84.8340908  93.5752390  63.4068308  84.7790528  94.5864448
  50.3652897  75.6224403  78.3962055  50.6606338  74.7135082  78.3429109
  49.4640933  75.6012143  78.0743057  62.2738976  87.3431668  85.2012463
  62.1490115  86.5421407  84.6923409  62.9318067  87.8377861  84.7126433
  53.8947144  73.6980400  84.3789603  53.1733730  74.3116368  84.2397077
  54.6840400  74.2338165  84.3006249  52.0940738  73.3038501  78.5201380
  51.7653445  72.4235880  78.3376486  52.4480109  73.2486170  79.4077769
  55.2082562  73.5911471  78.8876858  55.5478634  74.1197392  78.1655466
  55.6554682  73.9291877  79.6635424  57.1950709  72.0886093  77.0870150
  57.9159071  72.4667345  76.5833867  56.5716013  72.8074969  77.1905128
  56.0781053  75.7516955  84.5999227  55.9325634  76.0657258  85.4923509
  55.6006257  76.3701855  84.0470126  57.9377436  72.7419503  84.6480117
  57.9239005  71.8460596  84.3112415  58.6549864  72.7490166  85.2818403
  50.5526715  78.2922299  87.5386889  50.0080183  79.0682107  87.6707163
  51.4306065  78.6393104  87.3806010  57.3414332  71.6233883  79.9167687
  57.4630243  70.6950529  80.1158575  57.0516374  71.6372569  79.0046002
  60.2105522  69.3088793  83.0534407  60.2327219  69.3728127  82.0986386
  60.6273581  68.4693302  83.2474913  51.3392737  77.4192195  90.4317045
  50.5974473  77.5674831  91.0181676  51.0185481  77.6800461  89.5683795
  59.2836400  86.9608174  90.2297435  59.5923526  86.7157320  91.1020135
  60.0811882  87.1654812  89.7416306  59.3057012  89.1146083  82.4602812
  58.8662002  88.6222462  83.1535669  60.0565129  88.5719051  82.2194887
  51.7849351  85.3057624  82.4627440  52.6107371  85.0061396  82.0826084
  51.4343403  84.5365247  82.9117229  56.7530884  84.6584092  84.5325114
  56.1310893  83.9954797  84.2327342  57.4235751  84.6845224  83.8498761
  49.9857956  83.2243951  83.4216374  49.1489864  82.7966125  83.2400375
  49.9581601  83.4176394  84.3587165  56.8255411  73.1365880  94.1257620
  56.8743567  74.0128003  93.7435389  57.3677926  72.5943273  93.5529263
  59.0554700  73.8897253  90.8803978  58.1858009  74.1830819  90.6086567
  59.2914180  74.4737698  91.6011242  54.0697024  79.2353193  79.0144643
  53.8243066  78.3315523  79.2124853  54.2392938  79.2370344  78.0724121
  53.3392671  74.9681551  76.5130805  52.6461916  75.0425906  75.8570841
  53.0944423  74.2041895  77.0352321  60.0825287  81.0914705  94.2812031
  61.0028297  81.2693304  94.4752078  60.0474870  80.1470750  94.1291730
  49.3007452  76.2853299  83.2065306  48.9810237  75.4318607  82.9139680
  48.7540881  76.5001877  83.9623273  53.0787360  79.0015740  86.9234812
  53.2973370  79.9332847  86.9422846  53.4913134  78.6423714  87.7089616
  57.9515225  74.5748945  96.3137561  57.8511952  75.5243302  96.2449652
  57.7336767  74.2467184  95.4413631  57.1528297  71.8233870  72.8978239
  58.0147461  72.1488769  73.1574056  57.3378641  71.0365366  72.3851304
  49.1695712  79.9056210  85.1758427  48.4759184  79.4910163  84.6628382
  49.9168703  79.9476747  84.5791846  57.8146495  78.0046084  95.1302623
  57.3313577  78.8046444  95.3366512  57.9007434  78.0154029  94.1770067
  51.0832455  79.8374464  83.0524442  51.0603143  79.9362151  82.1006325
  51.3933091  80.6839615  83.3741608  53.7419833  81.8950619  87.1671057
  54.6963086  81.8634561  87.1000988  53.5432356  81.4341243  87.9821283
  54.3319215  80.4651735  89.7341854  55.1512104  80.9595814  89.7576692
  54.6056023  79.5483703  89.7059422  52.0970062  87.4370238  84.1841254
  51.9624530  86.6770639  83.6179253  51.6802124  88.1611138  83.7170043
  55.2539187  88.3339555  84.3959697  55.1371572  89.2784988  84.2938387
  54.4331634  88.0313117  84.7845496  49.5854129  74.7989869  90.4334051
  50.2312993  74.2888823  90.9221277  49.3771280  75.5358551  91.0077477
  62.1107521  81.8670716  95.9326192  62.9798681  82.0411369  95.5712827
  61.6314273  82.6865133  95.8101921  56.2793702  88.9867817  87.6115626
  57.1820948  89.0191428  87.9282121  56.0531072  88.0568268  87.6261961
  58.0347304  87.7398804  84.2725704  57.0842935  87.7400666  84.1590076
  58.3379790  86.9931538  83.7561739  53.9251620  71.9457486  94.5309066
  54.7883082  71.5894291  94.7412390  53.3517031  71.6071381  95.2184470
  63.5527925  93.2467220  84.0428668  63.6820306  93.5001699  84.9568080
  62.8725376  93.8394928  83.7233323  67.7227412 103.9164470  80.1419142
  67.6451442 104.8672295  80.2207623  67.1189056 103.5710342  80.7994068
  67.2052378  91.0517437  93.1613786  66.5751039  91.7333718  93.3949183
  67.0988466  90.9400518  92.2166924  62.4997351  90.7189233  84.0879710
  61.7096405  90.9746761  83.6119821  62.9908598  91.5337571  84.1931751
  64.4512096  91.0833812  81.0463187  63.6543259  91.1952506  81.5646683
  64.2237688  91.4220464  80.1804077  66.4833121  85.3538203  95.5239037
  66.0900067  84.8004401  96.1986681  67.2999261  85.6648781  95.9145555
  65.2590063  99.9087817  81.5175360  65.4356692 100.8305782  81.3296344
  66.0546897  99.5946236  81.9469740  67.3559350  90.9701597  80.7607883
  66.5427216  91.2695767  81.1673075  67.8518344  90.5757285  81.4782365
  57.9970098  94.1451626  83.0490656  58.6841138  93.8313356  82.4611672
  57.8418226  95.0492990  82.7757908  65.8359074 102.6897866  81.6166123
  65.1669450 103.1743994  81.1330163  65.6971944 102.9367087  82.5309501
  57.5738074  92.2252219  85.3208123  57.6122173  91.6915810  86.1145242
  57.0678367  91.6987425  84.7019101  64.4281109  89.1439892  92.4643700
  65.0553147  88.7616969  93.0781224  63.5709028  88.9254094  92.8299393
  62.6243105 100.6349542  82.4627440  63.4501125 100.3353314  82.0826084
  62.2737157  99.8657164  82.9117229  60.8251710  98.5535868  83.4216374
  59.9883619  98.1258043  83.2400375  60.7975356  98.7468312  84.3587165
  67.6649166  88.4657798  94.1257620  67.7137321  89.3419921  93.7435389
  68.2071680  87.9235191  93.5529263  76.7208941  90.2786704  87.6641870
  77.6726364  90.3784802  87.6854094  76.5512391  89.4864972  88.1739955
  60.1401207  91.6145216  83.2065306  59.8203991  90.7610525  82.9139680
  59.5934635  91.8293794  83.9623273  63.9181114  94.3307657  86.9234812
  64.1367124  95.2624765  86.9422846  64.3306888  93.9715632  87.7089616
  60.0089467  95.2348128  85.1758427  59.3152938  94.8202081  84.6628382
  60.7562458  95.2768664  84.5791846  61.9226209  95.1666382  83.0524442
  61.8996898  95.2654069  82.1006325  62.2326846  96.0131532  83.3741608
  64.5813587  97.2242537  87.1671057  65.5356841  97.1926479  87.1000988
  64.3826111  96.7633160  87.9821283  65.1712969  95.7943653  89.7341854
  65.9905858  96.2887731  89.7576692  65.4449777  94.8775621  89.7059422
  64.7645375  87.2749404  94.5309066  65.6276836  86.9186208  94.7412390
  64.1910785  86.9363298  95.2184470  85.9839665  97.3862662  82.4941313
  86.2898542  96.5260025  82.2067228  86.7092270  97.9780282  82.2940307
  86.2541283  99.8156897  84.9925234  85.3404363 100.0461124  85.1607441
  86.6834384  99.8995341  85.8439266  90.1885261 105.6195785  86.8242453
  89.6724310 104.8354241  86.6372382  91.0725210 105.2914501  86.9888973
  87.8495988  99.3636800  82.7838266  87.6520810  99.0551888  83.6681598
  88.4595694 100.0898439  82.9136196  93.9382620 108.0308611  86.5164658
  93.2115784 107.8964576  85.9081150  93.5229907 108.3385439  87.3221376
  85.4352008 100.7551290  82.2434782  85.9351787 100.8667825  81.4349101
  86.0787616 100.4512343  82.8835590  89.1187856 103.5392844  82.8124149
  89.8948246 104.0289296  83.0848766  88.3935990 103.9650898  83.2696019
  91.5560415 104.2520463  83.8698090  92.1504906 104.0116199  83.1591398
  91.6286999 103.5327593  84.4971626  83.5997368  96.3156525  80.4403884
  82.8329764  95.7615012  80.5860567  84.0108073  96.3878394  81.3018036
  95.4487506 124.2343178  85.3371467  96.0865916 124.1149925  84.6334807
  95.3308349 125.1824022  85.3959419  92.7396995 125.3405457  91.2319197
  92.7285636 124.9458256  90.3599700  92.9017635 124.6071530  91.8252968
  93.6963587 129.7077050  76.5744347  93.0451567 130.2931130  76.1878361
  94.4907950 130.2383245  76.6339385  89.4604256 128.1242569  90.1798381
  89.1694122 129.0288200  90.0645047  90.0961241 128.1659097  90.8942450
  90.3860463 125.5019418  86.7699740  90.9824036 125.2775440  86.0556703
  90.4435435 124.7604163  87.3725188 100.4037202 121.8969865  83.3157653
 101.1362374 121.3269082  83.5495483  99.6476557 121.5091465  83.7564159
  97.9262622 115.6091439  87.7752262  97.5945947 116.4786850  87.5513477
  97.3308235 115.2927723  88.4546292  94.4194142 127.8103985  87.1748174
  94.1194865 128.7129024  87.0663982  94.0745201 127.5436168  88.0269327
  97.8191285 120.3286525  84.8545612  96.9108163 120.2601933  84.5604373
  97.7678881 120.8058470  85.6827437  89.4014921 134.5748305  80.1419142
  89.3238951 135.5256130  80.2207623  88.7976565 134.2294178  80.7994068
  95.6233863 126.6990764  90.9570638  96.0317219 126.2573175  90.2125270
  94.9011125 126.1243392  91.2104830  95.9462678 127.2591955  84.7122926
  95.3171540 127.4237669  84.0098994  95.5588340 127.6733565  85.4833890
  99.8251910 128.1946393  82.0667290  99.1402948 128.5745294  81.5164323
  99.9095759 128.8041720  82.7999238  97.0802841 125.8406352  88.6662634
  97.2919736 126.4838112  87.9897015  97.0332589 125.0068668  88.1984564
  91.4990640 126.9966363  81.9773012  91.9628985 127.2754066  81.1877634
  91.2347438 126.0949808  81.7946102  88.3914721 126.5437845  84.9152775
  88.9616078 126.9725113  84.2770259  88.9822833 126.2620429  85.6136960
  98.1948669 128.7178307  86.8384991  99.0166113 128.3158495  86.5567673
  98.1911072 128.6146541  87.7901107  91.9605273 128.2662351  88.9945702
  92.0249705 128.7282758  89.8303873  91.2516197 127.6359716  89.1228011
 106.2854662 125.0617056  83.1869963 105.5318371 124.4924454  83.0313967
 106.4202203 125.0279720  84.1340597  91.6753290 129.9330458  78.8624682
  91.5398965 130.7781994  79.2909530  92.2163103 130.1349736  78.0990616
  86.9377572 130.5671652  81.5175360  87.1144201 131.4889617  81.3296344
  87.7334406 130.2530072  81.9469740  93.3021767 130.5554025  92.9925024
  92.8585621 129.7690403  92.6745928  93.9638980 130.7433175  92.3268915
  88.0608888 132.0849826  87.5185702  88.6116313 131.9566890  86.7462696
  87.2220364 132.3844715  87.1680595  95.4003005 130.8356825  91.0206425
  95.3821480 131.6565706  90.5286694  96.3222925 130.7110900  91.2456566
  91.8576059 128.3500954  91.8629934  92.3904396 127.5889242  91.6329242
  91.3290140 128.0574606  92.6054088  95.0245754 113.4561020  87.3923575
  94.6810023 114.3462662  87.3162686  95.3924716 113.2662678  86.5293160
  99.9630311 126.2001986  77.8349184  99.1859753 125.8613145  77.3904346
 100.6421792 126.2054609  77.1604149  93.2228772 127.4786947  79.3748746
  92.6950133 126.7439706  79.0621983  92.7216274 128.2561623  79.1288714
  98.2021618 125.6735967  84.4915792  97.5445292 126.3635228  84.5795921
  99.0062017 126.0632399  84.8349778  94.2749451 134.0064664  75.2980405
  93.6011149 134.3096361  75.9065363  94.6615273 134.8093744  74.9485862
  97.7788873 129.0086341  80.6698876  97.3251200 128.1677251  80.7264067
  97.1482839 129.6447740  81.0073656  96.2221812 130.8462838  81.6048694
  96.5144786 131.4067895  80.8861060  96.7320432 131.1391399  82.3601854
  92.2445693 126.9388495  74.2395787  91.8065123 126.2224354  73.7801425
  92.9856134 127.1664610  73.6780879  91.1855437 131.6243189  82.6942148
  91.1431616 131.8504035  81.7650680  92.1018136 131.3906564  82.8427949
 100.3618808 125.2145692  80.2972106 100.2236706 125.4047288  79.3693295
 100.0055027 125.9765075  80.7540157  89.3021238 128.5006218  82.4904110
  90.0961836 128.0056538  82.2886685  88.5912930 127.9724081  82.1271816
  94.1216082 130.8824313  86.8416478  94.1753105 131.4515250  87.6094194
  93.2530864 131.0526199  86.4770515 101.2503737 127.3245920  87.8416263
 101.4439627 128.2291731  88.0875538 101.1504355 126.8653339  88.6754848
  96.3118846 127.4752663  93.4157143  96.1604352 127.2463214  92.4987227
  96.3023525 128.4323264  93.4288488  93.0804182 125.0484576  88.4003410
  94.0096242 125.1995735  88.2272377  92.6595212 125.1368596  87.5452056
  91.8792514 129.0735240  86.1701947  91.7403600 128.7054024  87.0427886
  91.0907110 129.5882879  85.9985905  92.4740666 134.1744336  77.5127484
  92.6492421 133.7032380  78.3273107  91.7873454 134.8010103  77.7408745
  93.4297729 128.4516843  83.5590785  93.0947562 128.4117613  84.4548435
  92.9301675 127.7861559  83.0861195  98.0211052 130.5071785  91.4933625
  97.9623598 129.8231005  90.8264208  98.4230571 131.2490775  91.0414251
  87.0401751 137.3233699  84.2867344  87.2798349 137.9552223  84.9646363
  86.1970948 136.9721739  84.5732703  98.0228460 128.4711369  89.7247605
  97.1355238 128.1337291  89.8474004  98.5927011 127.7394400  89.9616370
  91.5529613 133.1312822  86.6908848  91.4799784 133.9367793  87.2028153
  91.1107006 133.3304787  85.8656870  91.3419393 132.3684592  80.2011670
  90.5586914 132.9106272  80.2949894  92.0412138 132.8858571  80.6005911
 102.5045800 123.8819587  84.4864167 102.4935676 124.7644302  84.1158100
 101.6363180 123.5291137  84.2918704  94.0128296 133.0299656  88.8467007
  94.7256269 133.6647120  88.7742908  93.5218325 133.1263522  88.0307009
  89.0640210 130.7794099  89.6672578  89.7649669 131.4130582  89.8201972
  88.5935325 131.1208831  88.9068217  97.1894606 129.1212049  77.9520485
  97.4654450 129.0068643  78.8614359  96.3199105 128.7229534  77.9132658
  97.0935037 115.1448815  84.9925234  96.1798117 115.3753041  85.1607441
  97.5228139 115.2287259  85.8439266  96.8641496 123.3338707  87.4925128
  96.2112946 123.5814614  86.8377581  97.2421876 122.5202845  87.1587605
  93.8248670 133.3698400  81.5953298  94.0071064 132.5520056  82.0581051
  94.6481656 133.5866092  81.1578188  94.1590835 132.2966585  78.8568347
  94.6878602 131.7859039  78.2438509  94.4219055 131.9809115  79.7213880
  92.9129069 124.0758518  93.9791165  92.2369706 123.9752647  94.6493540
  93.7356703 123.9197731  94.4427162  84.6607928 130.3130454  86.6003680
  85.2461365 129.5674142  86.7331585  84.4632767 130.6234411  87.4840344
  87.5146583 133.3481702  81.6166123  86.8456959 133.8327829  81.1330163
  87.3759453 133.5950922  82.5309501  91.6551852 135.3825445  88.2148781
  92.2070160 135.5457067  88.9797866  91.9958045 135.9729883  87.5428806
  96.5062726 130.2086703  94.0697435  97.0502630 130.8216661  93.5752390
  95.9249571 130.7666281  94.5864448  94.7920239 133.3307421  85.2012463
  94.6671379 132.5297160  84.6923409  95.4499330 133.8253614  84.7126433
  96.8555148 131.1316441  86.8292013  95.9085483 131.0121792  86.7570340
  97.2037921 130.2438939  86.9118275  93.8601581 130.9269157  83.0296366
  93.7126543 129.9985864  83.2103936  94.6855074 130.9489248  82.5453441
  97.4635703 131.7497716  84.1161238  98.3882250 131.5440577  83.9785689
  97.2951006 131.5014117  85.0250580  97.2531019 132.2683383  79.4723330
  97.4267896 131.7029806  78.7197182  97.7459910 133.0684278  79.2902820
  83.0707979 124.2798052  87.5386889  82.5261447 125.0557860  87.6707163
  83.9487329 124.6268857  87.3806010 103.1070410 125.0319806  81.0913629
 103.5501556 124.2827131  80.6932753 102.2296920 125.0229942  80.7087361
  98.2406191 131.5850147  76.5720228  98.9357096 132.2056840  76.7907543
  98.5829342 130.7345499  76.8472606 100.1397614 129.0349853  78.1007559
 100.6648939 129.3737126  77.3756879 100.0519967 128.0996868  77.9170693
  91.8017663 132.9483927  90.2297435  92.1104790 132.7033073  91.1020135
  92.5993145 133.1530565  89.7416306  91.8238275 135.1021836  82.4602812
  91.3843266 134.6098215  83.1535669  92.5746392 134.5594804  82.2194887
  84.3030614 131.2933377  82.4627440  85.1288634 130.9937149  82.0826084
  83.9524666 130.5241000  82.9117229  89.2712147 130.6459845  84.5325114
  88.6492157 129.9830550  84.2327342  89.9417014 130.6720977  83.8498761
  99.8291521 129.6682757  93.4058757  99.0387064 129.6506895  92.8663256
  99.5924875 130.2071050  94.1607793  99.9489396 126.5175223  90.7191485
  99.9987401 126.3525230  91.6607008  99.8403319 125.6502482  90.3289366
  88.8325654 129.1963769  78.0083574  88.9813775 129.8799233  77.3550247
  89.6392098 129.1768859  78.5233030  97.2393158 122.5006151  92.0350792
  98.1403021 122.3612616  91.7434790  97.3141133 122.6660606  92.9748969
 101.4507592 128.9372165  90.9633507 101.1592401 129.3002145  91.7996968
 100.8379724 128.2239173  90.7846839 102.6503275 126.5025044  83.4836077
 103.4850166 126.9414848  83.6473637 102.7862404 126.0263698  82.6644323
  99.6994781 124.0604779  89.4313565 100.1748902 124.2532425  88.6232416
  98.7760346 124.1163965  89.1856948  94.5287591 112.5152905  83.9170295
  94.8089345 111.8476094  84.5430722  95.3138198 112.7082001  83.4044959
  92.3321060 131.6911899  75.4795322  91.7595027 132.3102086  75.0265793
  92.9053853 132.2411261  76.0135244  98.3996450 120.9370539  87.6641870
  99.3513873 121.0368637  87.6854094  98.2299900 120.1448808  88.1739955
  95.5518320 131.9749049  76.6103904  96.4848993 131.9094611  76.8136779
  95.4641532 132.8105316  76.1518437  98.1806336 131.2914920  73.5707851
  98.1019968 130.9574783  74.4643609  99.0016003 131.7836688  73.5699324
 100.8784527 124.1576659  86.7784170 100.8460848 123.2192660  86.9643854
 101.4885151 124.2360696  86.0449995 101.0279016 120.9487702  86.8242453
 100.5118065 120.1646159  86.6372382 101.9118964 120.6206419  86.9888973
 106.6961077 125.2192666  85.9190207 107.4264466 124.9577954  86.4797910
 106.0868023 124.4821388  85.9592275 104.7776374 123.3600528  86.5164658
 104.0509538 123.2256493  85.9081150 104.3623661 123.6677357  87.3221376
  92.6006551 127.0790458  94.2812031  93.5209560 127.2569057  94.4752078
  92.5656134 126.1346503  94.1291730  86.2601096 127.8826372  87.1671057
  87.2144350 127.8510314  87.1000988  86.0613620 127.4216996  87.9821283
  86.8500478 126.4527488  89.7341854  87.6693367 126.9471567  89.7576692
  87.1237286 125.5359456  89.7059422  84.6151325 133.4245991  84.1841254
  84.4805793 132.6646392  83.6179253  84.1983387 134.1486891  83.7170043
  95.7510288 128.6082915  73.1917830  96.4546138 128.8132918  73.8075485
  95.0272937 129.1759677  73.4566913 104.7025242 122.8878581  82.6441511
 104.1424800 122.9571771  83.4173073 104.0968745 122.7119566  81.9241007
  87.7720451 134.3215309  84.3959697  87.6552835 135.2660741  84.2938387
  86.9512897 134.0188870  84.7845496  97.6596985 129.0465444  75.2416290
  98.4942589 128.6146643  75.0593765  97.4981328 128.8747458  76.1693184
  94.6288785 127.8546469  95.9326192  95.4979944 128.0287122  95.5712827
  94.1495536 128.6740886  95.8101921  88.7974965 134.9743570  87.6115626
  89.7002212 135.0067181  87.9282121  88.5712335 134.0444021  87.6261961
  90.5528567 133.7274557  84.2725704  89.6024198 133.7276419  84.1590076
  90.8561053 132.9807292  83.7561739 106.2881261 139.5635095  85.3371467
 106.9259671 139.4441843  84.6334807 106.1702103 140.5115939  85.3959419
 103.0970967 139.5162523  85.2732991 102.7589478 139.4003588  84.3853526
 103.9660735 139.1153689  85.2533997  98.9557783 141.3698000  81.2629882
  98.3922648 141.2787937  80.4946170  98.8410178 140.5497904  81.7432375
 103.5790750 140.6697375  91.2319197 103.5679391 140.2750173  90.3599700
 103.7411389 139.9363448  91.8252968  96.5022214 142.8649191  84.1014103
  97.2943506 142.5240016  83.6860402  96.7418865 142.9744167  85.0216256
 104.5357341 145.0368968  76.5744347 103.8845321 145.6223048  76.1878361
 105.3301704 145.5675162  76.6339385  98.4612968 142.1258105  76.9731481
  99.2343844 141.5787092  76.8344357  98.8138367 142.9902354  77.1845943
 100.2998011 143.4534487  90.1798381 100.0087877 144.3580118  90.0645047
 100.9354995 143.4951015  90.8942450 101.2254218 140.8311335  86.7699740
 101.8217790 140.6067358  86.0556703 101.2829189 140.0896081  87.3725188
 100.7979246 138.2850771  74.6049931 101.0504767 137.7632292  73.8433394
  99.8603805 138.1216916  74.7076615 105.8422529 137.2886549  82.4124675
 106.6285618 136.8705972  82.0615092 106.1061233 138.1932641  82.5806323
 106.0132606 142.7259399  77.1113331 105.3778439 142.7994026  77.8234236
 105.6830013 143.3152998  76.4332411 111.2430956 137.2261782  83.3157653
 111.9756128 136.6560999  83.5495483 110.4870312 136.8383383  83.7564159
 100.5175535 140.1878877  76.8074306 100.4011793 139.5123780  77.4755391
 100.6277795 139.7011251  75.9906459 102.8607076 139.6489024  80.5120996
 102.4965283 139.1219645  81.2233917 103.7174192 139.2587493  80.3387481
 108.7656377 130.9383356  87.7752262 108.4339701 131.8078767  87.5513477
 108.1701990 130.6219640  88.4546292 102.5012563 134.6778924  75.5082344
 102.6686965 135.5459160  75.8752815 102.3109732 134.8406205  74.5843633
 105.2587896 143.1395902  87.1748174 104.9588619 144.0420941  87.0663982
 104.9138956 142.8728086  88.0269327  98.7100378 139.5909699  83.2084879
  97.7850874 139.4585913  83.4162571  98.9584791 140.3703919  83.7054821
 108.6585040 135.6578443  84.8545612 107.7501917 135.5893851  84.5604373
 108.6072636 136.1350388  85.6827437 102.4801784 137.1336581  76.4929011
 102.3601409 137.5793632  77.3314491 101.7854372 137.4821899  75.9342549
  96.0709189 139.2342973  84.0428668  96.2001570 139.4877452  84.9568080
  95.3906640 139.8270681  83.7233323 102.7325906 137.0768088  92.7980509
 101.9559240 137.6362008  92.7883374 103.3716469 137.5624871  93.3195379
 110.5246686 133.8594881  86.6323486 109.8821066 134.1527414  85.9863280
 110.0201615 133.7447801  87.4376682 108.1786850 137.6058054  77.3209345
 109.0904706 137.8385441  77.1457043 107.6696497 138.1895098  76.7584424
 100.9872278 139.8853542  92.3598476 101.7286962 140.4238586  92.0833300
 100.2809263 140.5119830  92.5170028 106.4627618 142.0282682  90.9570638
 106.8710974 141.5865093  90.2125270 105.7404879 141.4535310  91.2104830
 102.8158688 136.9655289  88.3304194 103.6619883 137.3894702  88.4738843
 102.7557325 136.3088913  89.0242758 106.7856432 142.5883873  84.7122926
 106.1565295 142.7529587  84.0098994 106.3982094 143.0025482  85.4833890
 105.9658133 134.6259657  89.9885368 105.7219065 135.3801718  89.4519644
 106.2418063 135.0045005  90.8232615 107.9196596 141.1698270  88.6662634
 108.1313491 141.8130029  87.9897015 107.8726344 140.3360586  88.1984564
 105.5222825 133.7816090  85.5699206 104.6607304 134.0797344  85.8615943
 105.5485259 133.9986489  84.6380238 102.3384394 142.3258281  81.9773012
 102.8022740 142.6045984  81.1877634 102.0741192 141.4241725  81.7946102
  99.2308475 141.8729762  84.9152775  99.8009832 142.3017031  84.2770259
  99.8216587 141.5912347  85.6136960 101.2753280 138.4481433  78.7862577
 101.9777323 138.9002477  79.2536503 100.9433909 137.8065252  79.4142470
  99.7233642 137.0393190  93.1613786  99.0932302 137.7209471  93.3949183
  99.6169730 136.9276271  92.2166924  95.0178614 136.7064986  84.0879710
  94.2277668 136.9622514  83.6119821  95.5089861 137.5213324  84.1931751
  96.9693359 137.0709565  81.0463187  96.1724523 137.1828259  81.5646683
  96.7418952 137.4096217  80.1804077 102.7999027 143.5954268  88.9945702
 102.8643460 144.0574676  89.8303873 102.0909951 142.9651633  89.1228011
  93.3016317 136.9595476  86.5194701  93.5524356 137.8442486  86.7852277
  93.8375865 136.7800078  85.7469793 102.5147045 145.2622376  78.8624682
 102.3792720 146.1073912  79.2909530 103.0556857 145.4641653  78.0990616
  99.0014384 131.3413956  95.5239037  98.6081330 130.7880154  96.1986681
  99.8180525 131.6524534  95.9145555  95.9676442 142.7797814  79.4352607
  96.4800963 143.5741064  79.5858172  96.6199155 142.0824104  79.3686208
  97.7771327 145.8963570  81.5175360  97.9537955 146.8181535  81.3296344
  98.5728160 145.5821989  81.9469740 101.9182345 132.7571835  93.1159294
 102.6592059 133.3578988  93.0363756 102.1500268 132.0149473  92.5577336
  97.0623683 137.9428202  91.3937523  96.9477199 137.0413459  91.6944622
  96.2068201 138.1891899  91.0422340 104.1415521 145.8845942  92.9925024
 103.6979375 145.0982321  92.6745928 104.8032735 146.0725093  92.3268915
  98.9002642 147.4141744  87.5185702  99.4510067 147.2858807  86.7462696
  98.0614118 147.7136633  87.1680595 102.6969813 143.6792872  91.8629934
 103.2298150 142.9181160  91.6329242 102.1683894 143.3866524  92.6054088
 105.8639508 128.7852938  87.3923575 105.5203778 129.6754579  87.3162686
 106.2318471 128.5954595  86.5293160  93.9325359 141.1086468  80.2112177
  94.7700581 141.5183476  79.9945885  94.1103627 140.1685910  80.1812371
 105.8289791 138.7761549  75.8996010 105.3136414 139.5466153  76.1384398
 105.5567100 138.1026685  76.5229072 103.4136902 133.6211250  80.9581249
 102.5578498 133.2318100  80.7786888 103.8263854 133.7003210  80.0981034
 104.9436049 131.1557593  85.3572809 104.4400844 131.1187728  84.5440614
 105.2366656 132.0650336  85.4169465 101.1878935 131.2396323  84.3638990
 102.0531931 131.0439131  84.0044880 101.2556444 131.0106674  85.2908347
 105.6176094 136.6488641  77.7255792 105.3126230 136.9634790  78.5765935
 106.5706536 136.7270061  77.7683125 104.0622526 142.8078864  79.3748746
 103.5343888 142.0731624  79.0621983 103.5610029 143.5853541  79.1288714
 109.0415372 141.0027885  84.4915792 108.3839047 141.6927146  84.5795921
 109.8455771 141.3924317  84.8349778  98.7941254 133.4698530  81.7355357
  99.3685006 133.2473712  81.0028550  99.3812236 133.5387225  82.4883958
 107.8520831 139.3572257  82.5419734 108.3652713 139.9902249  83.0441443
 108.5022055 138.7573453  82.1763094  99.1210841 135.5002992  75.7551242
  98.2848153 135.8377678  76.0760517  98.9815610 135.3651971  74.8178379
 101.0963921 130.3439779  80.4630427 100.4428334 130.0288797  79.8387041
 101.0544396 129.7215520  81.1890249 102.2075126 140.6259074  72.3783719
 101.3002188 140.3948328  72.5774868 102.7046158 139.8296694  72.5657700
 104.3301662 136.8321713  84.7878074 103.4124223 137.0536660  84.6299762
 104.7461805 136.9068023  83.9289782 105.1136710 138.2313129  79.9180754
 105.8608528 138.7434526  79.6087876 105.3828299 137.9097181  80.7785148
 103.3863360 140.7271669  76.9007709 102.4774579 140.4430702  76.9980178
 103.4158444 141.1470748  76.0411016 107.5615547 135.2670245  81.8999544
 106.8238303 134.7547631  82.2309786 107.8142320 134.8270626  81.0882821
 107.6627174 128.0446497  82.4941313 107.9686051 127.1843860  82.2067228
 108.3879779 128.6364117  82.2940307  93.9551530 138.4477183  80.8822911
  93.7575930 137.8546544  80.1573978  93.3998194 138.1429394  81.5998850
 101.9348254 138.3400290  83.0017504 101.9896864 137.3874126  82.9259981
 101.1239456 138.4959729  83.4858803 103.0839447 142.2680413  74.2395787
 102.6458877 141.5516272  73.7801425 103.8249888 142.4956528  73.6780879
  99.8740614 136.9577350  80.7607883  99.0608479 137.2571520  81.1673075
 100.3699608 136.5633038  81.4782365 102.0249192 146.9535107  82.6942148
 101.9825370 147.1795953  81.7650680 102.9411890 146.7198481  82.8427949
 105.4714825 137.4219174  89.5922777 105.8264213 137.6490647  90.4517243
 106.1186957 137.7537551  88.9700032 111.2012562 140.5437610  80.2972106
 111.0630461 140.7339206  79.3693295 110.8448781 141.3056993  80.7540157
  99.3654688 134.5295705  86.3769118 100.0054068 134.3884464  85.6792081
  98.5332219 134.2430219  86.0007720 100.1414992 143.8298136  82.4904110
 100.9355591 143.3348456  82.2886685  99.4306685 143.3015999  82.1271816
  96.4497756 137.9741217  78.5663863  95.5195344 137.9125673  78.7833825
  96.5455228 137.4517170  77.7700504  96.3683305 134.4996030  81.1542105
  96.6290122 135.4141363  81.0451265  97.1900477 134.0320473  81.3038718
  97.8408230 135.9133787  88.3240929  98.5131284 135.7051149  87.6753578
  97.0138017 135.7155873  87.8846162 103.7433802 132.5395728  90.3406590
 103.0961717 133.2385678  90.2471067 104.5134818 132.9731872  90.7082838
 107.1512600 142.8044580  93.4157143 106.9998107 142.5755132  92.4987227
 107.1417280 143.7615182  93.4288488 103.9197937 140.3776493  88.4003410
 104.8489997 140.5287653  88.2272377 103.4988967 140.4660514  87.5452056
 102.7186268 144.4027158  86.1701947 102.5797354 144.0345942  87.0427886
 101.9300865 144.9174797  85.9985905 104.2691483 143.7808760  83.5590785
 103.9341316 143.7409530  84.4548435 103.7695429 143.1153476  83.0861195
  98.2435727 139.1876390  89.0843366  98.1055525 138.4556629  89.6854905
  99.1540651 139.0985290  88.8027554 107.2050675 141.1264795  73.8327845
 106.5879846 140.4011623  73.7360898 106.7367164 141.8874155  73.4894919
 100.8718028 138.8996350  88.5727046 101.5817647 138.2589542  88.5313664
 100.8287336 139.1509244  89.4953227  99.5846962 135.8861568  90.3922686
  99.0484319 135.4352306  91.0444282  98.9963671 136.0207476  89.6493150
  98.9949221 135.3450219  72.9549149  98.1178687 135.2239020  72.5911396
  99.4706974 134.5536297  72.7028038  90.5151361 140.1327379  83.0490656
  91.2022401 139.8189109  82.4611672  90.3599490 141.0368743  82.7757908
  95.3186083 135.0217575  87.4775680  95.2344272 134.4143245  86.7426090
  94.4968790 135.5126594  87.4785176 105.4909797 133.5071139  82.8445875
 105.9878497 132.7541101  82.5246945 104.7196779 133.5435455  82.2789084
 113.3439555 139.2111504  84.4864167 113.3329431 140.0936220  84.1158100
 112.4756934 138.8583055  84.2918704 106.5739578 142.2642826  80.4184298
 105.6395857 142.3844288  80.2489003 106.7516246 141.3615293  80.1544308
 102.0744766 135.6488522  82.5717560 101.7042553 135.0959562  83.2598465
 102.5703858 135.0446655  82.0192560 109.9612129 138.1060145  80.9534333
 110.4272581 138.9388137  80.8794635 110.4119630 137.6405127  81.6579591
  99.9033964 146.1086017  89.6672578 100.6043424 146.7422500  89.8201972
  99.4329079 146.4500748  88.9068217 107.9328792 130.4740732  84.9925234
 107.0191872 130.7044959  85.1607441 108.3621893 130.5579176  85.8439266
 107.7035250 138.6630624  87.4925128 107.0506701 138.9106532  86.8377581
 108.0815630 137.8494762  87.1587605 103.7522823 139.4050435  93.9791165
 103.0763460 139.3044565  94.6493540 104.5750457 139.2489649  94.4427162
  95.5001683 145.6422372  86.6003680  96.0855119 144.8966060  86.7331585
  95.3026521 145.9526329  87.4840344  98.3540338 148.6773619  81.6166123
  97.6850713 149.1619747  81.1330163  98.2153207 148.9242840  82.5309501
  90.0919337 138.2127972  85.3208123  90.1303437 137.6791563  86.1145242
  89.5859630 137.6863178  84.7019101  97.4710100 133.0592513  88.8170666
  97.5351426 133.9207343  88.4048063  97.4077220 132.4466514  88.0843024
  96.9462372 135.1315645  92.4643700  97.5734411 134.7492722  93.0781224
  96.0890291 134.9129847  92.8299393  93.7227915 136.9392074  78.3962055
  94.0181356 136.0302753  78.3429109  92.8215951 136.9179814  78.0743057
  97.2522162 135.0148071  84.3789603  96.5308748 135.6284038  84.2397077
  98.0415418 135.5505836  84.3006249 100.0548475 132.3502497  90.6530255
 100.5782877 132.5964794  91.4156565  99.8360809 133.1822532  90.2333393
  95.4515756 134.6206172  78.5201380  95.1228463 133.7403551  78.3376486
  95.8055127 134.5653841  79.4077769  98.5657580 134.9079142  78.8876858
  98.9053652 135.4365063  78.1655466  99.0129700 135.2459548  79.6635424
 101.2601020 133.2916192  88.3379926 100.9197841 132.4924005  88.7400606
 100.5540027 133.5917903  87.7656759 101.9117492 130.3765505  86.7907249
 102.7343562 129.9025983  86.6686139 102.1555556 131.1555989  87.2905935
 100.5525727 133.4053763  77.0870150 101.2734089 133.7835016  76.5833867
  99.9291031 134.1242640  77.1905128 104.6956850 134.1098912  78.0228483
 104.9120464 134.9923550  77.7217311 104.2150917 133.7185126  77.2934125
  99.4356071 137.0684625  84.5999227  99.2900652 137.3824928  85.4923509
  98.9581275 137.6869526  84.0470126 101.2952454 134.0587173  84.6480117
 101.2814023 133.1628267  84.3112415 102.0124882 134.0657837  85.2818403
 103.1478585 134.4924514  86.6933244 102.8896362 135.4141584  86.6917575
 102.6163625 134.0954948  87.3833708  93.9101733 139.6089970  87.5386889
  93.3655201 140.3849778  87.6707163  94.7881083 139.9560774  87.3806010
 100.6989350 132.9401554  79.9167687 100.8205261 132.0118200  80.1158575
 100.4091392 132.9540240  79.0046002 103.5680540 130.6256464  83.0534407
 103.5902237 130.6895797  82.0986386 103.9848599 129.7860973  83.2474913
  94.6967755 138.7359866  90.4317045  93.9549491 138.8842501  91.0181676
  94.3760499 138.9968132  89.5683795  95.1424369 146.6225295  82.4627440
  95.9682389 146.3229067  82.0826084  94.7918421 145.8532917  82.9117229
 100.1105902 145.9751763  84.5325114  99.4885911 145.3122468  84.2327342
 100.7810769 146.0012895  83.8498761  93.3432974 144.5411621  83.4216374
  92.5064882 144.1133796  83.2400375  93.3156619 144.7344065  84.3587165
 100.1830429 134.4533551  94.1257620 100.2318585 135.3295674  93.7435389
 100.7252944 133.9110944  93.5529263 110.7883150 141.8467141  90.7191485
 110.8381155 141.6817148  91.6607008 110.6797073 140.9794400  90.3289366
  99.6719409 144.5255686  78.0083574  99.8207529 145.2091151  77.3550247
 100.4785852 144.5060776  78.5233030 108.0786912 137.8298069  92.0350792
 108.9796775 137.6904534  91.7434790 108.1534887 137.9952524  92.9748969
 102.4129718 135.2064923  90.8803978 101.5433027 135.4998490  90.6086567
 102.6489198 135.7905368  91.6011242 110.5388535 139.3896697  89.4313565
 111.0142657 139.5824343  88.6232416 109.6154101 139.4455883  89.1856948
  97.4272042 140.5520864  79.0144643  97.1818084 139.6483194  79.2124853
  97.5967956 140.5538014  78.0724121 105.1168752 131.4244540  88.3969399
 105.6350696 132.1605567  88.0715887 104.7623884 131.7308534  89.2316158
  96.6967689 136.2849222  76.5130805  96.0036934 136.3593577  75.8570841
  96.4519441 135.5209565  77.0352321 105.3681346 127.8444823  83.9170295
 105.6483100 127.1768012  84.5430722 106.1531953 128.0373919  83.4044959
 109.2390204 136.2662457  87.6641870 110.1907627 136.3660555  87.6854094
 109.0693655 135.4740725  88.1739955 107.2604584 133.3518040  87.8501271
 106.6654516 133.6323053  87.1547760 106.9754280 133.8411941  88.6218012
 111.7178282 139.4868577  86.7784170 111.6854602 138.5484577  86.9643854
 112.3278906 139.5652613  86.0449995 103.5561613 138.3564630  72.8211374
 104.5020718 138.2270838  72.8899792 103.1775858 137.6179291  73.2980802
 111.8672770 136.2779620  86.8242453 111.3511819 135.4938077  86.6372382
 112.7512719 135.9498337  86.9888973 109.5283497 130.0220636  82.7838266
 109.3308318 129.7135724  83.6681598 110.1383203 130.7482275  82.9136196
 103.4400305 142.4082376  94.2812031 104.3603315 142.5860975  94.4752078
 103.4049888 141.4638421  94.1291730 101.7404530 136.2814606  72.7566259
 100.8335985 135.9847719  72.8328973 102.0180511 135.9844424  71.8900546
  92.6582470 137.6020969  83.2065306  92.3385255 136.7486278  82.9139680
  92.1115899 137.8169548  83.9623273  96.4362378 140.3183410  86.9234812
  96.6548388 141.2500518  86.9422846  96.8488152 139.9591385  87.7089616
 103.3566596 130.8251496  78.9110501 102.5467324 130.4798581  79.2865747
 104.0451013 130.5159039  79.4998112 105.2857144 129.9029542  80.5334797
 105.8388183 130.3224996  81.1924820 105.5227230 128.9765291  80.5757753
 101.3090243 135.8916616  96.3137561 101.2086970 136.8410973  96.2449652
 101.0911785 135.5634855  95.4413631 100.5103315 133.1401541  72.8978239
 101.3722479 133.4656440  73.1574056 100.6953659 132.3533037  72.3851304
  92.5270730 141.2223881  85.1758427  91.8334202 140.8077834  84.6628382
  93.2743721 141.2644417  84.5791846 108.6635951 132.0130068  80.0413462
 108.0834620 132.6714872  79.6591514 108.3971884 131.1907412  79.6300879
 107.1139517 131.4135125  82.2434782 107.6139296 131.5251660  81.4349101
 107.7575125 131.1096178  82.8835590 101.1721513 139.3213755  95.1302623
 100.6888595 140.1214115  95.3366512 101.2582452 139.3321700  94.1770067
  94.4407473 141.1542135  83.0524442  94.4178161 141.2529822  82.1006325
  94.7508109 142.0007285  83.3741608  97.0994851 143.2118290  87.1671057
  98.0538104 143.1802232  87.1000988  96.9007374 142.7508913  87.9821283
  97.6894233 141.7819406  89.7341854  98.5087122 142.2763484  89.7576692
  97.9631041 140.8651374  89.7059422 107.4460829 134.1730158  79.0969810
 106.5586684 134.4579809  78.8790005 107.8614818 134.0123921  78.2497087
 110.7975365 134.1976679  82.8124149 111.5735755 134.6873131  83.0848766
 110.0723499 134.6234733  83.2696019 113.2347924 134.9104298  83.8698090
 113.8292415 134.6700034  83.1591398 113.3074508 134.1911429  84.4971626
  95.4545080 148.7537909  84.1841254  95.3199547 147.9938310  83.6179253
  95.0377142 149.4778809  83.7170043 106.5904043 143.9374833  73.1917830
 107.2939893 144.1424835  73.8075485 105.8666691 144.5051595  73.4566913
 107.4201853 139.6884694  79.3120100 107.3637054 140.1453245  78.4727732
 107.9730195 138.9275379  79.1342943 111.2306659 135.4774426  80.1370219
 110.9743593 135.0771061  80.9678427 110.6059527 136.1918220  80.0120359
 115.5418997 138.2170499  82.6441511 114.9818555 138.2863688  83.4173073
 114.9362500 138.0411484  81.9241007  98.6114205 149.6507226  84.3959697
  98.4946590 150.5952659  84.2938387  97.7906652 149.3480788  84.7845496
 108.1536632 140.8789475  76.6072629 108.0985436 140.7133747  75.6661073
 107.5282687 141.5865508  76.7634819  92.9429147 136.1157540  90.4334051
  93.5888011 135.6056494  90.9221277  92.7346298 136.8526221  91.0077477
 105.4682539 143.1838387  95.9326192 106.3373699 143.3579039  95.5712827
 104.9889291 144.0032804  95.8101921 101.4632758 130.3797584  76.1857948
 101.4511427 131.3239424  76.3426218 102.3556179 130.1967730  75.8917409
 105.2784877 126.9740361  80.4403884 104.5117273 126.4198848  80.5860567
 105.6895582 127.0462230  81.3018036  97.2826638 133.2625157  94.5309066
  98.1458100 132.9061962  94.7412390  96.7092049 132.9239051  95.2184470
  30.4124980   9.2653794  72.0616773  31.0503390   9.1460542  71.3580113
  30.2945823  10.2134638  72.1204725  27.2214687   9.2181222  71.9978298
  26.8833198   9.1022287  71.1098833  28.0904455   8.8172387  71.9779304
  23.0801502  11.0716699  67.9875189  22.5166368  10.9806636  67.2191477
  22.9653897  10.2516603  68.4677681  27.7034470  10.3716074  77.9564503
  27.6923110   9.9768872  77.0845007  27.8655109   9.6382147  78.5498275
  20.6265934  12.5667890  70.8259409  21.4187226  12.2258715  70.4105709
  20.8662584  12.6762865  71.7461563  28.6601061  14.7387666  63.2989654
  28.0089041  15.3241747  62.9123668  29.4545424  15.2693861  63.3584691
  22.5856688  11.8276804  63.6976788  23.3587564  11.2805791  63.5589664
  22.9382087  12.6921053  63.9091249  24.4241731  13.1553186  76.9043687
  24.1331597  14.0598817  76.7890354  25.0598715  13.1969713  77.6187757
  25.3497938  10.5330034  73.4945047  25.9461510  10.3086057  72.7802010
  25.4072909   9.7914780  74.0970495  24.9222966   7.9869470  61.3295238
  25.1748487   7.4650991  60.5678701  23.9847525   7.8235615  61.4321922
  29.9666249   6.9905248  69.1369981  30.7529338   6.5724671  68.7860398
  30.2304953   7.8951340  69.3051630  30.1376326  12.4278098  63.8358638
  29.5022159  12.5012725  64.5479543  29.8073733  13.0171697  63.1577717
  35.3674676   6.9280481  70.0402960  36.0999848   6.3579698  70.2740789
  34.6114032   6.5402082  70.4809465  24.6419255   9.8897576  63.5319613
  24.5255513   9.2142479  64.2000697  24.7521515   9.4029950  62.7151766
  26.9850796   9.3507723  67.2366302  26.6209003   8.8238344  67.9479224
  27.8417912   8.9606192  67.0632788  32.8900096   0.6402055  74.4997568
  32.5583421   1.5097466  74.2758783  32.2945710   0.3238339  75.1791599
  26.6256283   4.3797622  62.2327651  26.7930685   5.2477859  62.5998122
  26.4353452   4.5424904  61.3088940  29.3831616  12.8414601  73.8993481
  29.0832339  13.7439640  73.7909288  29.0382675  12.5746785  74.7514634
  22.8344097   9.2928398  69.9330186  21.9094594   9.1604612  70.1407877
  23.0828511  10.0722617  70.4300128  32.7828760   5.3597142  71.5790918
  31.8745637   5.2912550  71.2849679  32.7316355   5.8369086  72.4072744
  26.6045504   6.8355280  63.2174318  26.4845129   7.2812331  64.0559798
  25.9098092   7.1840598  62.6587856  20.1952908   8.9361672  70.7673975
  20.3245290   9.1896151  71.6813386  19.5150360   9.5289380  70.4478630
  24.3652396  19.6058922  66.8664449  24.2876425  20.5566747  66.9452929
  23.7614039  19.2604794  67.5239375  26.8569625   6.7786787  79.5225816
  26.0802960   7.3380707  79.5128680  27.4960189   7.2643570  80.0440686
  34.6490406   3.5613580  73.3568792  34.0064786   3.8546113  72.7108587
  34.1445335   3.4466500  74.1621989  32.3030570   7.3076753  64.0454652
  33.2148426   7.5404140  63.8702349  31.7940217   7.8913797  63.4829730
  25.1115998   9.5872240  79.0843783  25.8530682  10.1257284  78.8078606
  24.4052983  10.2138529  79.2415334  30.5871337  11.7301381  77.6815944
  30.9954693  11.2883791  76.9370577  29.8648599  11.1554008  77.9350137
  26.9402407   6.6673988  75.0549501  27.7863603   7.0913401  75.1984150
  26.8801045   6.0107612  75.7488064  30.9100152  12.2902572  71.4368233
  30.2809014  12.4548286  70.7344301  30.5225814  12.7044181  72.2079197
  34.7889384  13.2257009  68.7912597  34.1040422  13.6055911  68.2409630
  34.8733233  13.8352336  69.5244545  30.0901853   4.3278356  76.7130675
  29.8462785   5.0820417  76.1764950  30.3661783   4.7063704  77.5477922
  32.0440316  10.8716968  75.3907940  32.2557211  11.5148728  74.7142321
  31.9970064  10.0379285  74.9229870  29.6466545   3.4834789  72.2944512
  28.7851024   3.7816043  72.5861250  29.6728979   3.7005188  71.3625545
  26.4628114  12.0276980  68.7018318  26.9266459  12.3064683  67.9122941
  26.1984912  11.1260424  68.5191409  23.3552195  11.5748461  71.6398081
  23.9253552  12.0035730  71.0015566  23.9460307  11.2931046  72.3382267
  25.3997000   8.1500132  65.5107883  26.1021043   8.6021176  65.9781810
  25.0677628   7.5083951  66.1387776  23.8477362   6.7411889  79.8859093
  23.2176022   7.4228170  80.1194490  23.7413449   6.6294970  78.9412231
  33.1586143  13.7488924  73.5630298  33.9803587  13.3469111  73.2812979
  33.1548546  13.6457158  74.5146413  21.0937079   6.7728264  67.7708494
  20.2968243   6.8846958  68.2891989  20.8662672   7.1114916  66.9049384
  26.9242747  13.2972967  75.7191008  26.9887179  13.7593374  76.5549180
  26.2153671  12.6670332  75.8473318  41.2492137  10.0927672  69.9115269
  40.4955845   9.5235070  69.7559274  41.3839678  10.0590337  70.8585904
  26.6390765  14.9641075  65.5869989  26.5036439  15.8092610  66.0154836
  27.1800577  15.1660352  64.8235922  20.0920162  12.4816513  66.1597914
  20.6044683  13.2759763  66.3103478  20.7442875  11.7842803  66.0931515
  21.9015047  15.5982269  68.2420667  22.0781675  16.5200234  68.0541651
  22.6971880  15.2840688  68.6715047  21.1867403   7.6446901  78.1182830
  21.0720918   6.7432158  78.4189929  20.3311921   7.8910598  77.7667647
  28.2659241  15.5864641  79.7170331  27.8223095  14.8001020  79.3991235
  28.9276455  15.7743792  79.0514221  23.0246362  17.1160443  74.2431009
  23.5753787  16.9877506  73.4708003  22.1857838  17.4155332  73.8925902
  30.3640479  15.8667441  77.7451732  30.3458954  16.6876322  77.2532001
  31.2860399  15.7421516  77.9701873  26.8213533  13.3811571  78.5875240
  27.3541870  12.6199859  78.3574548  26.2927614  13.0885222  79.3299395
  18.0569079  10.8105167  66.9357484  18.8944301  11.2202175  66.7191192
  18.2347346   9.8704609  66.9057678  29.9533511   8.4780248  62.6241317
  29.4380134   9.2484852  62.8629705  29.6810819   7.8045384  63.2474379
  27.5380622   3.3229948  67.6826555  26.6822218   2.9336799  67.5032194
  27.9507574   3.4021909  66.8226341  34.9267785  11.2312602  64.5594491
  34.1497228  10.8923762  64.1149653  35.6059266  11.2365225  63.8849456
  29.7419814   6.3507340  64.4501098  29.4369950   6.6653489  65.3011241
  30.6950256   6.4288760  64.4928431  28.1866246  12.5097563  66.0994052
  27.6587607  11.7750323  65.7867290  27.6853749  13.2872239  65.8534021
  33.1659092  10.7046584  71.2161099  32.5082766  11.3945845  71.3041227
  33.9699491  11.0943015  71.5595085  31.9764551   9.0590956  69.2665040
  32.4896432   9.6920948  69.7686750  32.6265775   8.4592152  68.9008400
  23.2454561   5.2021690  62.4796549  22.4091873   5.5396377  62.8005824
  23.1059330   5.0670670  61.5423686  26.3318846  10.3277773  59.1029025
  25.4245908  10.0967027  59.3020174  26.8289878   9.5315393  59.2903007
  29.2386925  19.0375281  62.0225711  28.5648624  19.3406977  62.6310669
  29.6252747  19.8404361  61.6731169  28.4545382   6.5340412  71.5123381
  27.5367943   6.7555359  71.3545069  28.8705525   6.6086722  70.6535088
  29.2380429   7.9331827  66.6426061  29.9852248   8.4453225  66.3333183
  29.5072019   7.6115880  67.5030455  27.5107080  10.4290368  63.6253015
  26.6018299  10.1449401  63.7225485  27.5402163  10.8489447  62.7656322
  32.7426347  14.0396958  67.3944183  32.2888674  13.1987868  67.4509373
  32.1120314  14.6758356  67.7318963  31.6859267   4.9688944  68.6244850
  30.9482023   4.4566330  68.9555093  31.9386040   4.5289325  67.8128127
  31.1859286  15.8773454  68.3294001  31.4782261  16.4378511  67.6106367
  31.6957907  16.1702015  69.0847160  26.0591974   8.0418989  69.7262811
  26.1140583   7.0892825  69.6505287  25.2483176   8.1978428  70.2104109
  27.2083167  11.9699112  60.9641094  26.7702597  11.2534971  60.5046731
  27.9493608  12.1975227  60.4026185  23.9984333   6.6596049  67.4853190
  23.1852199   6.9590219  67.8918382  24.4943328   6.2651737  68.2027672
  26.1492911  16.6553805  69.4187454  26.1069090  16.8814652  68.4895986
  27.0655610  16.4217180  69.5673255  29.5958545   7.1237873  76.3168083
  29.9507933   7.3509346  77.1762549  30.2430676   7.4556250  75.6945339
  35.3256282  10.2456309  67.0217413  35.1874181  10.4357905  66.0938602
  34.9692501  11.0075692  67.4785464  35.3525662  12.3132836  72.0328684
  35.7862168  12.2208125  72.8811738  36.0657242  12.2890336  71.3948700
  24.2658712  13.5316834  69.2149417  25.0599311  13.0367155  69.0131992
  23.5550405  13.0034698  68.8517123  29.0853557  15.9134930  73.5661785
  29.1390579  16.4825866  74.3339501  28.2168338  16.0836815  73.2015822
  20.5741476   7.6759916  65.2909170  19.6439064   7.6144372  65.5079132
  20.6698948   7.1535869  64.4945811  36.2141211  12.3556537  74.5661569
  36.4077101  13.2602347  74.8120844  36.1141829  11.8963956  75.4000154
  27.8677522   2.2414427  77.0651897  27.2205437   2.9404377  76.9716373
  28.6378537   2.6750571  77.4328145  31.2756320  12.5063279  80.1402450
  31.1241826  12.2773831  79.2232534  31.2660999  13.4633881  80.1533795
  28.0441656  10.0795192  75.1248716  28.9733716  10.2306352  74.9517684
  27.6232686  10.1679213  74.2697363  26.8429988  14.1045856  72.8947254
  26.7041074  13.7364641  73.7673192  26.0544584  14.6193496  72.7231212
  27.4378140  19.2054953  64.2372791  27.6129896  18.7342996  65.0518413
  26.7510928  19.8320719  64.4654051  28.3935203  13.4827459  70.2836092
  28.0585036  13.4428229  71.1793742  27.8939149  12.8172175  69.8106502
  22.3679447   8.8895089  75.8088673  22.2299245   8.1575328  76.4100212
  23.2784371   8.8003989  75.5272861  31.3294395  10.8283493  60.5573152
  30.7123566  10.1030322  60.4606204  30.8610883  11.5892854  60.2140226
  24.9961748   8.6015049  75.2972353  25.7061366   7.9608241  75.2558971
  24.9531056   8.8527943  76.2198533  32.9848527  15.5382402  78.2178932
  32.9261073  14.8541622  77.5509515  33.3868045  16.2801392  77.7659558
  23.7090682   5.5880266  77.1167992  23.1728039   5.1371005  77.7689588
  23.1207390   5.7226175  76.3738457  22.0039225  22.3544316  71.0112651
  22.2435824  22.9862840  71.6891669  21.1608422  22.0032356  71.2978010
  32.9865934  13.5021986  76.4492912  32.0992713  13.1647908  76.5719310
  33.5564485  12.7705017  76.6861677  26.5167087  18.1623438  73.4154155
  26.4437259  18.9678410  73.9273459  26.0744480  18.3615404  72.5902176
  26.3056867  17.3995208  66.9256976  25.5224389  17.9416888  67.0195201
  27.0049612  17.9169188  67.3251217  29.6153517   3.2089838  69.5691182
  30.1122217   2.4559800  69.2492252  28.8440499   3.2454154  69.0034391
  37.4683274   8.9130203  71.2109473  37.4573151   9.7954919  70.8403406
  36.6000654   8.5601754  71.0164010  28.9765771  18.0610272  75.5712313
  29.6893743  18.6957737  75.4988215  28.4855799  18.1574138  74.7552315
  30.6983298  11.9661525  67.1429605  29.7639576  12.0862987  66.9734309
  30.8759966  11.0633992  66.8789615  26.1988486   5.3507221  69.2962866
  25.8286273   4.7978261  69.9843772  26.6947578   4.7465354  68.7437866
  34.0855849   7.8078844  67.6779639  34.5516301   8.6406836  67.6039942
  34.5363350   7.3423826  68.3824898  24.0277684  15.8104716  76.3917884
  24.7287144  16.4441199  76.5447278  23.5572799  16.1519447  75.6313524
  32.1532080  14.1522665  64.6765791  32.4291924  14.0379260  65.5859665
  31.2836579  13.7540150  64.6377964  32.0572512   0.1759431  71.7170541
  31.1435592   0.4063658  71.8852748  32.4865613   0.2597875  72.5684573
  31.8278970   8.3649323  74.2170435  31.1750421   8.6125231  73.5622887
  32.2059350   7.5513461  73.8832912  28.7886144  18.4009016  68.3198605
  28.9708539  17.5830672  68.7826357  29.6119130  18.6176709  67.8823495
  29.1228310  17.3277201  65.5813653  29.6516076  16.8169656  64.9683815
  29.3856529  17.0119732  66.4459186  27.8766543   9.1069134  80.7036472
  27.2007180   9.0063263  81.3738847  28.6994177   8.9508348  81.1672469
  19.6245402  15.3441071  73.3248987  20.2098839  14.5984759  73.4576891
  19.4270241  15.6545027  74.2085651  22.4784058  18.3792318  68.3411429
  21.8094433  18.8638446  67.8575469  22.3396927  18.6261539  69.2554808
  26.6189326  20.4136062  74.9394088  27.1707634  20.5767683  75.7043173
  26.9595520  21.0040499  74.2674113  31.4700201  15.2397319  80.7942742
  32.0140104  15.8527277  80.2997697  30.8887045  15.7976898  81.3109755
  29.7557713  18.3618037  71.9257770  29.6308853  17.5607777  71.4168715
  30.4136805  18.8564230  71.4371740  31.8192622  16.1627057  73.5537320
  30.8722957  16.0432408  73.4815647  32.1675395  15.2749555  73.6363581
  28.8239055  15.9579773  69.7541672  28.6764018  15.0296481  69.9349242
  29.6492549  15.9799864  69.2698747  32.4273177  16.7808332  70.8406545
  33.3519724  16.5751193  70.7030996  32.2588480  16.5324733  71.7495886
  28.8200569   3.8117611  64.7473789  29.0364184   4.6942249  64.4462618
  28.3394637   3.4203824  64.0179431  23.5599791   6.7703324  71.3244534
  23.4144372   7.0843627  72.2168816  23.0824994   7.3888225  70.7715433
  27.2722304   4.1943212  73.4178551  27.0140082   5.1160283  73.4162881
  26.7407345   3.7973647  74.1079015  32.2168493  17.2994000  66.1968636
  32.3905371  16.7340422  65.4442489  32.7097384  18.0994894  66.0148126
  18.0345453   9.3108669  74.2632195  17.4898921  10.0868477  74.3952470
  18.9124803   9.6579473  74.1051317  38.0707884  10.0630423  67.8158936
  38.5139030   9.3137748  67.4178059  37.1934395  10.0540559  67.4332668
  33.2043666  16.6160764  63.2965535  33.8994570  17.2367457  63.5152849
  33.5466816  15.7656115  63.5717913  18.8211475   8.4378565  77.1562352
  18.0793211   8.5861200  77.7426982  18.5004219   8.6986831  76.2929101
  35.1035089  14.0660470  64.8252865  35.6286413  14.4047742  64.1002185
  35.0157441  13.1307485  64.6416000  26.7655138  17.9794543  76.9542742
  27.0742264  17.7343690  77.8265442  27.5630620  18.1841182  76.4661612
  26.7875750  20.1332453  69.1848119  26.3480740  19.6408832  69.8780975
  27.5383867  19.5905420  68.9440194  19.2668089  16.3243994  69.1872747
  20.0926108  16.0247766  68.8071390  18.9162141  15.5551616  69.6362535
  24.2349622  15.6770462  71.2570420  23.6129631  15.0141167  70.9572648
  24.9054489  15.7031594  70.5744068  17.4676694  14.2430320  70.1461680
  16.6308602  13.8152494  69.9645682  17.4400339  14.4362763  71.0832471
  34.7928995  14.6993373  80.1304063  34.0024539  14.6817512  79.5908563
  34.5562349  15.2381667  80.8853100  34.9126870  11.5485840  77.4436792
  34.9624875  11.3835847  78.3852315  34.8040793  10.6813099  77.0534673
  23.7963129  14.2274385  64.7328881  23.9451249  14.9109850  64.0795554
  24.6029572  14.2079475  65.2478337  32.2030632   7.5316768  78.7596099
  33.1040495   7.3923232  78.4680096  32.2778607   7.6971222  79.6994276
  26.5373438   4.9083622  77.6049285  25.6676747   5.2017188  77.3331873
  26.7732918   5.4924067  78.3256549  36.4145067  13.9682781  77.6878813
  36.1229875  14.3312762  78.5242274  35.8017198  13.2549789  77.5092146
  37.6140749  11.5335661  70.2081384  38.4487640  11.9725465  70.3718944
  37.7499878  11.0574314  69.3889629  34.6632255   9.0915396  76.1558871
  35.1386377   9.2843042  75.3477723  33.7397820   9.1474582  75.9102255
  21.5515762  10.2539563  65.7389950  21.3061804   9.3501893  65.9370160
  21.7211676  10.2556713  64.7969428  29.2412471   1.1263239  75.1214705
  29.7594415   1.8624266  74.7961194  28.8867604   1.4327233  75.9561464
  27.2958534  16.7222516  62.2040628  26.7232501  17.3412703  61.7511100
  27.8691328  17.2721877  62.7380550  33.3633924   5.9681156  74.3887177
  34.3151347   6.0679253  74.4099401  33.1937374   5.1759424  74.8985261
  31.3848303   3.0536739  74.5746578  30.7898236   3.3341752  73.8793067
  31.0998000   3.5430640  75.3463319  30.5155794  17.0059666  63.3349211
  31.4486467  16.9405227  63.5382086  30.4279007  17.8415933  62.8763743
  33.1443811  16.3225536  60.2953158  33.0657442  15.9885400  61.1888916
  33.9653477  16.8147304  60.2944630  35.8422002   9.1887275  73.5029477
  35.8098322   8.2503276  73.6889161  36.4522625   9.2671312  72.7695302
  27.6805333   8.0583328  59.5456681  28.6264437   7.9289537  59.6145099
  27.3019578   7.3197990  60.0226109  35.9916490   5.9798319  73.5487760
  35.4755539   5.1956776  73.3617689  36.8756439   5.6517036  73.7134279
  33.6527217  -0.2760666  69.5083573  33.4552038  -0.5845577  70.3926905
  34.2626923   0.4500973  69.6381502  41.6598552  10.2503282  72.6435513
  42.3901940   9.9888570  73.2043217  41.0505497   9.5132004  72.6837581
  39.7413849   8.3911145  73.2409965  39.0147012   8.2567110  72.6326456
  39.3261136   8.6987974  74.0466683  27.5644025  12.1101075  81.0057338
  28.4847035  12.2879674  81.1997384  27.5293608  11.1657120  80.8537037
  25.8648250   5.9833305  59.4811566  24.9579705   5.6866418  59.5574280
  26.1424231   5.6863123  58.6145852  20.5606098  10.0202109  73.6480119
  20.7792108  10.9519217  73.6668153  20.9731872   9.6610084  74.4334923
  25.4333963   5.5935315  83.0382868  25.3330690   6.5429672  82.9694959
  25.2155505   5.2653554  82.1658938  16.6514450  10.9242580  71.9003734
  15.9577922  10.5096533  71.3873688  17.3987441  10.9663116  71.3037153
  32.7879671   1.7148767  66.7658768  32.2078340   2.3733571  66.3836821
  32.5215604   0.8926111  66.3546186  31.2383237   1.1153824  68.9680088
  31.7383016   1.2270359  68.1594407  31.8818845   0.8114877  69.6080897
  25.2965233   9.0232454  81.8547929  24.8132315   9.8232814  82.0611818
  25.3826172   9.0340399  80.9015373  18.5651193  10.8560834  69.7769749
  18.5421881  10.9548521  68.8251632  18.8751829  11.7025984  70.0986915
  21.2238571  12.9136989  73.8916363  22.1781824  12.8820931  73.8246295
  21.0251094  12.4527612  74.7066589  21.8137953  11.4838105  76.4587161
  22.6330842  11.9782183  76.4821998  22.0874760  10.5670073  76.4304728
  31.5704549   3.8748857  65.8215116  30.6830404   4.1598508  65.6035311
  31.9858538   3.7142620  64.9742393  34.9219085   3.8995378  69.5369456
  35.6979475   4.3891830  69.8094072  34.1967219   4.3253432  69.9941325
  37.3591644   4.6122997  70.5943396  37.9536134   4.3718733  69.8836705
  37.4318227   3.8930128  71.2216933  19.5788799  18.4556608  70.9086561
  19.4443267  17.6957009  70.3424559  19.1620862  19.1797508  70.4415350
  30.7147762  13.6393532  59.9163136  31.4183613  13.8443534  60.5320792
  29.9910411  14.2070293  60.1812220  31.5445573   9.3903393  66.0365407
  31.4880774   9.8471944  65.1973039  32.0973915   8.6294077  65.8588249
  35.3550379   5.1793125  66.8615526  35.0987313   4.7789760  67.6923734
  34.7303247   5.8936919  66.7365665  39.6662716   7.9189198  69.3686817
  39.1062274   7.9882387  70.1418380  39.0606220   7.7430183  68.6486314
  22.7357925  19.3525925  71.1205004  22.6190309  20.2971358  71.0183694
  21.9150372  19.0499487  71.5090803  32.6234460  14.0776061  61.9661596
  33.4580064  13.6457259  61.7839071  32.4618803  13.9058074  62.8938491
  32.2780352  10.5808174  63.3317936  32.2229156  10.4152445  62.3906380
  31.6526407  11.2884207  63.4880125  29.5926259  12.8857086  82.6571499
  30.4617419  13.0597738  82.2958133  29.1133011  13.7051503  82.5347228
  23.7612439  20.0054187  74.3360932  24.6639686  20.0377797  74.6527427
  23.5349809  19.0754638  74.3507268  25.5166041  18.7585173  70.9971011
  24.5661672  18.7587035  70.8835383  25.8198528  18.0117908  70.4807045
  41.2518735  24.5945712  72.0616773  41.8897145  24.4752459  71.3580113
  41.1339578  25.5426556  72.1204725  38.0608441  24.5473140  71.9978298
  37.7226953  24.4314205  71.1098833  38.9298209  24.1464305  71.9779304
  33.9195257  26.4008616  67.9875189  33.3560122  26.3098553  67.2191477
  33.8047652  25.5808521  68.4677681  38.5428224  25.7007992  77.9564503
  38.5316865  25.3060790  77.0845007  38.7048864  24.9674064  78.5498275
  31.4659689  27.8959808  70.8259409  32.2580981  27.5550633  70.4105709
  31.7056339  28.0054783  71.7461563  39.4994816  30.0679584  63.2989654
  38.8482795  30.6533665  62.9123668  40.2939178  30.5985779  63.3584691
  33.4250443  27.1568721  63.6976788  34.1981319  26.6097708  63.5589664
  33.7775842  28.0212971  63.9091249  35.2635485  28.4845104  76.9043687
  34.9725351  29.3890734  76.7890354  35.8992470  28.5261631  77.6187757
  36.1891692  25.8621952  73.4945047  36.7855264  25.6377974  72.7802010
  36.2466664  25.1206698  74.0970495  35.7616721  23.3161387  61.3295238
  36.0142241  22.7942909  60.5678701  34.8241280  23.1527533  61.4321922
  40.8060003  22.3197166  69.1369981  41.5923093  21.9016589  68.7860398
  41.0698708  23.2243258  69.3051630  40.9770081  27.7570016  63.8358638
  40.3415914  27.8304643  64.5479543  40.6467487  28.3463615  63.1577717
  35.4813009  25.2189493  63.5319613  35.3649267  24.5434397  64.2000697
  35.5915269  24.7321867  62.7151766  37.8244550  24.6799640  67.2366302
  37.4602757  24.1530261  67.9479224  38.6811666  24.2898109  67.0632788
  37.4650037  19.7089540  62.2327651  37.6324440  20.5769777  62.5998122
  37.2747206  19.8716822  61.3088940  33.6737852  24.6220316  69.9330186
  32.7488348  24.4896530  70.1407877  33.9222265  25.4014535  70.4300128
  37.4439258  22.1647198  63.2174318  37.3238883  22.6104248  64.0559798
  36.7491846  22.5132515  62.6587856  31.0346663  24.2653589  70.7673975
  31.1639044  24.5188068  71.6813386  30.3544114  24.8581297  70.4478630
  35.2046150  34.9350839  66.8664449  35.1270180  35.8858664  66.9452929
  34.6007794  34.5896712  67.5239375  37.6963380  22.1078705  79.5225816
  36.9196714  22.6672625  79.5128680  38.3353943  22.5935488  80.0440686
  43.1424324  22.6368671  64.0454652  44.0542180  22.8696058  63.8702349
  42.6333971  23.2205715  63.4829730  35.9509752  24.9164158  79.0843783
  36.6924437  25.4549202  78.8078606  35.2446738  25.5430447  79.2415334
  37.7796162  21.9965905  75.0549501  38.6257357  22.4205319  75.1984150
  37.7194800  21.3399530  75.7488064  41.7493907  27.6194489  71.4368233
  41.1202769  27.7840203  70.7344301  41.3619569  28.0336099  72.2079197
  37.3021868  27.3568897  68.7018318  37.7660214  27.6356600  67.9122941
  37.0378667  26.4552342  68.5191409  34.1945949  26.9040379  71.6398081
  34.7647307  27.3327647  71.0015566  34.7854061  26.6222964  72.3382267
  36.2390754  23.4792050  65.5107883  36.9414798  23.9313093  65.9781810
  35.9071383  22.8375869  66.1387776  34.6871116  22.0703806  79.8859093
  34.0569777  22.7520087  80.1194490  34.5807204  21.9586888  78.9412231
  29.9816088  21.7375602  70.8125017  29.1915142  21.9933131  70.3365127
  30.4727336  22.5523940  70.9177057  31.9330834  22.1020182  67.7708494
  31.1361997  22.2138876  68.2891989  31.7056426  22.4406834  66.9049384
  28.2653791  21.9906093  73.2440008  28.5161830  22.8753103  73.5097584
  28.8013340  21.8110694  72.4715099  37.4784519  30.2932992  65.5869989
  37.3430194  31.1384528  66.0154836  38.0194332  30.4952270  64.8235922
  33.9651859  16.3724572  82.2484344  33.5718804  15.8190771  82.9231988
  34.7817999  16.6835151  82.6390861  30.9313916  27.8108430  66.1597914
  31.4438437  28.6051681  66.3103478  31.5836629  27.1134721  66.0931515
  32.7408801  30.9274187  68.2420667  32.9175430  31.8492151  68.0541651
  33.5365635  30.6132606  68.6715047  36.8819820  17.7882451  79.8404600
  37.6229533  18.3889604  79.7609063  37.1137743  17.0460089  79.2822643
  32.0261158  22.9738819  78.1182830  31.9114673  22.0724076  78.4189929
  31.1705675  23.2202515  77.7667647  33.8640117  32.4452360  74.2431009
  34.4147542  32.3169424  73.4708003  33.0251593  32.7447249  73.8925902
  28.8962833  26.1397085  66.9357484  29.7338055  26.5494093  66.7191192
  29.0741101  25.1996527  66.9057678  40.7927265  23.8072165  62.6241317
  40.2773889  24.5776770  62.8629705  40.5204574  23.1337301  63.2474379
  38.3774376  18.6521866  67.6826555  37.5215973  18.2628716  67.5032194
  38.7901328  18.7313827  66.8226341  36.1516409  16.2706939  71.0884297
  37.0169406  16.0749748  70.7290186  36.2193918  16.0417291  72.0153654
  45.7661540  26.5604520  64.5594491  44.9890982  26.2215679  64.1149653
  46.4453020  26.5657143  63.8849456  40.5813569  21.6799257  64.4501098
  40.2763704  21.9945407  65.3011241  41.5344011  21.7580677  64.4928431
  39.0260000  27.8389481  66.0994052  38.4981362  27.1042240  65.7867290
  38.5247503  28.6164157  65.8534021  33.7578728  18.5009147  68.4600664
  34.3322480  18.2784329  67.7273857  34.3449710  18.5697842  69.2129265
  42.8158305  24.3882874  69.2665040  43.3290187  25.0212866  69.7686750
  43.4659529  23.7884069  68.9008400  34.0848315  20.5313608  62.4796549
  33.2485627  20.8688295  62.8005824  33.9453085  20.3962588  61.5423686
  36.0601396  15.3750396  67.1875733  35.4065808  15.0599413  66.5632348
  36.0181870  14.7526136  67.9135556  37.1712601  25.6569691  59.1029025
  36.2639662  25.4258944  59.3020174  37.6683633  24.8607310  59.2903007
  40.0780679  34.3667198  62.0225711  39.4042378  34.6698895  62.6310669
  40.4646501  35.1696279  61.6731169  39.2939136  21.8632329  71.5123381
  38.3761697  22.0847276  71.3545069  39.7099280  21.9378640  70.6535088
  40.0774184  23.2623745  66.6426061  40.8246003  23.7745142  66.3333183
  40.3465773  22.9407798  67.5030455  38.3500834  25.7582286  63.6253015
  37.4412053  25.4741319  63.7225485  38.3795918  26.1781364  62.7656322
  43.5820101  29.3688875  67.3944183  43.1282429  28.5279785  67.4509373
  42.9514068  30.0050274  67.7318963  42.0253041  31.2065372  68.3294001
  42.3176015  31.7670429  67.6106367  42.5351661  31.4993933  69.0847160
  42.6264648  13.0757113  69.2186620  42.9323525  12.2154477  68.9312535
  43.3517253  13.6674734  69.0185614  28.9189004  23.4787800  67.6068218
  28.7213404  22.8857161  66.8819284  28.3635668  23.1740010  68.3244156
  36.8985728  23.3710906  69.7262811  36.9534338  22.4184743  69.6505287
  36.0876930  23.5270346  70.2104109  38.0476922  27.2991030  60.9641094
  37.6096352  26.5826888  60.5046731  38.7887363  27.5267144  60.4026185
  34.8378088  21.9887966  67.4853190  34.0245954  22.2882137  67.8918382
  35.3337082  21.5943655  68.2027672  36.9886666  31.9845723  69.4187454
  36.9462845  32.2106569  68.4895986  37.9049365  31.7509098  69.5673255
  34.3292163  19.5606322  73.1014425  34.9691542  19.4195081  72.4037388
  33.4969693  19.2740835  72.7253027  35.1052467  28.8608752  69.2149417
  35.8993065  28.3659072  69.0131992  34.3944159  28.3326615  68.8517123
  39.9247311  31.2426848  73.5661785  39.9784333  31.8117784  74.3339501
  39.0562092  31.4128733  73.2015822  31.4135230  23.0051834  65.2909170
  30.4832818  22.9436289  65.5079132  31.5092702  22.4827787  64.4945811
  31.3320779  19.5306647  67.8787411  31.5927596  20.4451980  67.7696572
  32.1537951  19.0631089  68.0284024  32.8045704  20.9444404  75.0486236
  33.4768758  20.7361766  74.3998885  31.9775491  20.7466490  74.6091468
  38.8835411  25.4087110  75.1248716  39.8127471  25.5598269  74.9517684
  38.4626441  25.4971131  74.2697363  37.6823743  29.4337774  72.8947254
  37.5434828  29.0656559  73.7673192  36.8938339  29.9485414  72.7231212
  38.2771895  34.5346871  64.2372791  38.4523650  34.0634914  65.0518413
  37.5904683  35.1612637  64.4654051  39.2328958  28.8119377  70.2836092
  38.8978790  28.7720147  71.1793742  38.7332903  28.1464093  69.8106502
  33.2073202  24.2187007  75.8088673  33.0693000  23.4867246  76.4100212
  34.1178125  24.1295907  75.5272861  42.1688149  26.1575411  60.5573152
  41.5517320  25.4322239  60.4606204  41.7004638  26.9184771  60.2140226
  35.8355502  23.9306966  75.2972353  36.5455121  23.2900158  75.2558971
  35.7924811  24.1819861  76.2198533  34.5484436  20.9172184  77.1167992
  34.0121793  20.4662923  77.7689588  33.9601145  21.0518093  76.3738457
  32.8432980  37.6836233  71.0112651  33.0829578  38.3154758  71.6891669
  32.0002176  37.3324273  71.2978010  33.9586695  20.3760835  59.6794456
  33.0816162  20.2549636  59.3156702  34.4344448  19.5846914  59.4273344
  25.4788835  25.1637995  69.7735963  26.1659875  24.8499725  69.1856978
  25.3236964  26.0679360  69.5003214  30.2823558  20.0528192  74.2020987
  30.1981746  19.4453861  73.4671397  29.4606264  20.5437210  74.2030483
  37.3560842  33.4915356  73.4154155  37.2831013  34.2970327  73.9273459
  36.9138235  33.6907322  72.5902176  37.1450621  32.7287126  66.9256976
  36.3618143  33.2708806  67.0195201  37.8443367  33.2461105  67.3251217
  40.4547271  18.5381755  69.5691182  40.9515971  17.7851718  69.2492252
  39.6834253  18.5746072  69.0034391  41.5377052  27.2953443  67.1429605
  40.6033331  27.4154905  66.9734309  41.7153721  26.3925909  66.8789615
  37.0382240  20.6799138  69.2962866  36.6680028  20.1270179  69.9843772
  37.5341333  20.0757272  68.7437866  34.8671439  31.1396633  76.3917884
  35.5680898  31.7733116  76.5447278  34.3966554  31.4811365  75.6313524
  42.9925835  29.4814583  64.6765791  43.2685679  29.3671178  65.5859665
  42.1230333  29.0832068  64.6377964  39.6279899  33.7300934  68.3198605
  39.8102293  32.9122590  68.7826357  40.4512885  33.9468626  67.8823495
  39.9622064  32.6569119  65.5813653  40.4909831  32.1461574  64.9683815
  40.2250284  32.3411649  66.4459186  38.7160298  24.4361052  80.7036472
  38.0400935  24.3355181  81.3738847  39.5387932  24.2800266  81.1672469
  30.4639157  30.6732988  73.3248987  31.0492594  29.9276676  73.4576891
  30.2663995  30.9836945  74.2085651  33.3177812  33.7084236  68.3411429
  32.6488187  34.1930363  67.8575469  33.1790682  33.9553456  69.2554808
  25.0556812  23.2438589  72.0453430  25.0940911  22.7102179  72.8390548
  24.5497104  22.7173794  71.4264407  37.4583081  35.7427979  74.9394088
  38.0101389  35.9059601  75.7043173  37.7989274  36.3332417  74.2674113
  32.4347574  18.0903129  75.5415972  32.4988900  18.9517960  75.1293370
  32.3714694  17.4777131  74.8088331  31.9099846  20.1626262  79.1889007
  32.5371885  19.7803339  79.8026531  31.0527765  19.9440464  79.5544699
  28.6865389  21.9702691  65.1207361  28.9818830  21.0613369  65.0674415
  27.7853425  21.9490430  64.7988364  40.5951468  33.6909955  71.9257770
  40.4702607  32.8899695  71.4168715  41.2530559  34.1856148  71.4371740
  32.2159636  20.0458687  71.1034910  31.4946222  20.6594655  70.9642383
  33.0052892  20.5816452  71.0251556  35.0185950  17.3813114  77.3775562
  35.5420352  17.6275410  78.1401871  34.7998283  18.2133149  76.9578699
  30.4153231  19.6516788  65.2446687  30.0865937  18.7714167  65.0621793
  30.7692601  19.5964457  66.1323076  39.6632810  31.2871691  69.7541672
  39.5157772  30.3588399  69.9349242  40.4886303  31.3091782  69.2698747
  33.5295054  19.9389758  65.6122164  33.8691126  20.4675679  64.8900773
  33.9767174  20.2770164  66.3880731  43.2666931  32.1100250  70.8406545
  44.1913479  31.9043111  70.7030996  43.0982235  31.8616651  71.7495886
  36.2238495  18.3226809  75.0625232  35.8835315  17.5234622  75.4645912
  35.5177501  18.6228520  74.4902066  35.5163201  18.4364380  63.8115457
  36.2371564  18.8145633  63.3079174  34.8928505  19.1553257  63.9150435
  39.6594324  19.1409529  64.7473789  39.8757938  20.0234167  64.4462618
  39.1788391  18.7495742  64.0179431  34.3993545  22.0995242  71.3244534
  34.2538126  22.4135545  72.2168816  33.9218749  22.7180142  70.7715433
  36.2589928  19.0897790  71.3725424  36.2451497  18.1938883  71.0357721
  36.9762356  19.0968454  72.0063710  38.1116059  19.5235130  73.4178551
  37.8533837  20.4452201  73.4162881  37.5801099  19.1265565  74.1079015
  43.0562248  32.6285917  66.1968636  43.2299125  32.0632340  65.4442489
  43.5491139  33.4286812  66.0148126  28.8739207  24.6400586  74.2632195
  28.3292676  25.4160394  74.3952470  29.7518557  24.9871391  74.1051317
  35.6626824  17.9712170  66.6412994  35.7842735  17.0428816  66.8403881
  35.3728867  17.9850856  65.7291309  38.5318015  15.6567081  69.7779714
  38.5539711  15.7206414  68.8231693  38.9486074  14.8171589  69.9720220
  44.0437420  31.9452682  63.2965535  44.7388325  32.5659374  63.5152849
  44.3860570  31.0948033  63.5717913  29.6605229  23.7670483  77.1562352
  28.9186965  23.9153118  77.7426982  29.3397974  24.0278748  76.2929101
  45.9428843  29.3952387  64.8252865  46.4680167  29.7339660  64.1002185
  45.8551196  28.4599403  64.6416000  37.6269504  35.4624370  69.1848119
  37.1874494  34.9700749  69.8780975  38.3777621  34.9197338  68.9440194
  30.1061843  31.6535911  69.1872747  30.9319863  31.3539683  68.8071390
  29.7555895  30.8843534  69.6362535  35.0743376  31.0062380  71.2570420
  34.4523385  30.3433085  70.9572648  35.7448243  31.0323511  70.5744068
  28.3070448  29.5722238  70.1461680  27.4702356  29.1444412  69.9645682
  28.2794094  29.7654681  71.0832471  35.1467904  19.4844168  80.8502926
  35.1956059  20.3606290  80.4680696  35.6890418  18.9421561  80.2774570
  34.6356883  29.5566303  64.7328881  34.7845003  30.2401767  64.0795554
  35.4423327  29.5371393  65.2478337  37.3767192  20.2375540  77.6049285
  36.5070502  20.5309106  77.3331873  37.6126672  20.8215985  78.3256549
  32.3909516  25.5831481  65.7389950  32.1455558  24.6793811  65.9370160
  32.5605431  25.5848631  64.7969428  31.6605164  21.3159838  63.2376111
  30.9674409  21.3904193  62.5816147  31.4156916  20.5520182  63.7597628
  38.1352289  32.0514433  62.2040628  37.5626256  32.6704620  61.7511100
  38.7085082  32.6013795  62.7380550  41.3549548  32.3351583  63.3349211
  42.2880222  32.2697145  63.5382086  41.2672761  33.1707850  62.8763743
  43.9837565  31.6517454  60.2953158  43.9051197  31.3177317  61.1888916
  44.8047232  32.1439222  60.2944630  38.5199087  23.3875246  59.5456681
  39.4658192  23.2581454  59.6145099  38.1413332  22.6489908  60.0226109
  38.4037780  27.4392992  81.0057338  39.3240789  27.6171591  81.1997384
  38.3687363  26.4949038  80.8537037  36.7042004  21.3125223  59.4811566
  35.7973460  21.0158335  59.5574280  36.9817985  21.0155041  58.6145852
  27.6219945  22.6331586  69.9310612  27.3022729  21.7796894  69.6384986
  27.0753373  22.8480164  70.6868580  31.3999852  25.3494027  73.6480119
  31.6185862  26.2811135  73.6668153  31.8125626  24.9902001  74.4334923
  38.3204070  15.8562112  65.6355807  37.5104798  15.5109197  66.0111053
  39.0088487  15.5469656  66.2243419  40.2494618  14.9340159  67.2580104
  40.8025657  15.3535612  67.9170127  40.4864705  14.0075907  67.3003060
  36.2727718  20.9227233  83.0382868  36.1724444  21.8721590  82.9694959
  36.0549260  20.5945472  82.1658938  35.4740789  18.1712158  59.6223545
  36.3359953  18.4967056  59.8819363  35.6591133  17.3843654  59.1096611
  27.4908205  26.2534497  71.9003734  26.7971676  25.8388450  71.3873688
  28.2381196  26.2955034  71.3037153  36.1358988  24.3524372  81.8547929
  35.6526069  25.1524732  82.0611818  36.2219927  24.3632316  80.9015373
  29.4044947  26.1852751  69.7769749  29.3815635  26.2840438  68.8251632
  29.7145584  27.0317902  70.0986915  32.0632325  28.2428906  73.8916363
  33.0175579  28.2112849  73.8246295  31.8644849  27.7819530  74.7066589
  32.6531707  26.8130022  76.4587161  33.4724596  27.3074101  76.4821998
  32.9268515  25.8961990  76.4304728  30.4182554  33.7848526  70.9086561
  30.2837022  33.0248927  70.3424559  30.0014616  34.5089426  70.4415350
  41.5541517  28.9685449  59.9163136  42.2577367  29.1735452  60.5320792
  40.8304166  29.5362211  60.1812220  42.3839327  24.7195311  66.0365407
  42.3274529  25.1763862  65.1973039  42.9367670  23.9585995  65.8588249
  33.5751680  34.6817843  71.1205004  33.4584064  35.6263275  71.0183694
  32.7544126  34.3791404  71.5090803  43.4628214  29.4067978  61.9661596
  44.2973818  28.9749177  61.7839071  43.3012557  29.2349992  62.8938491
  43.1174106  25.9100092  63.3317936  43.0622910  25.7444363  62.3906380
  42.4920162  26.6176125  63.4880125  27.9066621  21.1468156  77.1579358
  28.5525485  20.6367110  77.6466583  27.6983773  21.8836838  77.7322783
  36.4270232  15.4108201  62.9103254  36.4148902  16.3550041  63.0671525
  37.3193654  15.2278346  62.6162715  34.6006194  35.3346105  74.3360932
  35.5033441  35.3669715  74.6527427  34.3743564  34.4046556  74.3507268
  36.3559796  34.0877091  70.9971011  35.4055427  34.0878953  70.8835383
  36.6592282  33.3409826  70.4807045  40.2422351  12.0050977  67.1649191
  39.4754747  11.4509464  67.3105873  40.6533056  12.0772846  68.0263343
  32.2464112  18.2935773  81.2554372  33.1095574  17.9372578  81.4657697
  31.6729523  17.9549668  81.9429776  42.3053443  43.2251726  70.8259409
  43.0974735  42.8842550  70.4105709  42.5450093  43.3346701  71.7461563
  50.3388570  45.3971502  63.2989654  49.6876550  45.9825582  62.9123668
  51.1332933  45.9277697  63.3584691  44.2644197  42.4860639  63.6976788
  45.0375073  41.9389626  63.5589664  44.6169596  43.3504888  63.9091249
  46.6010475  38.6453305  61.3295238  46.8535996  38.1234826  60.5678701
  45.6635034  38.4819450  61.4321922  46.3206764  40.5481411  63.5319613
  46.2043022  39.8726314  64.2000697  46.4309024  40.0613785  62.7151766
  48.3043792  35.0381458  62.2327651  48.4718194  35.9061694  62.5998122
  48.1140961  35.2008739  61.3088940  48.2833013  37.4939115  63.2174318
  48.1632638  37.9396166  64.0559798  47.5885601  37.8424433  62.6587856
  41.8740417  39.5945507  70.7673975  42.0032799  39.8479986  71.6813386
  41.1937869  40.1873215  70.4478630  53.9818079  37.9660588  64.0454652
  54.8935935  38.1987975  63.8702349  53.4727726  38.5497633  63.4829730
  47.0784509  38.8083967  65.5107883  47.7808552  39.2605011  65.9781810
  46.7465137  38.1667786  66.1387776  40.8209843  37.0667520  70.8125017
  40.0308897  37.3225049  70.3365127  41.3121090  37.8815858  70.9177057
  42.7724588  37.4312099  67.7708494  41.9755752  37.5430794  68.2891989
  42.5450181  37.7698752  66.9049384  39.1047546  37.3198010  73.2440008
  39.3555584  38.2045020  73.5097584  39.6407094  37.1402612  72.4715099
  41.7707671  43.1400348  66.1597914  42.2832192  43.9343598  66.3103478
  42.4230384  42.4426638  66.0931515  43.5802556  46.2566104  68.2420667
  43.7569184  47.1784069  68.0541651  44.3759389  45.9424524  68.6715047
  39.7356588  41.4689002  66.9357484  40.5731810  41.8786011  66.7191192
  39.9134855  40.5288445  66.9057678  51.6321020  39.1364083  62.6241317
  51.1167643  39.9068688  62.8629705  51.3598328  38.4629219  63.2474379
  44.5972482  33.8301065  68.4600664  45.1716234  33.6076246  67.7273857
  45.1843465  33.8989759  69.2129265  44.9242070  35.8605526  62.4796549
  44.0879382  36.1980212  62.8005824  44.7846839  35.7254506  61.5423686
  46.8995150  30.7042314  67.1875733  46.2459563  30.3891331  66.5632348
  46.8575624  30.0818054  67.9135556  48.0106355  40.9861609  59.1029025
  47.1033417  40.7550862  59.3020174  48.5077387  40.1899228  59.2903007
  50.9174434  49.6959116  62.0225711  50.2436133  49.9990813  62.6310669
  51.3040256  50.4988196  61.6731169  49.1894589  41.0874204  63.6253015
  48.2805808  40.8033236  63.7225485  49.2189672  41.5073282  62.7656322
  39.7582759  38.8079718  67.6068218  39.5607159  38.2149078  66.8819284
  39.2029423  38.5031928  68.3244156  48.8870676  42.6282947  60.9641094
  48.4490106  41.9118806  60.5046731  49.6281117  42.8559062  60.4026185
  42.2528985  38.3343752  65.2909170  41.3226573  38.2728207  65.5079132
  42.3486457  37.8119704  64.4945811  42.1714534  34.8598564  67.8787411
  42.4321351  35.7743898  67.7696572  42.9931706  34.3923007  68.0284024
  53.0081904  41.4867329  60.5573152  52.3911075  40.7614157  60.4606204
  52.5398392  42.2476689  60.2140226  44.7980450  35.7052753  59.6794456
  43.9209916  35.5841554  59.3156702  45.2738203  34.9138831  59.4273344
  36.3182590  40.4929913  69.7735963  37.0053630  40.1791643  69.1856978
  36.1630719  41.3971278  69.5003214  41.1217312  35.3820109  74.2020987
  41.0375501  34.7745779  73.4671397  40.3000019  35.8729128  74.2030483
  35.8950566  38.5730506  72.0453430  35.9334666  38.0394097  72.8390548
  35.3890859  38.0465712  71.4264407  39.5259144  37.2994608  65.1207361
  39.8212585  36.3905287  65.0674415  38.6247179  37.2782348  64.7988364
  43.0553391  35.3750605  71.1034910  42.3339976  35.9886573  70.9642383
  43.8446646  35.9108370  71.0251556  41.2546985  34.9808706  65.2446687
  40.9259691  34.1006085  65.0621793  41.6086356  34.9256375  66.1323076
  44.3688808  35.2681676  65.6122164  44.7084881  35.7967597  64.8900773
  44.8160929  35.6062082  66.3880731  46.3556956  33.7656297  63.8115457
  47.0765318  34.1437550  63.3079174  45.7322260  34.4845174  63.9150435
  39.7132962  39.9692504  74.2632195  39.1686430  40.7452312  74.3952470
  40.5912312  40.3163309  74.1051317  46.5020579  33.3004088  66.6412994
  46.6236490  32.3720734  66.8403881  46.2122621  33.3142774  65.7291309
  40.4998984  39.0962400  77.1562352  39.7580720  39.2445036  77.7426982
  40.1791728  39.3570666  76.2929101  45.4750638  44.8858221  64.7328881
  45.6238758  45.5693685  64.0795554  46.2817081  44.8663311  65.2478337
  43.2303271  40.9123398  65.7389950  42.9849313  40.0085728  65.9370160
  43.3999185  40.9140549  64.7969428  42.4998918  36.6451756  63.2376111
  41.8068163  36.7196111  62.5816147  42.2550670  35.8812099  63.7597628
  48.9746043  47.3806351  62.2040628  48.4020010  47.9996538  61.7511100
  49.5478837  47.9305713  62.7380550  52.1943303  47.6643501  63.3349211
  53.1273976  47.5989063  63.5382086  52.1066516  48.4999768  62.8763743
  54.8231320  46.9809372  60.2953158  54.7444951  46.6469235  61.1888916
  55.6440986  47.4731139  60.2944630  49.3592842  38.7167164  59.5456681
  50.3051946  38.5873372  59.6145099  48.9807087  37.9781826  60.0226109
  47.5435759  36.6417140  59.4811566  46.6367214  36.3450253  59.5574280
  47.8211740  36.3446958  58.6145852  38.4613699  37.9623504  69.9310612
  38.1416484  37.1088812  69.6384986  37.9147127  38.1772082  70.6868580
  42.2393607  40.6785945  73.6480119  42.4579616  41.6103052  73.6668153
  42.6519381  40.3193919  74.4334923  46.3134543  33.5004075  59.6223545
  47.1753707  33.8258974  59.8819363  46.4984888  32.7135571  59.1096611
  38.3301959  41.5826415  71.9003734  37.6365431  41.1680368  71.3873688
  39.0774950  41.6246952  71.3037153  40.2438702  41.5144669  69.7769749
  40.2209390  41.6132356  68.8251632  40.5539338  42.3609820  70.0986915
  52.3935271  44.2977367  59.9163136  53.0971121  44.5027369  60.5320792
  51.6697920  44.8654129  60.1812220  38.7460376  36.4760074  77.1579358
  39.3919240  35.9659028  77.6466583  38.5377527  37.2128755  77.7322783
  47.2663986  30.7400118  62.9103254  47.2542656  31.6841958  63.0671525
  48.1587408  30.5570264  62.6162715  59.1437546  50.3673375  62.2327651
  59.3111949  51.2353612  62.5998122  58.9534715  50.5300657  61.3088940
  56.8833659  65.5934675  66.8664449  56.8057689  66.5442500  66.9452929
  56.2795303  65.2480547  67.5239375  54.4196310  61.5858022  68.2420667
  54.5962938  62.5075987  68.0541651  55.2153144  61.2716441  68.6715047
  60.0561885  49.3105701  67.6826555  59.2003482  48.9212552  67.5032194
  60.4688837  49.3897662  66.8226341  55.7635824  51.1897443  62.4796549
  54.9273136  51.5272130  62.8005824  55.6240594  51.0546423  61.5423686
  58.8500110  56.3153526  59.1029025  57.9427171  56.0842780  59.3020174
  59.3471142  55.5191146  59.2903007  64.3052157  43.7340949  69.2186620
  64.6111034  42.8738312  68.9312535  65.0304762  44.3258569  69.0185614
  59.9559404  65.1930706  64.2372791  60.1311159  64.7218749  65.0518413
  59.2692192  65.8196472  64.4654051  63.8475658  56.8159247  60.5573152
  63.2304829  56.0906075  60.4606204  63.3792147  57.5768607  60.2140226
  55.6374204  51.0344671  59.6794456  54.7603671  50.9133472  59.3156702
  56.1131957  50.2430749  59.4273344  61.6409573  63.3152954  65.5813653
  62.1697340  62.8045409  64.9683815  61.9037793  62.9995485  66.4459186
  54.9965321  64.3668071  68.3411429  54.3275696  64.8514199  67.8575469
  54.8578191  64.6137292  69.2554808  52.0940740  50.3100624  65.2446687
  51.7653446  49.4298003  65.0621793  52.4480110  50.2548292  66.1323076
  57.1950710  49.0948215  63.8115457  57.9159073  49.4729468  63.3079174
  56.5716014  49.8137092  63.9150435  61.3381833  49.7993364  64.7473789
  61.5545447  50.6818002  64.4462618  60.8575900  49.4079577  64.0179431
  60.2105524  46.3150916  69.7779714  60.2327220  46.3790249  68.8231693
  60.6273583  45.4755425  69.9720220  59.8139798  62.7098269  62.2040628
  59.2413765  63.3288456  61.7511100  60.3872591  63.2597630  62.7380550
  58.3829513  51.9709058  59.4811566  57.4760969  51.6742171  59.5574280
  58.6605494  51.6738876  58.6145852  61.9282127  45.5923994  67.2580104
  62.4813166  46.0119448  67.9170127  62.1652214  44.6659742  67.3003060
  57.1528298  48.8295993  59.6223545  58.0147462  49.1550891  59.8819363
  57.3378642  48.0427489  59.1096611  63.7564501  47.1029577  68.9680088
  64.2564279  47.2146112  68.1594407  64.4000109  46.7990630  69.6080897
  61.9209860  42.6634813  67.1649191  61.1542256  42.1093299  67.3105873
  62.3320565  42.7356682  68.0263343  66.4833122  62.3600325  82.2484344
  66.0900068  61.8066524  82.9231988  67.2999263  62.6710904  82.6390861
  61.4370268  69.4663553  67.6068218  61.2394668  68.8732914  66.8819284
  60.8816932  69.1615763  68.3244156  61.2046653  67.9578444  65.1207361
  61.5000094  67.0489122  65.0674415  60.3034688  67.9366183  64.7988364
  64.7645376  64.2811526  81.2554372  65.6276837  63.9248331  81.4657697
  64.1910787  63.9425421  81.9429776  86.2409088  87.5176557  75.3907940
  86.4525983  88.1608317  74.7142321  86.1938836  86.6838873  74.9229870
  87.3554916  90.3948512  73.5630298  88.1772360  89.9928700  73.2812979
  87.3517319  90.2916746  74.5146413  84.5609251  92.5127029  77.7451732
  84.5427727  93.3335911  77.2532001  85.4829172  92.3881105  77.9701873
  87.1817299  92.1841990  78.2178932  87.1229845  91.5001210  77.5509515
  87.5836817  92.9260980  77.7659558  87.1834706  90.1481574  76.4492912
  86.2961485  89.8107496  76.5719310  87.7533257  89.4164605  76.6861677
  88.9897767  91.3452962  80.1304063  88.1993311  91.3277100  79.5908563
  88.7531122  91.8841255  80.8853100  88.8839888  98.7163395  79.8859093
  88.2538549  99.3979676  80.1194490  88.7775976  98.6046476  78.9412231
  92.9129070 101.0820640  80.7036472  92.2369707 100.9814770  81.3738847
  93.7356704 100.9259854  81.1672469  86.1068619  96.8085850  79.1889007
  86.7340658  96.4262927  79.8026531  85.2496538  96.5900052  79.5544699
  89.2154722  94.0272702  77.3775562  89.7389124  94.2734999  78.1401871
  88.9967055  94.8592737  76.9578699  89.3436676  96.1303756  80.8502926
  89.3924832  97.0065879  80.4680696  89.8859190  95.5881149  80.2774570
  98.1806338 108.2977042  60.2953158  98.1019969 107.9636906  61.1888916
  99.0016004 108.7898810  60.2944630  90.4696490  97.5686821  83.0382868
  90.3693217  98.5181178  82.9694959  90.2518032  97.2405060  82.1658938
  90.3327760 100.9983960  81.8547929  89.8494842 101.7984320  82.0611818
  90.4188699 101.0091905  80.9015373  97.6596987 106.0527567  61.9661596
  98.4942591 105.6208765  61.7839071  97.4981330 105.8809581  62.8938491
 100.2998012 120.4596610  76.9043687 100.0087878 121.3642240  76.7890354
 100.9354997 120.5013137  77.6187757 100.7979247 115.2912893  61.3295238
 101.0504768 114.7694415  60.5678701  99.8603807 115.1279039  61.4321922
 111.2430957 114.2323905  70.0402960 111.9756129 113.6623122  70.2740789
 110.4870313 113.8445505  70.4809465 102.5012564 111.6841046  62.2327651
 102.6686966 112.5521283  62.5998122 102.3109733 111.8468328  61.3088940
 102.4801785 114.1398704  63.2174318 102.3601410 114.5855754  64.0559798
 101.7854373 114.4884021  62.6587856 100.2408677 126.9102345  66.8664449
 100.1632707 127.8610171  66.9452929  99.6370321 126.5648218  67.5239375
 108.1786851 114.6120177  64.0454652 109.0904707 114.8447564  63.8702349
 107.6696498 115.1957221  63.4829730 109.0342425 121.0532348  73.5630298
 109.8559869 120.6512535  73.2812979 109.0304828 120.9500582  74.5146413
 102.7999028 120.6016391  75.7191008 102.8643461 121.0636798  76.5549180
 102.0909952 119.9713756  75.8473318 117.1248418 117.3971096  69.9115269
 116.3712126 116.8278494  69.7559274 117.2595959 117.3633761  70.8585904
  95.9676443 119.7859936  66.1597914  96.4800964 120.5803187  66.3103478
  96.6199156 119.0886227  66.0931515  97.7771328 122.9025693  68.2420667
  97.9537956 123.8243657  68.0541651  98.5728162 122.5884112  68.6715047
 104.1415522 122.8908065  79.7170331 103.6979377 122.1044443  79.3991235
 104.8032736 123.0787215  79.0514221 106.2396760 123.1710865  77.7451732
 106.2215236 123.9919746  77.2532001 107.1616681 123.0464940  77.9701873
 102.6969815 120.6854994  78.5875240 103.2298151 119.9243282  78.3574548
 102.1683896 120.3928646  79.3299395 105.8289792 115.7823671  62.6241317
 105.3136416 116.5528276  62.8629705 105.5567101 115.1088808  63.2474379
  99.1210842 112.5065114  62.4796549  98.2848154 112.8439801  62.8005824
  98.9815612 112.3714094  61.5423686 102.2075128 117.6321197  59.1029025
 101.3002189 117.4010451  59.3020174 102.7046159 116.8358816  59.2903007
 111.2281943 119.6176260  72.0328684 111.6618450 119.5251549  72.8811738
 111.9413524 119.5933760  71.3948700 104.9609838 123.2178354  73.5661785
 105.0146860 123.7869290  74.3339501 104.0924619 123.3880239  73.2015822
 107.2050676 118.1326917  60.5573152 106.5879847 117.4073745  60.4606204
 106.7367165 118.8936278  60.2140226 108.8604808 122.8425826  78.2178932
 108.8017354 122.1585046  77.5509515 109.2624326 123.5844816  77.7659558
  97.8795507 129.6587739  71.0112651  98.1192105 130.2906264  71.6891669
  97.0364703 129.3075779  71.2978010  98.9949222 112.3512342  59.6794456
  98.1178689 112.2301142  59.3156702  99.4706975 111.5598420  59.4273344
 108.8622215 120.8065410  76.4492912 107.9748994 120.4691331  76.5719310
 109.4320766 120.0748441  76.6861677 102.3923369 125.4666862  73.4154155
 102.3193540 126.2721833  73.9273459 101.9500762 125.6658828  72.5902176
 113.3439556 116.2173627  71.2109473 113.3329432 117.0998342  70.8403406
 112.4756935 115.8645178  71.0164010 104.8522052 125.3653696  75.5712313
 105.5650024 126.0001161  75.4988215 104.3612081 125.4617562  74.7552315
  98.3540339 125.6835742  68.3411429  97.6850714 126.1681869  67.8575469
  98.2153209 125.9304962  69.2554808 102.4945608 127.7179485  74.9394088
 103.0463916 127.8811107  75.7043173 102.8351801 128.3083923  74.2674113
 105.6313995 125.6661461  71.9257770 105.5065134 124.8651201  71.4168715
 106.2893086 126.1607654  71.4371740 107.6948903 123.4670481  73.5537320
 106.7479239 123.3475832  73.4815647 108.0431676 122.5792979  73.6363581
 108.3029458 124.0851756  70.8406545 109.2276006 123.8794617  70.7030996
 108.1344762 123.8368157  71.7495886 100.5525728 110.4115886  63.8115457
 101.2734091 110.7897139  63.3079174  99.9291032 111.1304763  63.9150435
 108.0924775 124.6037423  66.1968636 108.2661652 124.0383846  65.4442489
 108.5853666 125.4038318  66.0148126 113.9464166 117.3673846  67.8158936
 114.3895312 116.6181171  67.4178059 113.0690676 117.3583983  67.4332668
 109.0799947 123.9204188  63.2965535 109.7750852 124.5410880  63.5152849
 109.4223097 123.0699539  63.5717913 110.9791370 121.3703893  64.8252865
 111.5042694 121.7091166  64.1002185 110.8913723 120.4350909  64.6416000
 102.6411419 125.2837967  76.9542742 102.9498545 125.0387114  77.8265442
 103.4386901 125.4884605  76.4661612 102.6632031 127.4375877  69.1848119
 102.2237021 126.9452255  69.8780975 103.4140148 126.8948844  68.9440194
  95.1424370 123.6287417  69.1872747  95.9682390 123.3291189  68.8071390
  94.7918422 122.8595040  69.6362535 100.1105903 122.9813886  71.2570420
  99.4885912 122.3184591  70.9572648 100.7810770 123.0075018  70.5744068
 112.2901348 121.2726205  77.6878813 111.9986156 121.6356185  78.5242274
 111.6773479 120.5593213  77.5092146 113.4897030 118.8379085  70.2081384
 114.3243922 119.2768889  70.3718944 113.6256159 118.3617738  69.3889629
 109.0200092 123.6268960  60.2953158 108.9413724 123.2928823  61.1888916
 109.8409759 124.1190728  60.2944630 111.7178283 116.4930699  73.5029477
 111.6854603 115.5546700  73.6889161 112.3278907 116.5714736  72.7695302
 103.5561614 115.3626752  59.5456681 104.5020719 115.2332960  59.6145099
 103.1775859 114.6241414  60.0226109 111.8672772 113.2841743  73.5487760
 111.3511820 112.5000199  73.3617689 112.7512720 112.9560459  73.7134279
 117.5354833 117.5546706  72.6435513 118.2658222 117.2931994  73.2043217
 116.9261779 116.8175428  72.6837581 115.6170130 115.6954569  73.2409965
 114.8903294 115.5610534  72.6326456 115.2017417 116.0031397  74.0466683
 101.7404531 113.2876729  59.4811566 100.8335987 112.9909841  59.5574280
 102.0180512 112.9906547  58.6145852 100.5103316 110.1463664  59.6223545
 101.3722480 110.4718562  59.8819363 100.6953660 109.3595160  59.1096611
 113.2347925 111.9166421  70.5943396 113.8292416 111.6762157  69.8836705
 113.3074509 111.1973551  71.2216933  95.4545081 125.7600032  70.9086561
  95.3199549 125.0000433  70.3424559  95.0377143 126.4840932  70.4415350
 111.2306660 112.4836548  66.8615526 110.9743594 112.0833184  67.6923734
 110.6059528 113.1980342  66.7365665 115.5418998 115.2232622  69.3686817
 114.9818556 115.2925811  70.1418380 114.9362501 115.0473606  68.6486314
  98.6114207 126.6569349  71.1205004  98.4946591 127.6014781  71.0183694
  97.7906653 126.3542910  71.5090803 108.4990741 121.3819484  61.9661596
 109.3336345 120.9500683  61.7839071 108.3375084 121.2101498  62.8938491
 101.4632759 107.3859707  62.9103254 101.4511429 108.3301547  63.0671525
 102.3556181 107.2029852  62.6162715  99.6368721 127.3097611  74.3360932
 100.5395968 127.3421221  74.6527427  99.4106091 126.3798062  74.3507268
 101.3922323 126.0628597  70.9971011 100.4417954 126.0630459  70.8835383
 101.6954809 125.3161332  70.4807045 117.1275016 131.8989136  72.0616773
 117.7653426 131.7795883  71.3580113 117.0095859 132.8469980  72.1204725
 113.9364723 131.8516564  71.9978298 113.5983234 131.7357628  71.1098833
 114.8054491 131.4507729  71.9779304 109.7951538 133.7052040  67.9875189
 109.2316403 133.6141977  67.2191477 109.6803933 132.8851945  68.4677681
 114.4184506 133.0051415  77.9564503 114.4073146 132.6104214  77.0845007
 114.5805145 132.2717488  78.5498275 107.3415970 135.2003232  70.8259409
 108.1337262 134.8594056  70.4105709 107.5812620 135.3098207  71.7461563
 115.3751097 137.3723008  63.2989654 114.7239077 137.9577088  62.9123668
 116.1695460 137.9029203  63.3584691 109.3006724 134.4612145  63.6976788
 110.0737600 133.9141132  63.5589664 109.6532123 135.3256394  63.9091249
 111.1391767 135.7888527  76.9043687 110.8481633 136.6934158  76.7890354
 111.7748751 135.8305055  77.6187757 112.0647974 133.1665376  73.4945047
 112.6611546 132.9421398  72.7802010 112.1222945 132.4250121  74.0970495
 111.6373002 130.6204811  61.3295238 111.8898523 130.0986332  60.5678701
 110.6997561 130.4570957  61.4321922 116.6816285 129.6240589  69.1369981
 117.4679374 129.2060013  68.7860398 116.9454989 130.5286682  69.3051630
 116.8526362 135.0613440  63.8358638 116.2172195 135.1348066  64.5479543
 116.5223769 135.6507039  63.1577717 122.0824712 129.5615823  70.0402960
 122.8149884 128.9915039  70.2740789 121.3264068 129.1737423  70.4809465
 111.3569291 132.5232917  63.5319613 111.2405549 131.8477820  64.2000697
 111.4671551 132.0365291  62.7151766 113.7000832 131.9843064  67.2366302
 113.3359039 131.4573685  67.9479224 114.5567948 131.5941533  67.0632788
 119.6050132 123.2737397  74.4997568 119.2733457 124.1432808  74.2758783
 119.0095746 122.9573681  75.1791599 113.3406319 127.0132964  62.2327651
 113.5080721 127.8813200  62.5998122 113.1503488 127.1760246  61.3088940
 116.0981652 135.4749943  73.8993481 115.7982375 136.3774982  73.7909288
 115.7532711 135.2082126  74.7514634 109.5494133 131.9263740  69.9330186
 108.6244630 131.7939954  70.1407877 109.7978546 132.7057959  70.4300128
 119.4978796 127.9932483  71.5790918 118.5895673 127.9247891  71.2849679
 119.4466391 128.4704428  72.4072744 113.3195539 129.4690621  63.2174318
 113.1995165 129.9147672  64.0559798 112.6248128 129.8175939  62.6587856
 106.9102944 131.5697013  70.7673975 107.0395325 131.8231492  71.6813386
 106.2300396 132.1624721  70.4478630 113.5719661 129.4122129  79.5225816
 112.7952995 129.9716049  79.5128680 114.2110224 129.8978912  80.0440686
 121.3640442 126.1948921  73.3568792 120.7214822 126.4881454  72.7108587
 120.8595371 126.0801842  74.1621989 119.0180606 129.9412095  64.0454652
 119.9298462 130.1739481  63.8702349 118.5090253 130.5249139  63.4829730
 111.8266034 132.2207582  79.0843783 112.5680718 132.7592626  78.8078606
 111.1203019 132.8473871  79.2415334 117.3021373 134.3636722  77.6815944
 117.7104729 133.9219133  76.9370577 116.5798635 133.7889350  77.9350137
 113.6552443 129.3009329  75.0549501 114.5013639 129.7248743  75.1984150
 113.5951081 128.6442953  75.7488064 117.6250188 134.9237913  71.4368233
 116.9959050 135.0883627  70.7344301 117.2375850 135.3379523  72.2079197
 116.8051889 126.9613697  76.7130675 116.5612821 127.7155758  76.1764950
 117.0811819 127.3399045  77.5477922 118.7590351 133.5052310  75.3907940
 118.9707247 134.1484070  74.7142321 118.7120100 132.6714626  74.9229870
 116.3616580 126.1170130  72.2944512 115.5001059 126.4151384  72.5861250
 116.3879015 126.3340529  71.3625545 113.1778150 134.6612321  68.7018318
 113.6416495 134.9400024  67.9122941 112.9134948 133.7595766  68.5191409
 110.0702231 134.2083803  71.6398081 110.6403588 134.6371071  71.0015566
 110.6610343 133.9266387  72.3382267 112.1147036 130.7835473  65.5107883
 112.8171079 131.2356517  65.9781810 111.7827664 130.1419292  66.1387776
 110.5627397 129.3747230  79.8859093 109.9326058 130.0563511  80.1194490
 110.4563485 129.2630312  78.9412231 105.8572370 129.0419026  70.8125017
 105.0671424 129.2976555  70.3365127 106.3483617 129.8567364  70.9177057
 107.8087115 129.4063605  67.7708494 107.0118279 129.5182300  68.2891989
 107.5812707 129.7450258  66.9049384 113.6392783 135.9308309  75.7191008
 113.7037215 136.3928716  76.5549180 112.9303707 135.3005673  75.8473318
 104.1410073 129.2949517  73.2440008 104.3918111 130.1796526  73.5097584
 104.6769621 129.1154118  72.4715099 113.3540801 137.5976416  65.5869989
 113.2186475 138.4427952  66.0154836 113.8950613 137.7995694  64.8235922
 109.8408140 123.6767996  82.2484344 109.4475086 123.1234194  82.9231988
 110.6574280 123.9878574  82.6390861 106.8070198 135.1151854  66.1597914
 107.3194718 135.9095104  66.3103478 107.4592911 134.4178145  66.0931515
 108.6165083 138.2317610  68.2420667 108.7931711 139.1535575  68.0541651
 109.4121916 137.9176030  68.6715047 112.7576101 125.0925875  79.8404600
 113.4985815 125.6933028  79.7609063 112.9894024 124.3503513  79.2822643
 107.9017439 130.2782242  78.1182830 107.7870954 129.3767499  78.4189929
 107.0461957 130.5245939  77.7667647 114.9809277 138.2199983  79.7170331
 114.5373131 137.4336361  79.3991235 115.6426490 138.4079133  79.0514221
 109.7396398 139.7495784  74.2431009 110.2903823 139.6212848  73.4708003
 108.9007874 140.0490673  73.8925902 113.5363569 136.0146912  78.5875240
 114.0691906 135.2535200  78.3574548 113.0077650 135.7220564  79.3299395
 116.7033264 121.1206978  74.1168882 116.3597533 122.0108620  74.0407993
 117.0712227 120.9308636  73.2538467 104.7719115 133.4440508  66.9357484
 105.6094337 133.8537517  66.7191192 104.9497382 132.5039951  66.9057678
 116.6683547 131.1115589  62.6241317 116.1530170 131.8820194  62.8629705
 116.3960855 130.4380725  63.2474379 114.2530658 125.9565290  67.6826555
 113.3972254 125.5672140  67.5032194 114.6657610 126.0357251  66.8226341
 115.7829804 123.4911633  72.0818115 115.2794600 123.4541768  71.2685921
 116.0760411 124.4004376  72.1414772 112.0272690 123.5750363  71.0884297
 112.8925687 123.3793171  70.7290186 112.0950199 123.3460715  72.0153654
 116.4569850 128.9842681  64.4501098 116.1519986 129.2988830  65.3011241
 117.4100292 129.0624101  64.4928431 114.9016282 135.1432904  66.0994052
 114.3737643 134.4085664  65.7867290 114.4003785 135.9207581  65.8534021
 119.8809128 133.3381925  71.2161099 119.2232802 134.0281186  71.3041227
 120.6849527 133.7278357  71.5595085 109.6335009 125.8052571  68.4600664
 110.2078761 125.5827752  67.7273857 110.2205992 125.8741265  69.2129265
 118.6914587 131.6926298  69.2665040 119.2046468 132.3256289  69.7686750
 119.3415811 131.0927493  68.9008400 109.9604597 127.8357032  62.4796549
 109.1241909 128.1731718  62.8005824 109.8209366 127.7006012  61.5423686
 111.9357677 122.6793820  67.1875733 111.2822089 122.3642837  66.5632348
 111.8938151 122.0569560  67.9135556 113.0468882 132.9613115  59.1029025
 112.1395944 132.7302368  59.3020174 113.5439914 132.1650734  59.2903007
 115.1695418 129.1675753  71.5123381 114.2517979 129.3890700  71.3545069
 115.5855561 129.2422064  70.6535088 115.9530465 130.5667169  66.6426061
 116.7002284 131.0788566  66.3333183 116.2222055 130.2451222  67.5030455
 114.2257115 133.0625710  63.6253015 113.3168335 132.7784742  63.7225485
 114.2552199 133.4824788  62.7656322 118.4009302 127.6024285  68.6244850
 117.6632059 127.0901671  68.9555093 118.6536076 127.1624667  67.8128127
 118.5020930 120.3800537  69.2186620 118.8079807 119.5197901  68.9312535
 119.2273535 120.9718157  69.0185614 104.7945286 130.7831224  67.6068218
 104.5969686 130.1900584  66.8819284 104.2391950 130.4783434  68.3244156
 112.7742009 130.6754330  69.7262811 112.8290619 129.7228167  69.6505287
 111.9633212 130.8313769  70.2104109 113.9233203 134.6034453  60.9641094
 113.4852633 133.8870312  60.5046731 114.6643644 134.8310568  60.4026185
 110.7134369 129.2931390  67.4853190 109.9002235 129.5925560  67.8918382
 111.2093364 128.8987079  68.2027672 112.8642947 139.2889147  69.4187454
 112.8219126 139.5149993  68.4895986 113.7805646 139.0552521  69.5673255
 116.3108581 129.7573214  76.3168083 116.6657969 129.9844688  77.1762549
 116.9580712 130.0891591  75.6945339 122.0406318 132.8791650  67.0217413
 121.9024217 133.0693246  66.0938602 121.6842537 133.6411033  67.4785464
 110.2048444 126.8649745  73.1014425 110.8447823 126.7238505  72.4037388
 109.3725975 126.5784259  72.7253027 110.9808748 136.1652176  69.2149417
 111.7749347 135.6702496  69.0131992 110.2700440 135.6370039  68.8517123
 107.2891512 130.3095258  65.2909170 106.3589100 130.2479713  65.5079132
 107.3848984 129.7871210  64.4945811 107.2077061 126.8350070  67.8787411
 107.4683878 127.7495404  67.7696572 108.0294233 126.3674513  68.0284024
 108.6801986 128.2487828  75.0486236 109.3525039 128.0405190  74.3998885
 107.8531772 128.0509914  74.6091468 114.5827558 124.8749769  77.0651897
 113.9355473 125.5739718  76.9716373 115.3528573 125.3085912  77.4328145
 117.9906356 135.1398621  80.1402450 117.8391862 134.9109172  79.2232534
 117.9811035 136.0969222  80.1533795 114.7591692 132.7130533  75.1248716
 115.6883752 132.8641693  74.9517684 114.3382722 132.8014554  74.2697363
 113.5580024 136.7381198  72.8947254 113.4191110 136.3699982  73.7673192
 112.7694620 137.2528837  72.7231212 115.1085239 136.1162801  70.2836092
 114.7735072 136.0763571  71.1793742 114.6089185 135.4507516  69.8106502
 109.0829483 131.5230431  75.8088673 108.9449281 130.7910669  76.4100212
 109.9934407 131.4339331  75.5272861 118.0444431 133.4618835  60.5573152
 117.4273601 132.7365663  60.4606204 117.5760919 134.2228195  60.2140226
 111.7111784 131.2350390  75.2972353 112.4211402 130.5943582  75.2558971
 111.6681092 131.4863285  76.2198533 110.4240718 128.2215608  77.1167992
 109.8878075 127.7706346  77.7689588 109.8357426 128.3561517  76.3738457
 109.8342977 127.6804259  59.6794456 108.9572443 127.5593060  59.3156702
 110.3100730 126.8890338  59.4273344 101.3545117 132.4681419  69.7735963
 102.0416157 132.1543149  69.1856978 101.1993246 133.3722784  69.5003214
 106.1579839 127.3571616  74.2020987 106.0738028 126.7497285  73.4671397
 105.3362545 127.8480634  74.2030483 116.3303553 125.8425179  69.5691182
 116.8272252 125.0895141  69.2492252 115.5590534 125.8789496  69.0034391
 124.1833310 131.5465545  71.2109473 124.1723187 132.4290260  70.8403406
 123.3150690 131.1937095  71.0164010 117.4133334 134.5996866  67.1429605
 116.4789612 134.7198329  66.9734309 117.5910002 133.6969333  66.8789615
 112.9138522 127.9842562  69.2962866 112.5436309 127.4313602  69.9843772
 113.4097614 127.3800696  68.7437866 120.8005885 130.4414186  67.6779639
 121.2666337 131.2742177  67.6039942 121.2513385 129.9759167  68.3824898
 110.7427720 138.4440057  76.3917884 111.4437180 139.0776540  76.5447278
 110.2722835 138.7854789  75.6313524 118.7722548 122.8094773  71.7170541
 117.8585628 123.0398999  71.8852748 119.2015649 122.8933217  72.5684573
 118.5429006 130.9984664  74.2170435 117.8900456 131.2460572  73.5622887
 118.9209386 130.1848803  73.8832912 114.5916579 131.7404476  80.7036472
 113.9157216 131.6398605  81.3738847 115.4144213 131.5843689  81.1672469
 106.3395438 137.9776412  73.3248987 106.9248875 137.2320100  73.4576891
 106.1420277 138.2880369  74.2085651 109.1934094 141.0127659  68.3411429
 108.5244469 141.4973787  67.8575469 109.0546963 141.2596880  69.2554808
 100.9313093 130.5482012  72.0453430 100.9697193 130.0145603  72.8390548
 100.4253386 130.0217218  71.4264407 108.3103855 125.3946553  75.5415972
 108.3745182 126.2561384  75.1293370 108.2470976 124.7820554  74.8088331
 107.7856128 127.4669685  79.1889007 108.4128167 127.0846763  79.8026531
 106.9284047 127.2483887  79.5544699 104.5621671 129.2746114  65.1207361
 104.8575112 128.3656793  65.0674415 103.6609706 129.2533854  64.7988364
 108.0915918 127.3502111  71.1034910 107.3702503 127.9638079  70.9642383
 108.8809173 127.8859876  71.0251556 110.8942231 124.6856538  77.3775562
 111.4176633 124.9318834  78.1401871 110.6754564 125.5176572  76.9578699
 106.2909512 126.9560212  65.2446687 105.9622218 126.0757591  65.0621793
 106.6448883 126.9007881  66.1323076 109.4051335 127.2433182  65.6122164
 109.7447408 127.7719103  64.8900773 109.8523456 127.5813588  66.3880731
 112.0994776 125.6270233  75.0625232 111.7591597 124.8278046  75.4645912
 111.3933782 125.9271943  74.4902066 112.7511248 122.7119545  73.5152555
 113.5737317 122.2380023  73.3931446 112.9949312 123.4910029  74.0151242
 111.3919482 125.7407804  63.8115457 112.1127845 126.1189056  63.3079174
 110.7684787 126.4596680  63.9150435 115.5350605 126.4452952  64.7473789
 115.7514220 127.3277590  64.4462618 115.0544673 126.0539166  64.0179431
 110.2749827 129.4038666  71.3244534 110.1294407 129.7178969  72.2168816
 109.7975030 130.0223566  70.7715433 112.1346210 126.3941214  71.3725424
 112.1207778 125.4982307  71.0357721 112.8518638 126.4011877  72.0063710
 113.9872340 126.8278554  73.4178551 113.7290118 127.7495625  73.4162881
 113.4557381 126.4308988  74.1079015 104.7495489 131.9444010  74.2632195
 104.2048957 132.7203818  74.3952470 105.6274839 132.2914815  74.1051317
 111.5383106 125.2755594  66.6412994 111.6599017 124.3472240  66.8403881
 111.2485148 125.2894280  65.7291309 114.4074296 122.9610504  69.7779714
 114.4295993 123.0249837  68.8231693 114.8242355 122.1215013  69.9720220
 105.5361511 131.0713906  77.1562352 104.7943247 131.2196542  77.7426982
 105.2154255 131.3322172  76.2929101 105.9818124 138.9579335  69.1872747
 106.8076144 138.6583107  68.8071390 105.6312176 138.1886958  69.6362535
 110.9499658 138.3105803  71.2570420 110.3279667 137.6476508  70.9572648
 111.6204525 138.3366935  70.5744068 104.1826730 136.8765662  70.1461680
 103.3458638 136.4487836  69.9645682 104.1550375 137.0698105  71.0832471
 111.0224185 126.7887591  80.8502926 111.0712341 127.6649714  80.4680696
 111.5646699 126.2464984  80.2774570 121.6276906 134.1821181  77.4436792
 121.6774911 134.0171188  78.3852315 121.5190829 133.3148440  77.0534673
 110.5113165 136.8609727  64.7328881 110.6601285 137.5445191  64.0795554
 111.3179608 136.8414817  65.2478337 118.9180668 130.1652109  78.7596099
 119.8190531 130.0258574  78.4680096 118.9928643 130.3306564  79.6994276
 113.2523474 127.5418964  77.6049285 112.3826783 127.8352530  77.3331873
 113.4882954 128.1259409  78.3256549 121.3782291 131.7250737  76.1558871
 121.8536413 131.9178383  75.3477723 120.4547856 131.7809923  75.9102255
 108.2665798 132.8874904  65.7389950 108.0211839 131.9837234  65.9370160
 108.4361712 132.8892055  64.7969428 115.9562507 123.7598581  75.1214705
 116.4744451 124.4959608  74.7961194 115.6017640 124.0662574  75.9561464
 107.5361445 128.6203262  63.2376111 106.8430690 128.6947617  62.5816147
 107.2913197 127.8563605  63.7597628 116.2075102 120.1798863  70.6415602
 116.4876855 119.5122052  71.2676028 116.9925708 120.3727959  70.1290266
 120.0783960 128.6016497  74.3887177 121.0301383 128.7014595  74.4099401
 119.9087410 127.8094766  74.8985261 118.0998339 125.6872080  74.5746578
 117.5048271 125.9677093  73.8793067 117.8148036 126.1765981  75.3463319
 122.5572038 131.8222617  73.5029477 122.5248358 130.8838618  73.6889161
 123.1672661 131.9006654  72.7695302 114.3955369 130.6918670  59.5456681
 115.3414473 130.5624878  59.6145099 114.0169614 129.9533332  60.0226109
 122.7066526 128.6133660  73.5487760 122.1905575 127.8292117  73.3617689
 123.5906475 128.2852377  73.7134279 120.3677253 122.3574676  69.5083573
 120.1702074 122.0489764  70.3926905 120.9776959 123.0836315  69.6381502
 114.2794061 134.7436416  81.0057338 115.1997071 134.9215015  81.1997384
 114.2443644 133.7992461  80.8537037 112.5798286 128.6168646  59.4811566
 111.6729741 128.3201759  59.5574280 112.8574267 128.3198464  58.6145852
 103.4976226 129.9375010  69.9310612 103.1779010 129.0840318  69.6384986
 102.9509654 130.1523588  70.6868580 107.2756134 132.6537451  73.6480119
 107.4942143 133.5854558  73.6668153 107.6881907 132.2945425  74.4334923
 114.1960351 123.1605536  65.6355807 113.3861080 122.8152621  66.0111053
 114.8844768 122.8513080  66.2243419 116.1250900 122.2383583  67.2580104
 116.6781938 122.6579036  67.9170127 116.3620986 121.3119331  67.3003060
 112.1483999 128.2270656  83.0382868 112.0480726 129.1765013  82.9694959
 111.9305541 127.8988895  82.1658938 111.3497070 125.4755581  59.6223545
 112.2116234 125.8010480  59.8819363 111.5347414 124.6887077  59.1096611
 103.3664486 133.5577921  71.9003734 102.6727958 133.1431874  71.3873688
 104.1137477 133.5998458  71.3037153 119.5029707 124.3484108  66.7658768
 118.9228376 125.0068912  66.3836821 119.2365639 123.5261453  66.3546186
 117.9533273 123.7489166  68.9680088 118.4533052 123.8605700  68.1594407
 118.5968881 123.4450218  69.6080897 112.0115269 131.6567795  81.8547929
 111.5282351 132.4568155  82.0611818 112.0976208 131.6675740  80.9015373
 105.2801229 133.4896175  69.7769749 105.2571917 133.5883862  68.8251632
 105.5901865 134.3361326  70.0986915 107.9388607 135.5472330  73.8916363
 108.8931860 135.5156272  73.8246295 107.7401130 135.0862954  74.7066589
 108.5287989 134.1173446  76.4587161 109.3480878 134.6117525  76.4821998
 108.8024796 133.2005414  76.4304728 118.2854585 126.5084198  65.8215116
 117.3980440 126.7933849  65.6035311 118.7008574 126.3477962  64.9742393
 121.6369121 126.5330719  69.5369456 122.4129511 127.0227172  69.8094072
 120.9117255 126.9588773  69.9941325 124.0741680 127.2458339  70.5943396
 124.6686170 127.0054074  69.8836705 124.1468263 126.5265469  71.2216933
 106.2938835 141.0891949  70.9086561 106.1593303 140.3292350  70.3424559
 105.8770898 141.8132849  70.4415350 117.4297798 136.2728873  59.9163136
 118.1333648 136.4778875  60.5320792 116.7060447 136.8405635  60.1812220
 118.2595609 132.0238734  66.0365407 118.2030810 132.4807286  65.1973039
 118.8123951 131.2629419  65.8588249 122.0700414 127.8128466  66.8615526
 121.8137349 127.4125102  67.6923734 121.4453283 128.5272260  66.7365665
 126.3812752 130.5524539  69.3686817 125.8212310 130.6217729  70.1418380
 125.7756256 130.3765524  68.6486314 109.4507961 141.9861266  71.1205004
 109.3340345 142.9306699  71.0183694 108.6300407 141.6834828  71.5090803
 118.9930388 133.2143515  63.3317936 118.9379192 133.0487787  62.3906380
 118.3676443 133.9219548  63.4880125 103.7822903 128.4511580  77.1579358
 104.4281766 127.9410534  77.6466583 103.5740054 129.1880262  77.7322783
 116.3076295 135.5192427  82.6571499 117.1767455 135.6933080  82.2958133
 115.8283047 136.3386844  82.5347228 112.3026513 122.7151624  62.9103254
 112.2905183 123.6593464  63.0671525 113.1949935 122.5321770  62.6162715
 116.1178633 119.3094401  67.1649191 115.3511029 118.7552888  67.3105873
 116.5289338 119.3816270  68.0263343 108.1220394 125.5979197  81.2554372
 108.9851855 125.2416002  81.4657697 107.5485805 125.2593092  81.9429776
  41.2518736   1.6007834  58.7862080  41.8897146   1.4814582  58.0825420
  41.1339579   2.5488678  58.8450032  38.0608442   1.5535263  58.7223605
  37.7226954   1.4376327  57.8344139  38.9298211   1.1526428  58.7024611
  33.9195258   3.4070739  54.7120495  33.3560123   3.3160676  53.9436783
  33.8047653   2.5870643  55.1922988  38.5428225   2.7070114  64.6809810
  38.5316866   2.3122913  63.8090314  38.7048865   1.9736187  65.2743582
  31.4659690   4.9021931  57.5504716  32.2580982   4.5612755  57.1351015
  31.7056340   5.0116906  58.4706869  39.4994817   7.0741707  50.0234960
  38.8482797   7.6595787  49.6368974  40.2939180   7.6047902  50.0829998
  33.4250444   4.1630844  50.4222095  34.1981320   3.6159831  50.2834971
  33.7775843   5.0275093  50.6336556  35.2635487   5.4907226  63.6288994
  34.9725353   6.3952857  63.5135660  35.8992471   5.5323754  64.3433064
  36.1891693   2.8684075  60.2190354  36.7855266   2.6440097  59.5047317
  36.2466665   2.1268820  60.8215802  35.7616722   0.3223510  48.0540545
  36.0142242  -0.1994969  47.2924008  34.8241281   0.1589655  48.1567228
  40.8060005  -0.6740712  55.8615288  41.5923094  -1.0921289  55.5105705
  41.0698709   0.2305381  56.0296936  40.9770082   4.7632139  50.5603945
  40.3415915   4.8366765  51.2724849  40.6467488   5.3525737  49.8823024
  46.2068432  -0.7365478  56.7648266  46.9393604  -1.3066262  56.9986096
  45.4507787  -1.1243878  57.2054772  35.4813011   2.2251616  50.2564920
  35.3649269   1.5496519  50.9246004  35.5915270   1.7383990  49.4397073
  37.8244551   1.6861763  53.9611609  37.4602759   1.1592384  54.6724530
  38.6811667   1.2960232  53.7878094  43.7293852  -7.0243904  61.2242875
  43.3977177  -6.1548493  61.0004090  43.1339465  -7.3407620  61.9036905
  37.4650038  -3.2848337  48.9572957  37.6324441  -2.4168101  49.3243428
  37.2747208  -3.1221056  48.0334247  40.2225372   5.1768642  60.6238788
  39.9226095   6.0793680  60.5154595  39.8776431   4.9100825  61.4759941
  33.6737853   1.6282438  56.6575492  32.7488350   1.4958653  56.8653184
  33.9222266   2.4076658  57.1545435  43.6222515  -2.3048818  58.3036225
  42.7139393  -2.3733410  58.0094986  43.5710111  -1.8276873  59.1318051
  37.4439259  -0.8290680  49.9419624  37.3238885  -0.3833629  50.7805104
  36.7491848  -0.4805362  49.3833162  31.0346664   1.2715712  57.4919281
  31.1639045   1.5250191  58.4058693  30.3544115   1.8643420  57.1723936
  35.2046151  11.9412962  53.5909755  35.1270181  12.8920787  53.6698236
  34.6007795  11.5958834  54.2484682  37.6963381  -0.8859173  66.2471122
  36.9196715  -0.3265252  66.2373987  38.3353944  -0.4002390  66.7685992
  45.4884162  -4.1032380  60.0814099  44.8458542  -3.8099847  59.4353894
  44.9839090  -4.2179459  60.8867296  43.1424325  -0.3569207  50.7699958
  44.0542182  -0.1241820  50.5947656  42.6333973   0.2267838  50.2075037
  35.9509754   1.9226281  65.8089089  36.6924438   2.4611325  65.5323913
  35.2446739   2.5492570  65.9660641  41.4265093   4.0655421  64.4061251
  41.8348449   3.6237832  63.6615883  40.7042355   3.4908049  64.6595444
  37.7796163  -0.9971972  61.7794808  38.6257358  -0.5732558  61.9229457
  37.7194801  -1.6538348  62.4733371  41.7493908   4.6256612  58.1613540
  41.1202770   4.7902326  57.4589608  41.3619570   5.0398221  58.9324504
  45.6283140   5.5611050  55.5157903  44.9434178   5.9409951  54.9654937
  45.7126989   6.1706376  56.2489851  40.9295609  -3.3367604  63.4375981
  40.6856540  -2.5825543  62.9010257  41.2055539  -2.9582256  64.2723228
  42.8834071   3.2071009  62.1153247  43.0950967   3.8502769  61.4387628
  42.8363820   2.3733325  61.6475177  40.4860300  -4.1811171  59.0189819
  39.6244779  -3.8829917  59.3106557  40.5122735  -3.9640772  58.0870852
  37.3021870   4.3631020  55.4263625  37.7660215   4.6418723  54.6368247
  37.0378668   3.4614465  55.2436715  34.1945951   3.9102501  58.3643388
  34.7647308   4.3389770  57.7260873  34.7854063   3.6285086  59.0627574
  36.2390756   0.4854172  52.2353190  36.9414799   0.9375216  52.7027116
  35.9071384  -0.1562009  52.8633083  34.6871117  -0.9234071  66.6104399
  34.0569778  -0.2417790  66.8439796  34.5807205  -1.0350989  65.6657538
  43.9979899   6.0842964  60.2875604  44.8197343   5.6823151  60.0058286
  43.9942302   5.9811198  61.2391720  31.9330835  -0.8917696  54.4953800
  31.1361998  -0.7799002  55.0137296  31.7056427  -0.5531044  53.6294691
  37.7636503   5.6327007  62.4436315  37.8280935   6.0947415  63.2794487
  37.0547427   5.0024372  62.5718625  52.0885892   2.4281713  56.6360576
  51.3349601   1.8589111  56.4804580  52.2233434   2.3944377  57.5831210
  37.4784520   7.2995115  52.3115295  37.3430195   8.1446651  52.7400143
  38.0194333   7.5014393  51.5481229  30.9313918   4.8170553  52.8843220
  31.4438438   5.6113803  53.0348785  31.5836631   4.1196843  52.8176822
  32.7408802   7.9336309  54.9665973  32.9175431   8.8554274  54.7786957
  33.5365636   7.6194728  55.3960353  32.0261159  -0.0199059  64.8428137
  31.9114674  -0.9213802  65.1435236  31.1705677   0.2264638  64.4912953
  39.1052997   7.9218681  66.4415637  38.6616851   7.1355060  66.1236542
  39.7670210   8.1097832  65.7759528  33.8640118   9.4514483  60.9676316
  34.4147543   9.3231546  60.1953310  33.0251594   9.7509372  60.6171209
  41.2034235   8.2021481  64.4697039  41.1852710   9.0230362  63.9777308
  42.1254155   8.0775557  64.6947180  37.6607289   5.7165611  65.3120547
  38.1935626   4.9553899  65.0819855  37.1321370   5.4239263  66.0544701
  28.8962835   3.1459207  53.6602791  29.7338057   3.5556216  53.4436498
  29.0741102   2.2058649  53.6302985  40.7927267   0.8134288  49.3486624
  40.2773890   1.5838893  49.5875011  40.5204575   0.1399424  49.9719685
  38.3774378  -4.3416011  54.4071862  37.5215974  -4.7309161  54.2277501
  38.7901329  -4.2624051  53.5471648  45.7661541   3.5666643  51.2839797
  44.9890984   3.2277802  50.8394959  46.4453022   3.5719266  50.6094762
  40.5813570  -1.3138620  51.1746405  40.2763705  -0.9992471  52.0256548
  41.5344012  -1.2357200  51.2173738  39.0260002   4.8451603  52.8239359
  38.4981363   4.1104363  52.5112596  38.5247504   5.6226280  52.5779327
  44.0052848   3.0400624  57.9406405  43.3476522   3.7299885  58.0286534
  44.8093247   3.4297056  58.2840392  42.8158306   1.3944996  55.9910347
  43.3290188   2.0274988  56.4932057  43.4659530   0.7946192  55.6253707
  34.0848316  -2.4624269  49.2041856  33.2485629  -2.1249583  49.5251130
  33.9453086  -2.5975290  48.2668993  37.1712602   2.6631814  45.8274332
  36.2639664   2.4321067  46.0265481  37.6683634   1.8669433  46.0148313
  40.0780681  11.3729321  48.7471018  39.4042379  11.6761018  49.3555976
  40.4646503  12.1758401  48.3976475  39.2939137  -1.1305548  58.2368687
  38.3761699  -0.9090601  58.0790376  39.7099281  -1.0559237  57.3780395
  40.0774185   0.2685868  53.3671368  40.8246004   0.7807265  53.0578490
  40.3465775  -0.0530080  54.2275761  38.3500835   2.7644408  50.3498322
  37.4412055   2.4803441  50.4470792  38.3795919   3.1843487  49.4901629
  43.5820103   6.3750998  54.1189490  43.1282430   5.5341908  54.1754680
  42.9514069   7.0112396  54.4564270  42.5253022  -2.6957016  55.3490157
  41.7875779  -3.2079630  55.6800400  42.7779796  -3.1356634  54.5373434
  42.0253042   8.2127495  55.0539308  42.3176016   8.7732552  54.3351673
  42.5351663   8.5056056  55.8092467  36.8985729   0.3773029  56.4508117
  36.9534339  -0.5753135  56.3750594  36.0876931   0.5332468  56.9349416
  38.0476923   4.3053152  47.6886401  37.6096353   3.5889011  47.2292038
  38.7887364   4.5329267  47.1271492  34.8378089  -1.0049911  54.2098496
  34.0245955  -0.7055741  54.6163688  35.3337083  -1.3994222  54.9272978
  36.9886667   8.9907846  56.1432761  36.9462846   9.2168692  55.2141293
  37.9049366   8.7571220  56.2918562  40.4352301  -0.5408087  63.0413390
  40.7901689  -0.3136614  63.9007856  41.0824432  -0.2089710  62.4190645
  46.1650038   2.5810349  53.7462719  46.0267936   2.7711945  52.8183908
  45.8086257   3.3429732  54.2030770  46.1919417   4.6486876  58.7573991
  46.6255924   4.5562165  59.6057045  46.9050998   4.6244377  58.1194007
  35.1052468   5.8670875  55.9394724  35.8993066   5.3721195  55.7377299
  34.3944160   5.3388738  55.5762429  39.9247312   8.2488970  60.2907091
  39.9784335   8.8179907  61.0584807  39.0562094   8.4190855  59.9261128
  31.4135231   0.0113956  52.0154476  30.4832819  -0.0501588  52.2324438
  31.5092703  -0.5110091  51.2191118  47.0534967   4.6910577  61.2906876
  47.2470857   5.5956387  61.5366151  46.9535585   4.2317996  62.1245461
  38.7071278  -5.4231533  63.7897203  38.0599193  -4.7241583  63.6961680
  39.4772293  -4.9895389  64.1573452  42.1150076   4.8417320  66.8647757
  41.9635582   4.6127871  65.9477840  42.1054755   5.7987921  66.8779102
  38.8835412   2.4149232  61.8494023  39.8127472   2.5660392  61.6762990
  38.4626442   2.5033253  60.9942670  37.6823744   6.4399897  59.6192561
  37.5434830   6.0718681  60.4918499  36.8938340   6.9547536  59.4476519
  38.2771896  11.5408993  50.9618097  38.4523652  11.0697036  51.7763720
  37.5904684  12.1674759  51.1899358  39.2328959   5.8181499  57.0081399
  38.8978792   5.7782269  57.9039048  38.7332905   5.1526215  56.5351809
  33.2073203   1.2249129  62.5333980  33.0693001   0.4929368  63.1345519
  34.1178126   1.1358030  62.2518167  42.1688151   3.1637534  47.2818458
  41.5517321   2.4384362  47.1851511  41.7004639   3.9246894  46.9385532
  35.8355504   0.9369089  62.0217659  36.5455122   0.2962281  61.9804278
  35.7924812   1.1881984  62.9443840  43.8242282   7.8736442  64.9424239
  43.7654829   7.1895662  64.2754822  44.2261801   8.6155432  64.4904865
  34.5484438  -2.0765693  63.8413299  34.0121795  -2.5274955  64.4934895
  33.9601146  -1.9419785  63.0983763  32.8432981  14.6898356  57.7357957
  33.0829579  15.3216880  58.4136976  32.0002178  14.3386396  58.0223317
  43.8259690   5.8376026  63.1738218  42.9386468   5.5001948  63.2964617
  44.3958241   5.1059057  63.4106984  37.3560843  10.4977478  60.1399461
  37.2831014  11.3032450  60.6518766  36.9138236  10.6969444  59.3147483
  37.1450623   9.7349248  53.6502283  36.3618145  10.2770929  53.7440507
  37.8443368  10.2523228  54.0496524  40.4547273  -4.4556122  56.2936488
  40.9515972  -5.2086160  55.9737559  39.6834254  -4.4191805  55.7279698
  48.3077030   1.2484243  57.9354780  48.2966906   2.1308959  57.5648713
  47.4394410   0.8955794  57.7409317  39.8159527  10.3964312  62.2957620
  40.5287499  11.0311777  62.2233522  39.3249555  10.4928178  61.4797622
  41.5377053   4.3015565  53.8674912  40.6033332   4.4217028  53.6979616
  41.7153722   3.3988032  53.6034922  37.0382242  -2.3138739  56.0208173
  36.6680029  -2.8667699  56.7089079  37.5341334  -2.9180606  55.4683173
  44.9249605   0.1432884  54.4024946  45.3910057   0.9760876  54.3285249
  45.3757105  -0.3222134  55.1070204  34.8671440   8.1458756  63.1163191
  35.5680900   8.7795239  63.2692585  34.3966555   8.4873487  62.3558830
  42.9925836   6.4876706  51.4011098  43.2685680   6.3733300  52.3104972
  42.1230335   6.0894191  51.3623271  42.8966268  -7.4886529  58.4415847
  41.9829347  -7.2582302  58.6098054  43.3259369  -7.4048085  59.2929880
  42.6672726   0.7003363  60.9415741  42.0144176   0.9479271  60.2868194
  43.0453106  -0.1132498  60.6078219  39.6279900  10.7363057  55.0443912
  39.8102294   9.9184712  55.5071664  40.4512886  10.9530749  54.6068802
  39.9622065   9.6631242  52.3058960  40.4909832   9.1523696  51.6929122
  40.2250285   9.3473772  53.1704493  38.7160299   1.4423174  67.4281778
  38.0400936   1.3417304  68.0984154  39.5387933   1.2862388  67.8917776
  30.4639158   7.6795111  60.0494294  31.0492595   6.9338799  60.1822198
  30.2663997   7.9899068  60.9330957  33.3177813  10.7146358  55.0656736
  32.6488189  11.1992486  54.5820776  33.1790683  10.9615579  55.9800115
  37.4583082  12.7490102  61.6639394  38.0101390  12.9121723  62.4288480
  37.7989275  13.3394540  60.9919419  42.3093956   7.5751359  67.5188049
  42.8533860   8.1881318  67.0243004  41.7280801   8.1330938  68.0355062
  40.5951469  10.6972077  58.6503077  40.4702609   9.8961817  58.1414022
  41.2530560  11.1918271  58.1617046  42.6586378   8.4981097  60.2782627
  41.7116713   8.3786449  60.2060953  43.0069151   7.6103596  60.3608888
  39.6632811   8.2933814  56.4786979  39.5157773   7.3650521  56.6594549
  40.4886304   8.3153904  55.9944054  43.2666933   9.1162372  57.5651852
  44.1913480   8.9105234  57.4276303  43.0982236   8.8678774  58.4741193
  39.6594325  -3.8528349  51.4719096  39.8757940  -2.9703711  51.1707924
  39.1788392  -4.2442135  50.7424738  34.3993547  -0.8942635  58.0489841
  34.2538127  -0.5802332  58.9414122  33.9218750  -0.2757735  57.4960739
  38.1116060  -3.4702747  60.1423858  37.8533838  -2.5485677  60.1408188
  37.5801101  -3.8672313  60.8324322  43.0562249   9.6348040  52.9213943
  43.2299126   9.0694462  52.1687795  43.5491140  10.4348935  52.7393433
  28.8739209   1.6462709  60.9877502  28.3292677   2.4222517  61.1197776
  29.7518559   1.9933513  60.8296623  48.9101640   2.3984463  54.5404243
  49.3532786   1.6491788  54.1423366  48.0328150   2.3894599  54.1577975
  44.0437421   8.9514804  50.0210841  44.7388326   9.5721497  50.2398156
  44.3860572   8.1010155  50.2963219  29.6605231   0.7732605  63.8807659
  28.9186967   0.9215241  64.4672289  29.3397975   1.0340871  63.0174408
  45.9428845   6.4014510  51.5498172  46.4680169   6.7401783  50.8247492
  45.8551197   5.4661525  51.3661307  37.6048893  10.3148583  63.6788049
  37.9136020  10.0697730  64.5510748  38.4024375  10.5195222  63.1906919
  37.6269505  12.4686493  55.9093425  37.1874496  11.9762872  56.6026282
  38.3777622  11.9259461  55.6685500  30.1061844   8.6598034  55.9118053
  30.9319864   8.3601806  55.5316697  29.7555896   7.8905656  56.3607842
  35.0743377   8.0124502  57.9815727  34.4523387   7.3495207  57.6817955
  35.7448244   8.0385634  57.2989375  28.3070449   6.5784360  56.8706987
  27.4702358   6.1506535  56.6890988  28.2794095   6.7716804  57.8077778
  45.6322751   7.0347413  66.8549370  44.8418294   7.0171552  66.3153869
  45.3956105   7.5735707  67.6098407  45.7520626   3.8839880  64.1682099
  45.8018631   3.7189887  65.1097621  45.6434549   3.0167139  63.7779979
  34.6356884   6.5628426  51.4574187  34.7845005   7.2463890  50.8040860
  35.4423328   6.5433516  51.9723643  43.0424388  -0.1329192  65.4841405
  43.9434251  -0.2722727  65.1925403  43.1172363   0.0325263  66.4239583
  37.3767193  -2.7562337  64.3294592  36.5070503  -2.4628771  64.0577180
  37.6126674  -2.1721892  65.0501855  47.2538823   6.3036821  64.4124120
  46.9623631   6.6666802  65.2487581  46.6410954   5.5903830  64.2337452
  48.4534505   3.8689701  56.9326690  49.2881396   4.3079505  57.0964251
  48.5893634   3.3928354  56.1134936  45.5026011   1.4269436  62.8804178
  45.9780132   1.6197082  62.0723029  44.5791576   1.4828622  62.6347562
  32.3909517   2.5893603  52.4635256  32.1455559   1.6855933  52.6615467
  32.5605432   2.5910754  51.5214734  40.0806227  -6.5382720  61.8460012
  40.5988171  -5.8021694  61.5206501  39.7261360  -6.2318727  62.6806771
  38.1352290   9.0576556  48.9285935  37.5626257   9.6766743  48.4756407
  38.7085084   9.6075918  49.4625857  44.2027680  -1.6964804  61.1132484
  45.1545103  -1.5966706  61.1344708  44.0331130  -2.4886535  61.6230568
  42.2242059  -4.6109221  61.2991885  41.6291991  -4.3304208  60.6038373
  41.9391756  -4.1215320  62.0708626  41.3549550   9.3413706  50.0594517
  42.2880223   9.2759268  50.2627393  41.2672763  10.1769973  49.6009050
  43.9837566   8.6579576  47.0198465  43.9051198   8.3239440  47.9134223
  44.8047233   9.1501344  47.0189937  46.6815758   1.5241316  60.2274783
  46.6492078   0.5857316  60.4134467  47.2916381   1.6025352  59.4940608
  38.5199088   0.3937369  46.2701987  39.4658193   0.2643577  46.3390405
  38.1413333  -0.3447969  46.7471416  46.8310246  -1.6847641  60.2733067
  46.3149295  -2.4689184  60.0862995  47.7150195  -2.0128924  60.4379586
  44.4920973  -7.9406625  56.2328879  44.2945794  -8.2491537  57.1172211
  45.1020679  -7.2144986  56.3626809  52.4992307   2.5857323  59.3680820
  53.2295696   2.3242611  59.9288523  51.8899253   1.8486045  59.4082888
  50.5807605   0.7265185  59.9655271  49.8540768   0.5921150  59.3571763
  50.1654891   1.0342014  60.7711989  38.4037781   4.4455115  67.7302644
  39.3240790   4.6233714  67.9242691  38.3687364   3.5011160  67.5782344
  36.7042006  -1.6812655  46.2056873  35.7973461  -1.9779542  46.2819586
  36.9817987  -1.9782837  45.3391159  31.3999853   2.3556150  60.3725426
  31.6185863   3.2873257  60.3913459  31.8125627   1.9964124  61.1580229
  36.2727719  -2.0710645  69.7628174  36.1724446  -1.1216288  69.6940266
  36.0549261  -2.3992406  68.8904245  27.4908206   3.2596620  58.6249041
  26.7971677   2.8450573  58.1118995  28.2381197   3.3017157  58.0282459
  43.6273427  -5.9497193  53.4904075  43.0472096  -5.2912389  53.1082127
  43.3609359  -6.7719849  53.0791492  42.0776993  -6.5492136  55.6925395
  42.5776771  -6.4375601  54.8839714  42.7212601  -6.8531083  56.3326204
  36.1358989   1.3586494  68.5793236  35.6526071   2.1586854  68.7857125
  36.2219928   1.3694439  67.6260680  29.4044948   3.1914874  56.5015055
  29.3815637   3.2902561  55.5496939  29.7145585   4.0380025  56.8232222
  32.0632326   5.2491029  60.6161670  33.0175580   5.2174971  60.5491601
  31.8644850   4.7881653  61.4311896  32.6531708   3.8192145  63.1832468
  33.4724597   4.3136224  63.2067305  32.9268516   2.9024113  63.1550035
  42.4098305  -3.7897103  52.5460423  41.5224160  -3.5047452  52.3280618
  42.8252294  -3.9503339  51.6987700  45.7612841  -3.7650582  56.2614762
  46.5373231  -3.2754129  56.5339379  45.0360975  -3.3392528  56.7186632
  48.1985399  -3.0522963  57.3188703  48.7929890  -3.2927227  56.6082011
  48.2711983  -3.7715832  57.9462239  30.4182555  10.7910648  57.6331868
  30.2837023  10.0311049  57.0669866  30.0014617  11.5151548  57.1660657
  41.5541518   5.9747572  46.6408443  42.2577368   6.1797574  47.2566099
  40.8304167   6.5424334  46.9057527  42.3839328   1.7257433  52.7610713
  42.3274530   2.1825985  51.9218346  42.9367671   0.9648118  52.5833556
  46.1944134  -2.4852835  53.5860833  45.9381069  -2.8856199  54.4169040
  45.5697002  -1.7709041  53.4610972  50.5056472   0.2543238  56.0932124
  49.9456030   0.3236428  56.8663686  49.8999976   0.0784223  55.3731620
  33.5751681  11.6879965  57.8450310  33.4584065  12.6325398  57.7429001
  32.7544127  11.3853527  58.2336110  43.4628216   6.4130101  48.6906903
  44.2973819   5.9811300  48.5084378  43.3012558   6.2412115  49.6183798
  43.1174108   2.9162214  50.0563242  43.0622912   2.7506486  49.1151687
  42.4920163   3.6238247  50.2125432  40.4320015   5.2211126  69.3816805
  41.3011175   5.3951778  69.0203440  39.9526766   6.0405543  69.2592535
  34.6006195  12.3408227  61.0606239  35.5033442  12.3731837  61.3772734
  34.3743565  11.4108678  61.0752575  36.3559797  11.0939214  57.7216317
  35.4055428  11.0941075  57.6080690  36.6592283  10.3471948  57.2052352
  52.0912491  16.9299752  58.7862080  52.7290901  16.8106500  58.0825420
  51.9733334  17.8780596  58.8450032  48.9002197  16.8827180  58.7223605
  48.5620708  16.7668245  57.8344139  49.7691965  16.4818345  58.7024611
  44.7589013  18.7362657  54.7120495  44.1953878  18.6452594  53.9436783
  44.6441408  17.9162561  55.1922988  42.3053445  20.2313848  57.5504716
  43.0974736  19.8904673  57.1351015  42.5450095  20.3408823  58.4706869
  50.3388571  22.4033624  50.0234960  49.6876551  22.9887705  49.6368974
  51.1332934  22.9339819  50.0829998  44.2644198  19.4922762  50.4222095
  45.0375074  18.9451749  50.2834971  44.6169597  20.3567011  50.6336556
  47.0285448  18.1975992  60.2190354  47.6249020  17.9732015  59.5047317
  47.0860419  17.4560738  60.8215802  46.6010476  15.6515428  48.0540545
  46.8535997  15.1296949  47.2924008  45.6635035  15.4881573  48.1567228
  51.6453759  14.6551206  55.8615288  52.4316848  14.2370629  55.5105705
  51.9092463  15.5597298  56.0296936  51.8163836  20.0924056  50.5603945
  51.1809669  20.1658683  51.2724849  51.4861243  20.6817655  49.8823024
  57.0462186  14.5926439  56.7648266  57.7787358  14.0225656  56.9986096
  56.2901542  14.2048040  57.2054772  46.3206765  17.5543534  50.2564920
  46.2043023  16.8788437  50.9246004  46.4309025  17.0675908  49.4397073
  48.6638306  17.0153681  53.9611609  48.2996513  16.4884302  54.6724530
  49.5205422  16.6252150  53.7878094  54.5687607   8.3048013  61.2242875
  54.2370931   9.1743424  61.0004090  53.9733220   7.9884297  61.9036905
  48.3043793  12.0443580  48.9572957  48.4718195  12.9123817  49.3243428
  48.1140962  12.2070862  48.0334247  51.0619126  20.5060559  60.6238788
  50.7619849  21.4085598  60.5154595  50.7170186  20.2392743  61.4759941
  44.5131608  16.9574356  56.6575492  43.5882104  16.8250570  56.8653184
  44.7616021  17.7368575  57.1545435  54.4616270  13.0243099  58.3036225
  53.5533147  12.9558508  58.0094986  54.4103866  13.5015044  59.1318051
  48.2833014  14.5001238  49.9419624  48.1632639  14.9458289  50.7805104
  47.5885602  14.8486556  49.3833162  41.8740419  16.6007630  57.4919281
  42.0032800  16.8542109  58.4058693  41.1937870  17.1935338  57.1723936
  46.0439906  27.2704880  53.5909755  45.9663936  28.2212705  53.6698236
  45.4401550  26.9250752  54.2484682  56.3277916  11.2259538  60.0814099
  55.6852297  11.5192071  59.4353894  55.8232845  11.1112458  60.8867296
  53.9818080  14.9722711  50.7699958  54.8935936  15.2050098  50.5947656
  53.4727727  15.5559755  50.2075037  48.6189918  14.3319946  61.7794808
  49.4651113  14.7559359  61.9229457  48.5588555  13.6753570  62.4733371
  52.5887662  19.9548530  58.1613540  51.9596525  20.1194244  57.4589608
  52.2013324  20.3690139  58.9324504  56.4676894  20.8902967  55.5157903
  55.7827932  21.2701869  54.9654937  56.5520743  21.4998294  56.2489851
  51.7689363  11.9924314  63.4375981  51.5250295  12.7466375  62.9010257
  52.0449294  12.3709662  64.2723228  53.7227826  18.5362926  62.1153247
  53.9344721  19.1794686  61.4387628  53.6757574  17.7025243  61.6475177
  51.3254055  11.1480747  59.0189819  50.4638534  11.4462001  59.3106557
  51.3516489  11.3651146  58.0870852  48.1415624  19.6922938  55.4263625
  48.6053970  19.9710641  54.6368247  47.8772422  18.7906382  55.2436715
  45.0339705  19.2394419  58.3643388  45.6041062  19.6681688  57.7260873
  45.6247817  18.9577004  59.0627574  47.0784510  15.8146090  52.2353190
  47.7808554  16.2667134  52.7027116  46.7465139  15.1729909  52.8633083
  40.8209844  14.0729643  57.5370324  40.0308898  14.3287171  57.0610434
  41.3121092  14.8877980  57.6422364  54.8373654  21.4134882  60.2875604
  55.6591097  21.0115069  60.0058286  54.8336057  21.3103116  61.2391720
  42.7724590  14.4374222  54.4953800  41.9755753  14.5492916  55.0137296
  42.5450182  14.7760874  53.6294691  39.1047547  14.3260133  59.9685314
  39.3555586  15.2107143  60.2342890  39.6407096  14.1464735  59.1960406
  62.9279647  17.7573630  56.6360576  62.1743355  17.1881028  56.4804580
  63.0627188  17.7236295  57.5831210  48.3178275  22.6287033  52.3115295
  48.1823950  23.4738568  52.7400143  48.8588087  22.8306310  51.5481229
  44.8045614   8.7078612  68.9729650  44.4112560   8.1544811  69.6477295
  45.6211755   9.0189191  69.3636168  41.7707672  20.1462471  52.8843220
  42.2832193  20.9405721  53.0348785  42.4230385  19.4488761  52.8176822
  43.5802557  23.2628227  54.9665973  43.7569185  24.1846192  54.7786957
  44.3759390  22.9486646  55.3960353  47.7213575  10.1236492  66.5649907
  48.4623289  10.7243645  66.4854369  47.9531498   9.3814129  66.0067950
  42.8654913  15.3092859  64.8428137  42.7508429  14.4078116  65.1435236
  42.0099431  15.5556556  64.4912953  44.7033872  24.7806401  60.9676316
  45.2541298  24.6523464  60.1953310  43.8645348  25.0801290  60.6171209
  51.6670738   6.1517594  60.8414189  51.3235008   7.0419236  60.7653299
  52.0349701   5.9619252  59.9783774  39.7356589  18.4751125  53.6602791
  40.5731811  18.8848133  53.4436498  39.9134857  17.5350567  53.6302985
  51.6321021  16.1426206  49.3486624  51.1167645  16.9130810  49.5875011
  51.3598330  15.4691342  49.9719685  49.2168132  10.9875906  54.4071862
  48.3609729  10.5982757  54.2277501  49.6295084  11.0667867  53.5471648
  50.7467279   8.5222250  58.8063422  50.2432074   8.4852385  57.9931227
  51.0397886   9.4314992  58.8660079  46.9910165   8.6060979  57.8129604
  47.8563161   8.4103788  57.4535493  47.0587674   8.3771331  58.7398960
  56.6055295  18.8958560  51.2839797  55.8284738  18.5569720  50.8394959
  57.2846776  18.9011183  50.6094762  51.4207324  14.0153298  51.1746405
  51.1157460  14.3299447  52.0256548  52.3737766  14.0934718  51.2173738
  49.8653756  20.1743521  52.8239359  49.3375118  19.4396281  52.5112596
  49.3641259  20.9518197  52.5779327  54.8446602  18.3692541  57.9406405
  54.1870277  19.0591803  58.0286534  55.6487001  18.7588973  58.2840392
  44.5972484  10.8363187  55.1845970  45.1716236  10.6138369  54.4519163
  45.1843466  10.9051882  55.9374572  53.6552061  16.7236914  55.9910347
  54.1683943  17.3566906  56.4932057  54.3053285  16.1238110  55.6253707
  44.9242071  12.8667648  49.2041856  44.0879383  13.2042335  49.5251130
  44.7846841  12.7316628  48.2668993  46.8995151   7.7104436  53.9121040
  46.2459564   7.3953453  53.2877655  46.8575626   7.0880177  54.6380863
  48.0106356  17.9923731  45.8274332  47.1033418  17.7612985  46.0265481
  48.5077388  17.1961351  46.0148313  50.9174435  26.7021238  48.7471018
  50.2436134  27.0052935  49.3555976  51.3040257  27.5050319  48.3976475
  50.1332892  14.1986370  58.2368687  49.2155453  14.4201317  58.0790376
  50.5493035  14.2732680  57.3780395  50.9167940  15.5977785  53.3671368
  51.6639759  16.1099183  53.0578490  51.1859529  15.2761838  54.2275761
  49.1894590  18.0936326  50.3498322  48.2805809  17.8095359  50.4470792
  49.2189674  18.5135405  49.4901629  54.4213857  21.7042916  54.1189490
  53.9676184  20.8633826  54.1754680  53.7907824  22.3404314  54.4564270
  53.3646777  12.6334902  55.3490157  52.6269534  12.1212288  55.6800400
  53.6173550  12.1935283  54.5373434  52.8646796  23.5419412  55.0539308
  53.1569771  24.1024469  54.3351673  53.3745417  23.8347973  55.8092467
  53.4658404   5.4111154  55.9431926  53.7717281   4.5508517  55.6557841
  54.1911009   6.0028774  55.7430920  39.7582760  15.8141840  54.3313524
  39.5607160  15.2211201  53.6064591  39.2029424  15.5094050  55.0489463
  47.7379484  15.7064947  56.4508117  47.7928094  14.7538783  56.3750594
  46.9270686  15.8624386  56.9349416  48.8870678  19.6345070  47.6886401
  48.4490107  18.9180929  47.2292038  49.6281118  19.8621185  47.1271492
  45.6771844  14.3242006  54.2098496  44.8639709  14.6236177  54.6163688
  46.1730838  13.9297695  54.9272978  47.8280422  24.3199763  56.1432761
  47.7856600  24.5460610  55.2141293  48.7443120  24.0863138  56.2918562
  51.2746055  14.7883831  63.0413390  51.6295443  15.0155304  63.9007856
  51.9218187  15.1202208  62.4190645  57.0043792  17.9102267  53.7462719
  56.8661691  18.1003863  52.8183908  56.6480011  18.6721650  54.2030770
  45.1685918  11.8960362  59.8259731  45.8085298  11.7549121  59.1282695
  44.3363449  11.6094875  59.4498333  45.9446222  21.1962792  55.9394724
  46.7386821  20.7013113  55.7377299  45.2337915  20.6680656  55.5762429
  50.7641067  23.5780888  60.2907091  50.8178089  24.1471824  61.0584807
  49.8955848  23.7482773  59.9261128  42.2528986  15.3405874  52.0154476
  41.3226574  15.2790330  52.2324438  42.3486458  14.8181827  51.2191118
  42.1714535  11.8660687  54.6032718  42.4321352  12.7806020  54.4941878
  42.9931707  11.3985130  54.7529331  43.6439460  13.2798444  61.7731543
  44.3162514  13.0715806  61.1244191  42.8169247  13.0820530  61.3336775
  49.5465032   9.9060385  63.7897203  48.8992947  10.6050335  63.6961680
  50.3166048  10.3396529  64.1573452  48.5217498  21.7691814  59.6192561
  48.3828584  21.4010599  60.4918499  47.7332095  22.2839454  59.4476519
  49.1165650  26.8700911  50.9618097  49.2917406  26.3988954  51.7763720
  48.4298438  27.4966677  51.1899358  50.0722714  21.1473417  57.0081399
  49.7372546  21.1074187  57.9039048  49.5726659  20.4818133  56.5351809
  44.0466957  16.5541047  62.5333980  43.9086755  15.8221286  63.1345519
  44.9571881  16.4649947  62.2518167  53.0081905  18.4929451  47.2818458
  52.3911076  17.7676280  47.1851511  52.5398394  19.2538812  46.9385532
  46.6749258  16.2661006  62.0217659  47.3848877  15.6254199  61.9804278
  46.6318566  16.5173901  62.9443840  54.6636037  23.2028360  64.9424239
  54.6048583  22.5187580  64.2754822  55.0655555  23.9447350  64.4904865
  45.3878192  13.2526224  63.8413299  44.8515549  12.8016963  64.4934895
  44.7994901  13.3872133  63.0983763  43.6826736  30.0190274  57.7357957
  43.9223334  30.6508798  58.4136976  42.8395932  29.6678314  58.0223317
  44.7980451  12.7114876  46.4039762  43.9209917  12.5903677  46.0402009
  45.2738204  11.9200954  46.1518651  54.6653444  21.1667944  63.1738218
  53.7780223  20.8293866  63.2964617  55.2351995  20.4350975  63.4106984
  36.3182591  17.4992035  56.4981270  37.0053631  17.1853766  55.9102285
  36.1630720  18.4033400  56.2248521  41.1217313  12.3882232  60.9266293
  41.0375502  11.7807902  60.1916703  40.3000020  12.8791250  60.9275790
  48.1954598  25.8269396  60.1399461  48.1224769  26.6324368  60.6518766
  47.7531991  26.0261362  59.3147483  47.9844377  25.0641166  53.6502283
  47.2011899  25.6062846  53.7440507  48.6837122  25.5815146  54.0496524
  51.2941027  10.8735796  56.2936488  51.7909727  10.1205758  55.9737559
  50.5228009  10.9100112  55.7279698  59.1470785  16.5776161  57.9354780
  59.1360661  17.4600877  57.5648713  58.2788164  16.2247712  57.7409317
  50.6553281  25.7256230  62.2957620  51.3681253  26.3603695  62.2233522
  50.1643310  25.8220096  61.4797622  52.3770808  19.6307483  53.8674912
  51.4427087  19.7508945  53.6979616  52.5547476  18.7279950  53.6034922
  47.8775996  13.0153179  56.0208173  47.5073784  12.4624219  56.7089079
  48.3735088  12.4111312  55.4683173  55.7643359  15.4724802  54.4024946
  56.2303811  16.3052794  54.3285249  56.2150860  15.0069784  55.1070204
  45.7065195  23.4750674  63.1163191  46.4074654  24.1087157  63.2692585
  45.2360310  23.8165405  62.3558830  53.8319590  21.8168623  51.4011098
  54.1079434  21.7025218  52.3104972  52.9624089  21.4186108  51.3623271
  53.7360022   7.8405389  58.4415847  52.8223102   8.0709616  58.6098054
  54.1653123   7.9243833  59.2929880  53.5066481  16.0295281  60.9415741
  52.8537931  16.2771188  60.2868194  53.8846860  15.2159419  60.6078219
  50.4673654  26.0654974  55.0443912  50.6496049  25.2476630  55.5071664
  51.2906640  26.2822666  54.6068802  50.8015820  24.9923159  52.3058960
  51.3303586  24.4815614  51.6929122  51.0644039  24.6765690  53.1704493
  41.3032913  23.0087029  60.0494294  41.8886349  22.2630717  60.1822198
  41.1057751  23.3190985  60.9330957  44.1571568  26.0438276  55.0656736
  43.4881943  26.5284404  54.5820776  44.0184438  26.2907496  55.9800115
  35.8950567  15.5792629  58.7698737  35.9334667  15.0456220  59.5635855
  35.3890860  15.0527834  58.1509714  48.2976836  28.0782020  61.6639394
  48.8495144  28.2413641  62.4288480  48.6383030  28.6686457  60.9919419
  43.2741330  10.4257169  62.2661279  43.3382656  11.2872000  61.8538677
  43.2108450   9.8131171  61.5333638  42.7493602  12.4980302  65.9134313
  43.3765641  12.1157379  66.5271838  41.8921521  12.2794504  66.2790006
  39.5259145  14.3056731  51.8452668  39.8212586  13.3967409  51.7919722
  38.6247181  14.2844470  51.5233670  51.4345224  26.0263995  58.6503077
  51.3096363  25.2253735  58.1414022  52.0924315  26.5210188  58.1617046
  43.0553392  12.3812728  57.8280217  42.3339978  12.9948695  57.6887690
  43.8446648  12.9170492  57.7496863  53.4980132  23.8273015  60.2782627
  52.5510468  23.7078366  60.2060953  53.8462905  22.9395513  60.3608888
  45.8579705   9.7167154  64.1020868  46.3814107   9.9629451  64.8647178
  45.6392039  10.5487189  63.6824006  41.2546987  11.9870829  51.9691993
  40.9259693  11.1068208  51.7867099  41.6086357  11.9318497  52.8568383
  50.5026565  23.6225731  56.4786979  50.3551528  22.6942439  56.6594549
  51.3280059  23.6445822  55.9944054  44.3688810  12.2743798  52.3367471
  44.7084882  12.8029720  51.6146079  44.8160930  12.6124205  53.1126037
  54.1060687  24.4454290  57.5651852  55.0307235  24.2397151  57.4276303
  53.9375991  24.1970691  58.4741193  47.0632251  10.6580849  61.7870539
  46.7229071   9.8588662  62.1891219  46.3571257  10.9582560  61.2147372
  47.7148722   7.7430162  60.2397862  48.5374792   7.2690640  60.1176752
  47.9586786   8.5220645  60.7396548  46.3556957  10.7718420  50.5360764
  47.0765319  11.1499673  50.0324481  45.7322261  11.4907297  50.6395742
  50.4988080  11.4763569  51.4719096  50.7151694  12.3588207  51.1707924
  50.0182147  11.0849782  50.7424738  45.2387301  14.4349282  58.0489841
  45.0931882  14.7489585  58.9414122  44.7612505  15.0534183  57.4960739
  47.0983684  11.4251830  58.0970730  47.0845253  10.5292924  57.7603028
  47.8156112  11.4322494  58.7309016  48.9509815  11.8589170  60.1423858
  48.6927593  12.7806241  60.1408188  48.4194855  11.4619605  60.8324322
  53.8956003  24.9639958  52.9213943  54.0692881  24.3986380  52.1687795
  54.3884895  25.7640852  52.7393433  39.7132963  16.9754627  60.9877502
  39.1686431  17.7514435  61.1197776  40.5912313  17.3225431  60.8296623
  46.5020580  10.3066211  53.3658300  46.6236491   9.3782857  53.5649188
  46.2122622  10.3204896  52.4536616  49.3711770   7.9921121  56.5025020
  49.3933467   8.0560454  55.5477000  49.7879829   7.1525630  56.6965526
  59.7495395  17.7276380  54.5404243  60.1926541  16.9783706  54.1423366
  58.8721905  17.7186517  54.1577975  54.8831176  24.2806722  50.0210841
  55.5782081  24.9013415  50.2398156  55.2254326  23.4302073  50.2963219
  40.4998985  16.1024523  63.8807659  39.7580721  16.2507158  64.4672289
  40.1791729  16.3632789  63.0174408  56.7822599  21.7306427  51.5498172
  57.3073923  22.0693700  50.8247492  56.6944952  20.7953443  51.3661307
  48.4442648  25.6440501  63.6788049  48.7529774  25.3989648  64.5510748
  49.2418130  25.8487140  63.1906919  48.4663260  27.7978411  55.9093425
  48.0268250  27.3054789  56.6026282  49.2171377  27.2551378  55.6685500
  40.9455599  23.9889952  55.9118053  41.7713619  23.6893723  55.5316697
  40.5949651  23.2197574  56.3607842  45.9137132  23.3416420  57.9815727
  45.2917141  22.6787125  57.6817955  46.5841999  23.3677552  57.2989375
  39.1464204  21.9076278  56.8706987  38.3096112  21.4798452  56.6890988
  39.1187849  22.1008721  57.8077778  45.9861659  11.8198208  67.5748233
  46.0349815  12.6960331  67.1926003  46.5284174  11.2775601  67.0019876
  45.4750639  21.8920343  51.4574187  45.6238759  22.5755808  50.8040860
  46.2817082  21.8725433  51.9723643  53.8818143  15.1962726  65.4841405
  54.7828005  15.0569190  65.1925403  53.9566117  15.3617180  66.4239583
  48.2160948  12.5729580  64.3294592  47.3464257  12.8663146  64.0577180
  48.4520428  13.1570025  65.0501855  59.2928259  19.1981619  56.9326690
  60.1275151  19.6371423  57.0964251  59.4287388  18.7220272  56.1134936
  43.2303272  17.9185521  52.4635256  42.9849314  17.0147851  52.6615467
  43.3999186  17.9202671  51.5214734  50.9199982   8.7909197  61.8460012
  51.4381926   9.5270224  61.5206501  50.5655114   9.0973190  62.6806771
  42.4998919  13.6513878  49.9621418  41.8068164  13.7258233  49.3061454
  42.2550671  12.8874222  50.4842935  51.1712576   5.2109480  57.3660909
  51.4514330   4.5432669  57.9921335  51.9563183   5.4038575  56.8535572
  48.9746044  24.3868474  48.9285935  48.4020011  25.0058661  48.4756407
  49.5478838  24.9367835  49.4625857  55.0421434  13.6327114  61.1132484
  55.9938857  13.7325211  61.1344708  54.8724885  12.8405382  61.6230568
  53.0635814  10.7182697  61.2991885  52.4685746  10.9987710  60.6038373
  52.7785510  11.2076598  62.0708626  52.1943304  24.6705624  50.0594517
  53.1273977  24.6051185  50.2627393  52.1066517  25.5061891  49.6009050
  54.8231321  23.9871494  47.0198465  54.7444952  23.6531358  47.9134223
  55.6440988  24.4793262  47.0189937  49.3592843  15.7229286  46.2701987
  50.3051948  15.5935494  46.3390405  48.9807088  14.9843948  46.7471416
  57.6704001  13.6444277  60.2733067  57.1543049  12.8602733  60.0862995
  58.5543949  13.3162993  60.4379586  55.3314727   7.3885292  56.2328879
  55.1339549   7.0800381  57.1172211  55.9414433   8.1146931  56.3626809
  63.3386062  17.9149240  59.3680820  64.0689450  17.6534528  59.9288523
  62.7293007  17.1777962  59.4082888  61.4201359  16.0557103  59.9655271
  60.6934523  15.9213068  59.3571763  61.0048646  16.3633931  60.7711989
  47.5435760  13.6479263  46.2056873  46.6367215  13.3512375  46.2819586
  47.8211741  13.3509081  45.3391159  38.4613700  14.9685626  56.6555919
  38.1416485  14.1150934  56.3630293  37.9147129  15.1834204  57.4113886
  42.2393608  17.6848067  60.3725426  42.4579618  18.6165175  60.3913459
  42.6519382  17.3256042  61.1580229  49.1597826   8.1916152  52.3601114
  48.3498554   7.8463237  52.7356360  49.8482243   7.8823696  52.9488725
  51.0888374   7.2694199  53.9825411  51.6419413   7.6889653  54.6415434
  51.3258460   6.3429947  54.0248367  46.3134545  10.5066198  46.3468852
  47.1753709  10.8321096  46.6064669  46.4984889   9.7197694  45.8341918
  38.3301960  18.5888538  58.6249041  37.6365432  18.1742490  58.1118995
  39.0774951  18.6309074  58.0282459  54.4667181   9.3794724  53.4904075
  53.8865850  10.0379528  53.1082127  54.2003114   8.5572069  53.0791492
  52.9170748   8.7799782  55.6925395  53.4170526   8.8916317  54.8839714
  53.5606355   8.4760835  56.3326204  40.2438703  18.5206791  56.5015055
  40.2209391  18.6194479  55.5496939  40.5539339  19.3671942  56.8232222
  42.9026081  20.5782946  60.6161670  43.8569334  20.5466889  60.5491601
  42.7038604  20.1173570  61.4311896  43.4925463  19.1484063  63.1832468
  44.3118352  19.6428141  63.2067305  43.7662271  18.2316031  63.1550035
  53.2492059  11.5394815  52.5460423  52.3617914  11.8244465  52.3280618
  53.6646048  11.3788578  51.6987700  56.6006595  11.5641336  56.2614762
  57.3766985  12.0537788  56.5339379  55.8754729  11.9899390  56.7186632
  59.0379154  12.2768955  57.3188703  59.6323645  12.0364691  56.6082011
  59.1105738  11.5576086  57.9462239  41.2576310  26.1202566  57.6331868
  41.1230778  25.3602967  57.0669866  40.8408372  26.8443466  57.1660657
  52.3935273  21.3039490  46.6408443  53.0971123  21.5089492  47.2566099
  51.6697921  21.8716251  46.9057527  53.2233083  17.0549351  52.7610713
  53.1668284  17.5117902  51.9218346  53.7761425  16.2940035  52.5833556
  57.0337889  12.8439083  53.5860833  56.7774823  12.4435718  54.4169040
  56.4090757  13.5582877  53.4610972  61.3450227  15.5835156  56.0932124
  60.7849785  15.6528345  56.8663686  60.7393730  15.4076141  55.3731620
  44.4145435  27.0171883  57.8450310  44.2977820  27.9617315  57.7429001
  43.5937882  26.7145445  58.2336110  54.3021970  21.7422019  48.6906903
  55.1367574  21.3103217  48.5084378  54.1406313  21.5704032  49.6183798
  53.9567862  18.2454132  50.0563242  53.9016666  18.0798403  49.1151687
  53.3313917  18.9530165  50.2125432  38.7460377  13.4822196  63.8824665
  39.3919241  12.9721150  64.3711890  38.5377528  14.2190878  64.4568090
  47.2663988   7.7462241  49.6348561  47.2542657   8.6904081  49.7916832
  48.1587410   7.5632386  49.3408022  45.4399950  27.6700145  61.0606239
  46.3427196  27.7023755  61.3772734  45.2137320  26.7400596  61.0752575
  47.1953552  26.4231131  57.7216317  46.2449183  26.4232993  57.6080690
  47.4986038  25.6763866  57.2052352  51.0816107   4.3405018  53.8894498
  50.3148503   3.7863504  54.0351180  51.4926812   4.4126886  54.7508649
  43.0857868  10.6289813  67.9799679  43.9489330  10.2726618  68.1903003
  42.5123279  10.2903708  68.6675083  62.9306245  32.2591670  58.7862080
  63.5684655  32.1398417  58.0825420  62.8127088  33.2072514  58.8450032
  59.7395951  32.2119098  58.7223605  59.4014463  32.0960163  57.8344139
  60.6085720  31.8110263  58.7024611  55.5982767  34.0654574  54.7120495
  55.0347632  33.9744511  53.9436783  55.4835162  33.2454479  55.1922988
  53.1447199  35.5605766  57.5504716  53.9368491  35.2196591  57.1351015
  53.3843849  35.6700741  58.4706869  61.1782326  37.7325542  50.0234960
  60.5270306  38.3179622  49.6368974  61.9726689  38.2631737  50.0829998
  55.1037953  34.8214679  50.4222095  55.8768829  34.2743666  50.2834971
  55.4563352  35.6858929  50.6336556  57.8679202  33.5267910  60.2190354
  58.4642775  33.3023932  59.5047317  57.9254174  32.7852655  60.8215802
  57.4404231  30.9807345  48.0540545  57.6929751  30.4588867  47.2924008
  56.5028790  30.8173491  48.1567228  62.4847514  29.9843124  55.8615288
  63.2710603  29.5662547  55.5105705  62.7486218  30.8889216  56.0296936
  62.6557591  35.4215974  50.5603945  62.0203424  35.4950600  51.2724849
  62.3254997  36.0109573  49.8823024  67.8855941  29.9218357  56.7648266
  68.6181113  29.3517574  56.9986096  67.1295296  29.5339957  57.2054772
  57.1600520  32.8835451  50.2564920  57.0436778  32.2080355  50.9246004
  57.2702779  32.3967825  49.4397073  59.5032060  32.3445598  53.9611609
  59.1390268  31.8176219  54.6724530  60.3599176  31.9544067  53.7878094
  65.4081361  23.6339931  61.2242875  65.0764686  24.5035342  61.0004090
  64.8126974  23.3176215  61.9036905  59.1437547  27.3735498  48.9572957
  59.3111950  28.2415734  49.3243428  58.9534717  27.5362780  48.0334247
  61.9012881  35.8352477  60.6238788  61.6013604  36.7377516  60.5154595
  61.5563940  35.5684660  61.4759941  55.3525362  32.2866274  56.6575492
  54.4275859  32.1542488  56.8653184  55.6009775  33.0660493  57.1545435
  65.3010024  28.3535017  58.3036225  64.3926902  28.2850426  58.0094986
  65.2497620  28.8306962  59.1318051  59.1226768  29.8293156  49.9419624
  59.0026394  30.2750206  50.7805104  58.4279357  30.1778473  49.3833162
  52.7134173  31.9299547  57.4919281  52.8426554  32.1834026  58.4058693
  52.0331624  32.5227255  57.1723936  56.8833660  42.5996797  53.5909755
  56.8057690  43.5504622  53.6698236  56.2795304  42.2542670  54.2484682
  67.1671671  26.5551456  60.0814099  66.5246051  26.8483989  59.4353894
  66.6626599  26.4404376  60.8867296  64.8211834  30.3014629  50.7699958
  65.7329691  30.5342015  50.5947656  64.3121482  30.8851673  50.2075037
  63.1052602  34.7239257  64.4061251  63.5135958  34.2821667  63.6615883
  62.3829864  34.1491884  64.6595444  63.4281417  35.2840447  58.1613540
  62.7990279  35.4486161  57.4589608  63.0407079  35.6982057  58.9324504
  67.3070649  36.2194885  55.5157903  66.6221687  36.5993786  54.9654937
  67.3914498  36.8290212  56.2489851  64.5621580  33.8654844  62.1153247
  64.7738476  34.5086604  61.4387628  64.5151329  33.0317161  61.6475177
  62.1647809  26.4772665  59.0189819  61.3032288  26.7753918  59.3106557
  62.1910244  26.6943064  58.0870852  58.9809379  35.0214855  55.4263625
  59.4447724  35.3002558  54.6368247  58.7166177  34.1198300  55.2436715
  55.8733460  34.5686337  58.3643388  56.4434817  34.9973605  57.7260873
  56.4641572  34.2868922  59.0627574  57.9178265  31.1438008  52.2353190
  58.6202308  31.5959051  52.7027116  57.5858893  30.5021827  52.8633083
  51.6603599  29.4021560  57.5370324  50.8702653  29.6579089  57.0610434
  52.1514846  30.2169898  57.6422364  65.6767408  36.7426799  60.2875604
  66.4984852  36.3406987  60.0058286  65.6729811  36.6395034  61.2391720
  53.6118344  29.7666140  54.4953800  52.8149507  29.8784834  55.0137296
  53.3843936  30.1052792  53.6294691  59.4424012  36.2910843  62.4436315
  59.5068444  36.7531250  63.2794487  58.7334936  35.6608208  62.5718625
  49.9441302  29.6552051  59.9685314  50.1949340  30.5399061  60.2342890
  50.4800850  29.4756652  59.1960406  73.7673401  33.0865548  56.6360576
  73.0137110  32.5172946  56.4804580  73.9020942  33.0528212  57.5831210
  59.1572029  37.9578950  52.3115295  59.0217704  38.8030486  52.7400143
  59.6981842  38.1598228  51.5481229  52.6101427  35.4754388  52.8843220
  53.1225947  36.2697639  53.0348785  53.2624140  34.7780679  52.8176822
  54.4196311  38.5920145  54.9665973  54.5962940  39.5138109  54.7786957
  55.2153145  38.2778564  55.3960353  55.5427627  40.1098318  60.9676316
  56.0935052  39.9815382  60.1953310  54.7039103  40.4093207  60.6171209
  62.8821744  38.8605317  64.4697039  62.8640219  39.6814198  63.9777308
  63.8041664  38.7359392  64.6947180  62.5064493  21.4809512  60.8414189
  62.1628762  22.3711154  60.7653299  62.8743456  21.2911170  59.9783774
  50.5750344  33.8043043  53.6602791  51.4125566  34.2140051  53.4436498
  50.7528611  32.8642485  53.6302985  62.4714776  31.4718123  49.3486624
  61.9561399  32.2422728  49.5875011  62.1992084  30.7983259  49.9719685
  60.0561887  26.3167824  54.4071862  59.2003483  25.9274674  54.2277501
  60.4688838  26.3959785  53.5471648  61.5861033  23.8514167  58.8063422
  61.0825829  23.8144302  57.9931227  61.8791640  24.7606910  58.8660079
  57.8303919  23.9352897  57.8129604  58.6956916  23.7395706  57.4535493
  57.8981428  23.7063249  58.7398960  67.4449050  34.2250478  51.2839797
  66.6678493  33.8861637  50.8394959  68.1240531  34.2303101  50.6094762
  62.2601079  29.3445215  51.1746405  61.9551214  29.6591365  52.0256548
  63.2131521  29.4226635  51.2173738  60.7047511  35.5035439  52.8239359
  60.1768872  34.7688198  52.5112596  60.2035013  36.2810115  52.5779327
  65.6840357  33.6984459  57.9406405  65.0264031  34.3883721  58.0286534
  66.4880756  34.0880891  58.2840392  55.4366238  26.1655105  55.1845970
  56.0109990  25.9430286  54.4519163  56.0237221  26.2343799  55.9374572
  64.4945815  32.0528832  55.9910347  65.0077697  32.6858824  56.4932057
  65.1447039  31.4530027  55.6253707  55.7635825  28.1959566  49.2041856
  54.9273138  28.5334253  49.5251130  55.6240595  28.0608546  48.2668993
  57.7388906  23.0396354  53.9121040  57.0853318  22.7245371  53.2877655
  57.6969380  22.4172094  54.6380863  58.8500111  33.3215649  45.8274332
  57.9427173  33.0904902  46.0265481  59.3471143  32.5253268  46.0148313
  61.7568190  42.0313156  48.7471018  61.0829888  42.3344853  49.3555976
  62.1434012  42.8342236  48.3976475  60.9726646  29.5278287  58.2368687
  60.0549208  29.7493234  58.0790376  61.3886790  29.6024598  57.3780395
  61.7561694  30.9269703  53.3671368  62.5033513  31.4391100  53.0578490
  62.0253284  30.6053756  54.2275761  60.0288344  33.4228244  50.3498322
  59.1199564  33.1387277  50.4470792  60.0583428  33.8427322  49.4901629
  65.2607612  37.0334833  54.1189490  64.8069939  36.1925743  54.1754680
  64.6301578  37.6696232  54.4564270  64.2040531  27.9626819  55.3490157
  63.4663288  27.4504206  55.6800400  64.4567305  27.5227201  54.5373434
  63.7040551  38.8711330  55.0539308  63.9963525  39.4316387  54.3351673
  64.2139171  39.1639891  55.8092467  64.3052159  20.7403071  55.9431926
  64.6111035  19.8800435  55.6557841  65.0304763  21.3320692  55.7430920
  50.5976515  31.1433758  54.3313524  50.4000914  30.5503119  53.6064591
  50.0423179  30.8385968  55.0489463  58.5773238  31.0356864  56.4508117
  58.6321848  30.0830701  56.3750594  57.7664440  31.1916304  56.9349416
  59.7264432  34.9636987  47.6886401  59.2883862  34.2472846  47.2292038
  60.4674873  35.1913102  47.1271492  56.5165598  29.6533924  54.2098496
  55.7033464  29.9528095  54.6163688  57.0124592  29.2589613  54.9272978
  58.6674176  39.6491681  56.1432761  58.6250355  39.8752527  55.2141293
  59.5836875  39.4155056  56.2918562  67.8437547  33.2394185  53.7462719
  67.7055445  33.4295780  52.8183908  67.4873766  34.0013567  54.2030770
  56.0079673  27.2252280  59.8259731  56.6479052  27.0841039  59.1282695
  55.1757204  26.9386793  59.4498333  67.8706926  35.3070712  58.7573991
  68.3043433  35.2146001  59.6057045  68.5838507  35.2828212  58.1194007
  56.7839977  36.5254710  55.9394724  57.5780575  36.0305030  55.7377299
  56.0731669  35.9972573  55.5762429  61.6034821  38.9072806  60.2907091
  61.6571844  39.4763742  61.0584807  60.7349603  39.0774691  59.9261128
  53.0922740  30.6697792  52.0154476  52.1620328  30.6082247  52.2324438
  53.1880212  30.1473745  51.2191118  53.0108289  27.1952605  54.6032718
  53.2715107  28.1097938  54.4941878  53.8325462  26.7277047  54.7529331
  54.4833215  28.6090362  61.7731543  55.1556268  28.4007724  61.1244191
  53.6563001  28.4112448  61.3336775  68.7322476  35.3494412  61.2906876
  68.9258366  36.2540223  61.5366151  68.6323094  34.8901831  62.1245461
  59.3611253  37.0983732  59.6192561  59.2222339  36.7302516  60.4918499
  58.5725849  37.6131372  59.4476519  59.9559405  42.1992829  50.9618097
  60.1311161  41.7280872  51.7763720  59.2692193  42.8258595  51.1899358
  60.9116468  36.4765335  57.0081399  60.5766301  36.4366105  57.9039048
  60.4120414  35.8110051  56.5351809  63.8475660  33.8221369  47.2818458
  63.2304830  33.0968197  47.1851511  63.3792148  34.5830729  46.9385532
  56.2271947  28.5818142  63.8413299  55.6909304  28.1308880  64.4934895
  55.6388655  28.7164051  63.0983763  54.5220490  45.3482191  57.7357957
  54.7617088  45.9800715  58.4136976  53.6789687  44.9970231  58.0223317
  55.6374206  28.0406793  46.4039762  54.7603672  27.9195594  46.0402009
  56.1131959  27.2492872  46.1518651  65.5047199  36.4959861  63.1738218
  64.6173977  36.1585783  63.2964617  66.0745750  35.7642893  63.4106984
  47.1576346  32.8283953  56.4981270  47.8447386  32.5145683  55.9102285
  47.0024474  33.7325318  56.2248521  51.9611068  27.7174150  60.9266293
  51.8769257  27.1099819  60.1916703  51.1393774  28.2083168  60.9275790
  59.0348352  41.1561314  60.1399461  58.9618523  41.9616285  60.6518766
  58.5925745  41.3553280  59.3147483  58.8238132  40.3933084  53.6502283
  58.0405654  40.9354764  53.7440507  59.5230877  40.9107063  54.0496524
  62.1334782  26.2027713  56.2936488  62.6303481  25.4497676  55.9737559
  61.3621763  26.2392030  55.7279698  69.9864539  31.9068079  57.9354780
  69.9754415  32.7892794  57.5648713  69.1181919  31.5539630  57.7409317
  61.4947036  41.0548148  62.2957620  62.2075008  41.6895613  62.2233522
  61.0037064  41.1512014  61.4797622  63.2164562  34.9599400  53.8674912
  62.2820841  35.0800863  53.6979616  63.3941231  34.0571867  53.6034922
  58.7169750  28.3445096  56.0208173  58.3467538  27.7916137  56.7089079
  59.2128843  27.7403230  55.4683173  66.6037114  30.8016720  54.4024946
  67.0697566  31.6344711  54.3285249  67.0544614  30.3361701  55.1070204
  56.5458949  38.8042591  63.1163191  57.2468409  39.4379074  63.2692585
  56.0754064  39.1457323  62.3558830  64.6713345  37.1460541  51.4011098
  64.9473189  37.0317136  52.3104972  63.8017844  36.7478026  51.3623271
  64.5753777  23.1697307  58.4415847  63.6616856  23.4001534  58.6098054
  65.0046878  23.2535751  59.2929880  64.3460235  31.3587199  60.9415741
  63.6931685  31.6063106  60.2868194  64.7240615  30.5451337  60.6078219
  61.3067409  41.3946892  55.0443912  61.4889803  40.5768548  55.5071664
  62.1300395  41.6114584  54.6068802  61.6409574  40.3215077  52.3058960
  62.1697341  39.8107532  51.6929122  61.9037794  40.0057607  53.1704493
  52.1426667  38.3378946  60.0494294  52.7280104  37.5922634  60.1822198
  51.9451506  38.6482903  60.9330957  54.9965322  41.3730194  55.0656736
  54.3275698  41.8576321  54.5820776  54.8578192  41.6199414  55.9800115
  46.7344322  30.9084547  58.7698737  46.7728421  30.3748137  59.5635855
  46.2284615  30.3819752  58.1509714  59.1370591  43.4073937  61.6639394
  59.6888899  43.5705559  62.4288480  59.4776784  43.9978375  60.9919419
  54.1135084  25.7549087  62.2661279  54.1776411  26.6163918  61.8538677
  54.0502204  25.1423089  61.5333638  50.3652899  29.6348649  51.8452668
  50.6606341  28.7259327  51.7919722  49.4640935  29.6136388  51.5233670
  62.2738978  41.3555913  58.6503077  62.1490118  40.5545653  58.1414022
  62.9318069  41.8502106  58.1617046  53.8947146  27.7104645  57.8280217
  53.1733732  28.3240613  57.6887690  54.6840402  28.2462410  57.7496863
  64.3373887  39.1564933  60.2782627  63.3904222  39.0370284  60.2060953
  64.6856660  38.2687431  60.3608888  52.0940741  27.3162746  51.9691993
  51.7653447  26.4360125  51.7867099  52.4480112  27.2610415  52.8568383
  61.3420320  38.9517649  56.4786979  61.1945282  38.0234356  56.6594549
  62.1673813  38.9737740  55.9944054  55.2082564  27.6035716  52.3367471
  55.5478637  28.1321637  51.6146079  55.6554685  27.9416122  53.1126037
  64.9454442  39.7746208  57.5651852  65.8700989  39.5689069  57.4276303
  64.7769745  39.5262609  58.4741193  58.5542477  23.0722079  60.2397862
  59.3768546  22.5982557  60.1176752  58.7980540  23.8512563  60.7396548
  57.1950711  26.1010338  50.5360764  57.9159074  26.4791591  50.0324481
  56.5716015  26.8199215  50.6395742  61.3381834  26.8055487  51.4719096
  61.5545449  27.6880125  51.1707924  60.8575901  26.4141700  50.7424738
  56.0781056  29.7641200  58.0489841  55.9325636  30.0781503  58.9414122
  55.6006259  30.3826100  57.4960739  57.9377438  26.7543748  58.0970730
  57.9239007  25.8584841  57.7603028  58.6549867  26.7614412  58.7309016
  64.7349758  40.2931875  52.9213943  64.9086635  39.7278298  52.1687795
  65.2278649  41.0932770  52.7393433  50.5526718  32.3046544  60.9877502
  50.0080186  33.0806352  61.1197776  51.4306068  32.6517349  60.8296623
  57.3414334  25.6358128  53.3658300  57.4630246  24.7074774  53.5649188
  57.0516377  25.6496814  52.4536616  60.2105525  23.3213039  56.5025020
  60.2327222  23.3852372  55.5477000  60.6273584  22.4817547  56.6965526
  70.5889149  33.0568298  54.5404243  71.0320295  32.3075623  54.1423366
  69.7115659  33.0478435  54.1577975  65.7224930  39.6098640  50.0210841
  66.4175835  40.2305332  50.2398156  66.0648081  38.7593991  50.2963219
  67.6216354  37.0598345  51.5498172  68.1467678  37.3985618  50.8247492
  67.5338706  36.1245360  51.3661307  59.2836402  40.9732419  63.6788049
  59.5923529  40.7281566  64.5510748  60.0811884  41.1779057  63.1906919
  59.3057014  43.1270328  55.9093425  58.8662005  42.6346707  56.6026282
  60.0565131  42.5843296  55.6685500  51.7849353  39.3181869  55.9118053
  52.6107373  39.0185641  55.5316697  51.4343405  38.5489492  56.3607842
  56.7530886  38.6708338  57.9815727  56.1310896  38.0079043  57.6817955
  57.4235753  38.6969469  57.2989375  49.9857958  37.2368196  56.8706987
  49.1489867  36.8090370  56.6890988  49.9581604  37.4300639  57.8077778
  67.4308135  34.5423715  64.1682099  67.4806140  34.3773723  65.1097621
  67.3222058  33.6750974  63.7779979  56.3144393  37.2212261  51.4574187
  56.4632514  37.9047725  50.8040860  57.1210837  37.2017351  51.9723643
  68.9326331  36.9620657  64.4124120  68.6411140  37.3250637  65.2487581
  68.3198463  36.2487665  64.2337452  70.1322014  34.5273536  56.9326690
  70.9668905  34.9663341  57.0964251  70.2681143  34.0512190  56.1134936
  67.1813520  32.0853271  62.8804178  67.6567641  32.2780918  62.0723029
  66.2579085  32.1412457  62.6347562  54.0697026  33.2477438  52.4635256
  53.8243068  32.3439768  52.6615467  54.2392941  33.2494589  51.5214734
  53.3392674  28.9805796  49.9621418  52.6461919  29.0550151  49.3061454
  53.0944426  28.2166140  50.4842935  62.0106330  20.5401397  57.3660909
  62.2908084  19.8724586  57.9921335  62.7956937  20.7330493  56.8535572
  59.8139799  39.7160391  48.9285935  59.2413766  40.3350578  48.4756407
  60.3872593  40.2659753  49.4625857  65.8815189  28.9619031  61.1132484
  66.8332612  29.0617129  61.1344708  65.7118639  28.1697300  61.6230568
  63.0337059  39.9997541  50.0594517  63.9667732  39.9343103  50.2627393
  62.9460271  40.8353808  49.6009050  65.6625075  39.3163412  47.0198465
  65.5838707  38.9823275  47.9134223  66.4834742  39.8085180  47.0189937
  68.3603267  32.1825151  60.2274783  68.3279587  31.2441152  60.4134467
  68.9703890  32.2609188  59.4940608  60.1986597  31.0521204  46.2701987
  61.1445702  30.9227412  46.3390405  59.8200842  30.3135866  46.7471416
  68.5097755  28.9736195  60.2733067  67.9936804  28.1894651  60.0862995
  69.3937704  28.6454911  60.4379586  66.1708482  22.7177210  56.2328879
  65.9733303  22.4092298  57.1172211  66.7808187  23.4438849  56.3626809
  74.1779816  33.2441158  59.3680820  74.9083205  32.9826446  59.9288523
  73.5686762  32.5069880  59.4082888  72.2595113  31.3849021  59.9655271
  71.5328277  31.2504985  59.3571763  71.8442400  31.6925849  60.7711989
  58.3829515  28.9771180  46.2056873  57.4760970  28.6804293  46.2819586
  58.6605496  28.6800999  45.3391159  49.3007455  30.2977544  56.6555919
  48.9810239  29.4442852  56.3630293  48.7540883  30.5126122  57.4113886
  59.9991580  23.5208070  52.3601114  59.1892309  23.1755155  52.7356360
  60.6875997  23.2115614  52.9488725  61.9282129  22.5986117  53.9825411
  62.4813167  23.0181570  54.6415434  62.1652215  21.6721865  54.0248367
  57.1528299  25.8358116  46.3468852  58.0147463  26.1613014  46.6064669
  57.3378643  25.0489612  45.8341918  49.1695715  33.9180455  58.6249041
  48.4759186  33.5034408  58.1118995  49.9168706  33.9600992  58.0282459
  65.3060936  24.7086642  53.4904075  64.7259605  25.3671446  53.1082127
  65.0396868  23.8863987  53.0791492  63.7564502  24.1091700  55.6925395
  64.2564280  24.2208234  54.8839714  64.4000110  23.8052753  56.3326204
  51.0832457  33.8498709  56.5015055  51.0603146  33.9486396  55.5496939
  51.3933094  34.6963860  56.8232222  64.0885814  26.8686733  52.5460423
  63.2011669  27.1536383  52.3280618  64.5039803  26.7080496  51.6987700
  67.4400350  26.8933253  56.2614762  68.2160740  27.3829706  56.5339379
  66.7148484  27.3191308  56.7186632  69.8772908  27.6060873  57.3188703
  70.4717399  27.3656609  56.6082011  69.9499492  26.8868003  57.9462239
  52.0970064  41.4494484  57.6331868  51.9624532  40.6894885  57.0669866
  51.6802126  42.1735384  57.1660657  63.2329027  36.6331407  46.6408443
  63.9364877  36.8381410  47.2566099  62.5091676  37.2008169  46.9057527
  64.0626837  32.3841268  52.7610713  64.0062039  32.8409820  51.9218346
  64.6155180  31.6231953  52.5833556  67.8731643  28.1731000  53.5860833
  67.6168578  27.7727636  54.4169040  67.2484511  28.8874794  53.4610972
  72.1843981  30.9127074  56.0932124  71.6243539  30.9820263  56.8663686
  71.5787485  30.7368058  55.3731620  55.2539190  42.3463801  57.8450310
  55.1371574  43.2909233  57.7429001  54.4331636  42.0437362  58.2336110
  65.1415725  37.0713936  48.6906903  65.9761328  36.6395135  48.5084378
  64.9800067  36.8995950  49.6183798  64.7961617  33.5746050  50.0563242
  64.7410420  33.4090321  49.1151687  64.1707672  34.2822083  50.2125432
  49.5854132  28.8114114  63.8824665  50.2312995  28.3013068  64.3711890
  49.3771283  29.5482796  64.4568090  58.1057742  23.0754159  49.6348561
  58.0936412  24.0195999  49.7916832  58.9981164  22.8924304  49.3408022
  56.2793704  42.9992063  61.0606239  57.1820951  43.0315673  61.3772734
  56.0531074  42.0692514  61.0752575  58.0347306  41.7523049  57.7216317
  57.0842937  41.7524911  57.6080690  58.3379792  41.0055784  57.2052352
  61.9209862  19.6696935  53.8894498  61.1542257  19.1155422  54.0351180
  62.3320567  19.7418804  54.7508649  66.4376522  49.3946492  54.7120495
  65.8741387  49.3036429  53.9436783  66.3228917  48.5746396  55.1922988
  63.9840954  50.8897684  57.5504716  64.7762245  50.5488508  57.1351015
  64.2237604  50.9992659  58.4706869  65.9431707  50.1506597  50.4222095
  66.7162583  49.6035584  50.2834971  66.2957106  51.0150846  50.6336556
  68.2797985  46.3099263  48.0540545  68.5323506  45.7880784  47.2924008
  67.3422544  46.1465408  48.1567228  73.4951345  50.7507892  50.5603945
  72.8597178  50.8242518  51.2724849  73.1648752  51.3401490  49.8823024
  78.7249695  45.2510275  56.7648266  79.4574867  44.6809491  56.9986096
  77.9689051  44.8631875  57.2054772  67.9994274  48.2127369  50.2564920
  67.8830532  47.5372272  50.9246004  68.1096534  47.7259743  49.4397073
  70.3425815  47.6737516  53.9611609  69.9784022  47.1468137  54.6724530
  71.1992931  47.2835985  53.7878094  69.9831302  42.7027416  48.9572957
  70.1505704  43.5707652  49.3243428  69.7928471  42.8654697  48.0334247
  69.9620523  45.1585073  49.9419624  69.8420148  45.6042124  50.7805104
  69.2673111  45.5070391  49.3833162  63.5527928  47.2591465  57.4919281
  63.6820309  47.5125944  58.4058693  62.8725379  47.8519173  57.1723936
  75.6605589  45.6306546  50.7699958  76.5723445  45.8633933  50.5947656
  75.1515236  46.2143591  50.2075037  78.1464403  51.5486803  55.5157903
  77.4615441  51.9285704  54.9654937  78.2308252  52.1582129  56.2489851
  68.7572019  46.4729925  52.2353190  69.4596063  46.9250969  52.7027116
  68.4252648  45.8313744  52.8633083  62.4997353  44.7313478  57.5370324
  61.7096407  44.9871007  57.0610434  62.9908601  45.5461816  57.6422364
  64.4512099  45.0958057  54.4953800  63.6543262  45.2076751  55.0137296
  64.2237691  45.4344709  53.6294691  60.7835056  44.9843968  59.9685314
  61.0343095  45.8690978  60.2342890  61.3194605  44.8048570  59.1960406
  84.6067156  48.4157466  56.6360576  83.8530864  47.8464864  56.4804580
  84.7414697  48.3820130  57.5831210  63.4495181  50.8046306  52.8843220
  63.9619702  51.5989556  53.0348785  64.1017894  50.1072596  52.8176822
  64.5442422  45.9676694  64.8428137  64.4295938  45.0661951  65.1435236
  63.6886940  46.2140391  64.4912953  73.3458247  36.8101430  60.8414189
  73.0022517  37.7003072  60.7653299  73.7137210  36.6203087  59.9783774
  61.4144098  49.1334960  53.6602791  62.2519320  49.5431969  53.4436498
  61.5922366  48.1934402  53.6302985  73.3108530  46.8010041  49.3486624
  72.7955154  47.5714646  49.5875011  73.0385839  46.1275177  49.9719685
  68.6697674  39.2644815  57.8129604  69.5350670  39.0687623  57.4535493
  68.7375183  39.0355166  58.7398960  78.2842804  49.5542396  51.2839797
  77.5072247  49.2153555  50.8394959  78.9634285  49.5595019  50.6094762
  73.0994833  44.6737133  51.1746405  72.7944969  44.9883282  52.0256548
  74.0525275  44.7518553  51.2173738  66.2759993  41.4947023  55.1845970
  66.8503745  41.2722204  54.4519163  66.8630975  41.5635717  55.9374572
  66.6029580  43.5251484  49.2041856  65.7666892  43.8626170  49.5251130
  66.4634349  43.3900463  48.2668993  68.5782660  38.3688272  53.9121040
  67.9247073  38.0537289  53.2877655  68.5363135  37.7464012  54.6380863
  69.6893865  48.6507567  45.8274332  68.7820927  48.4196820  46.0265481
  70.1864897  47.8545186  46.0148313  70.8682099  48.7520161  50.3498322
  69.9593318  48.4679194  50.4470792  70.8977183  49.1719240  49.4901629
  75.1445913  36.0694989  55.9431926  75.4504790  35.2092352  55.6557841
  75.8698518  36.6612609  55.7430920  61.4370269  46.4725676  54.3313524
  61.2394669  45.8795036  53.6064591  60.8816933  46.1677886  55.0489463
  70.5658187  50.2928905  47.6886401  70.1277616  49.5764764  47.2292038
  71.3068627  50.5205020  47.1271492  78.6831301  48.5686102  53.7462719
  78.5449200  48.7587698  52.8183908  78.3267520  49.3305485  54.2030770
  78.7100681  50.6362629  58.7573991  79.1437188  50.5437918  59.6057045
  79.4232262  50.6120130  58.1194007  63.9316495  45.9989710  52.0154476
  63.0014083  45.9374165  52.2324438  64.0273967  45.4765662  51.2191118
  63.8502044  42.5244522  54.6032718  64.1108861  43.4389856  54.4941878
  64.6719216  42.0568965  54.7529331  74.6869414  49.1513287  47.2818458
  74.0698585  48.4260115  47.1851511  74.2185903  49.9122647  46.9385532
  66.4767960  43.3698711  46.4039762  65.5997426  43.2487512  46.0402009
  66.9525713  42.5784789  46.1518651  57.9970100  48.1575871  56.4981270
  58.6841140  47.8437601  55.9102285  57.8418229  49.0617235  56.2248521
  62.8004822  43.0466067  60.9266293  62.7163011  42.4391737  60.1916703
  61.9787529  43.5375086  60.9275790  80.8258294  47.2359996  57.9354780
  80.8148170  48.1184712  57.5648713  79.9575673  46.8831547  57.7409317
  75.4147531  38.4989224  58.4415847  74.5010611  38.7293451  58.6098054
  75.8440632  38.5827668  59.2929880  62.9820422  53.6670864  60.0494294
  63.5673858  52.9214552  60.1822198  62.7845260  53.9774821  60.9330957
  65.8359077  56.7022111  55.0656736  65.1669452  57.1868239  54.5820776
  65.6971947  56.9491332  55.9800115  57.5738076  46.2376464  58.7698737
  57.6122176  45.7040055  59.5635855  57.0678369  45.7111670  58.1509714
  64.9528839  41.0841005  62.2661279  65.0170165  41.9455836  61.8538677
  64.8895959  40.4715006  61.5333638  64.4281111  43.1564137  65.9134313
  65.0553150  42.7741215  66.5271838  63.5709030  42.9378339  66.2790006
  61.2046654  44.9640566  51.8452668  61.5000095  44.0551245  51.7919722
  60.3034690  44.9428306  51.5233670  62.9334496  42.6454664  51.9691993
  62.6047202  41.7652043  51.7867099  63.2873866  42.5902333  52.8568383
  66.0476319  42.9327634  52.3367471  66.3872391  43.4613555  51.6146079
  66.4948439  43.2708040  53.1126037  69.3936231  38.4013997  60.2397862
  70.2162301  37.9274475  60.1176752  69.6374295  39.1804481  60.7396548
  68.0344466  41.4302255  50.5360764  68.7552828  41.8083508  50.0324481
  67.4109770  42.1491132  50.6395742  72.1775589  42.1347404  51.4719096
  72.3939203  43.0172042  51.1707924  71.6969656  41.7433618  50.7424738
  61.3920472  47.6338462  60.9877502  60.8473940  48.4098270  61.1197776
  62.2699822  47.9809266  60.8296623  68.1808089  40.9650046  53.3658300
  68.3024000  40.0366692  53.5649188  67.8910131  40.9788732  52.4536616
  71.0499279  38.6504956  56.5025020  71.0720976  38.7144289  55.5477000
  71.4667338  37.8109465  56.6965526  81.4282904  48.3860216  54.5404243
  81.8714050  47.6367541  54.1423366  80.5509414  48.3770352  54.1577975
  62.1786494  46.7608358  63.8807659  61.4368230  46.9090994  64.4672289
  61.8579238  47.0216624  63.0174408  78.4610108  52.3890263  51.5498172
  78.9861432  52.7277536  50.8247492  78.3732461  51.4537278  51.3661307
  62.6243108  54.6473787  55.9118053  63.4501128  54.3477559  55.5316697
  62.2737160  53.8781409  56.3607842  60.8251713  52.5660113  56.8706987
  59.9883621  52.1382288  56.6890988  60.7975358  52.7592557  57.8077778
  67.1538148  52.5504179  51.4574187  67.3026268  53.2339643  50.8040860
  67.9604591  52.5309269  51.9723643  80.9715768  49.8565454  56.9326690
  81.8062660  50.2955258  57.0964251  81.1074897  49.3804107  56.1134936
  64.9090781  48.5769356  52.4635256  64.6636823  47.6731686  52.6615467
  65.0786695  48.5786507  51.5214734  64.1786428  44.3097714  49.9621418
  63.4855673  44.3842069  49.3061454  63.9338180  43.5458057  50.4842935
  72.8500085  35.8693315  57.3660909  73.1301839  35.2016504  57.9921335
  73.6350692  36.0622411  56.8535572  71.0380352  46.3813122  46.2701987
  71.9839457  46.2519330  46.3390405  70.6594597  45.6427784  46.7471416
  77.0102236  38.0469128  56.2328879  76.8127058  37.7384216  57.1172211
  77.6201942  38.7730767  56.3626809  85.0173571  48.5733076  59.3680820
  85.7476959  48.3118364  59.9288523  84.4080516  47.8361798  59.4082888
  83.0988868  46.7140938  59.9655271  82.3722032  46.5796903  59.3571763
  82.6836155  47.0217767  60.7711989  69.2223269  44.3063098  46.2056873
  68.3154724  44.0096211  46.2819586  69.4999250  44.0092916  45.3391159
  60.1401209  45.6269462  56.6555919  59.8203994  44.7734770  56.3630293
  59.5934638  45.8418040  57.4113886  63.9181117  48.3431903  60.3725426
  64.1367127  49.2749010  60.3913459  64.3306891  47.9839877  61.1580229
  70.8385335  38.8499988  52.3601114  70.0286063  38.5047073  52.7356360
  71.5269752  38.5407532  52.9488725  72.7675883  37.9278035  53.9825411
  73.3206922  38.3473488  54.6415434  73.0045969  37.0013783  54.0248367
  67.9922054  41.1650033  46.3468852  68.8541218  41.4904932  46.6064669
  68.1772398  40.3781529  45.8341918  60.0089469  49.2472373  58.6249041
  59.3152941  48.8326326  58.1118995  60.7562460  49.2892910  58.0282459
  76.1454690  40.0378560  53.4904075  75.5653359  40.6963364  53.1082127
  75.8790623  39.2155904  53.0791492  74.5958256  39.4383618  55.6925395
  75.0958035  39.5500152  54.8839714  75.2393864  39.1344670  56.3326204
  61.9226212  49.1790627  56.5015055  61.8996900  49.2778314  55.5496939
  62.2326848  50.0255778  56.8232222  74.9279568  42.1978650  52.5460423
  74.0405423  42.4828301  52.3280618  75.3433557  42.0372414  51.6987700
  62.9363819  56.7786401  57.6331868  62.8018287  56.0186802  57.0669866
  62.5195881  57.5027301  57.1660657  78.7125398  43.5022918  53.5860833
  78.4562332  43.1019554  54.4169040  78.0878266  44.2166712  53.4610972
  83.0237736  46.2418991  56.0932124  82.4637294  46.3112181  56.8663686
  82.4181239  46.0659976  55.3731620  75.6355371  48.9037967  50.0563242
  75.5804175  48.7382239  49.1151687  75.0101426  49.6114000  50.2125432
  60.4247886  44.1406032  63.8824665  61.0706750  43.6304986  64.3711890
  60.2165037  44.8774713  64.4568090  68.9451497  38.4046076  49.6348561
  68.9330166  39.3487916  49.7916832  69.8374919  38.2216222  49.3408022
  72.7603616  34.9988853  53.8894498  71.9936012  34.4447340  54.0351180
  73.1714321  35.0710722  54.7508649  80.8225056  58.0319333  48.9572957
  80.9899459  58.8999570  49.3243428  80.6322225  58.1946615  48.0334247
  80.8014277  60.4876991  49.9419624  80.6813902  60.9334042  50.7805104
  80.1066866  60.8362309  49.3833162  86.4999343  60.9598464  50.7699958
  87.4117200  61.1925851  50.5947656  85.9908991  61.5435508  50.2075037
  84.1502285  62.1301959  49.3486624  83.6348908  62.9006563  49.5875011
  83.8779593  61.4567095  49.9719685  83.9388588  60.0029051  51.1746405
  83.6338723  60.3175200  52.0256548  84.8919030  60.0810471  51.2173738
  85.8828040  58.6210655  55.3490157  85.1450797  58.1088041  55.6800400
  86.1354814  58.1811036  54.5373434  85.9839668  51.3986907  55.9431926
  86.2898544  50.5384270  55.6557841  86.7092272  51.9904527  55.7430920
  85.5263169  64.4805204  47.2818458  84.9092339  63.7552033  47.1851511
  85.0579657  65.2414565  46.9385532  83.0169343  57.4639322  51.4719096
  83.2332958  58.3463960  51.1707924  82.5363410  57.0725535  50.7424738
  81.8893034  53.9796874  56.5025020  81.9114731  54.0436207  55.5477000
  82.3061093  53.1401383  56.6965526  83.6893839  51.1985233  57.3660909
  83.9695593  50.5308422  57.9921335  84.4744446  51.3914328  56.8535572
  87.8495991  53.3761045  56.2328879  87.6520812  53.0676134  57.1172211
  88.4595696  54.1022684  56.3626809  80.0617024  59.6355016  46.2056873
  79.1548479  59.3388129  46.2819586  80.3393005  59.3384834  45.3391159
  81.6779089  54.1791906  52.3601114  80.8679818  53.8338990  52.7356360
  82.3663506  53.8699449  52.9488725  83.6069638  53.2569952  53.9825411
  84.1600676  53.6765406  54.6415434  83.8439724  52.3305700  54.0248367
  86.9848445  55.3670477  53.4904075  86.4047114  56.0255282  53.1082127
  86.7184377  54.5447822  53.0791492  85.4352011  54.7675535  55.6925395
  85.9351789  54.8792070  54.8839714  86.0787619  54.4636588  56.3326204
  85.7673323  57.5270568  52.5460423  84.8799178  57.8120218  52.3280618
  86.1827312  57.3664331  51.6987700  89.5519152  58.8314836  53.5860833
  89.2956087  58.4311471  54.4169040  88.9272020  59.5458630  53.4610972
  86.4749126  64.2329885  50.0563242  86.4197929  64.0674156  49.1151687
  85.8495181  64.9405918  50.2125432  79.7845251  53.7337994  49.6348561
  79.7723921  54.6779834  49.7916832  80.6768673  53.5508139  49.3408022
  83.5997371  50.3280771  53.8894498  82.8329766  49.7739257  54.0351180
  84.0108076  50.4002639  54.7508649  89.9585494  76.9683098  48.0540545
  90.2111015  76.4464620  47.2924008  89.0210053  76.8049244  48.1567228
  85.1282690  81.4630141  52.8843220  85.6407211  82.2573392  53.0348785
  85.7805403  80.7656432  52.8176822  91.3681374  79.3091402  45.8274332
  90.4608436  79.0780655  46.0265481  91.8652406  78.5129021  46.0148313
  85.6104004  76.6573545  52.0154476  84.6801592  76.5958000  52.2324438
  85.7061476  76.1349498  51.2191118  96.3656923  79.8097122  47.2818458
  95.7486094  79.0843950  47.1851511  95.8973412  80.5706482  46.9385532
  88.1555469  74.0282546  46.4039762  87.2784935  73.9071347  46.0402009
  88.6313222  73.2368625  46.1518651  92.7167861  77.0396957  46.2701987
  93.6626966  76.9103165  46.3390405  92.3382106  76.3011619  46.7471416
  90.9010778  74.9646933  46.2056873  89.9942233  74.6680046  46.2819586
  91.1786759  74.6676752  45.3391159 106.2881263  93.5759341  58.7862080
 106.9259673  93.4566088  58.0825420 106.1702106  94.5240184  58.8450032
 103.0970969  93.5286769  58.7223605 102.7589481  93.4127833  57.8344139
 103.9660738  93.1277934  58.7024611 105.2587899  97.1520148  60.6238788
 104.9588622  98.0545186  60.5154595 104.9138958  96.8852331  61.4759941
 100.2408678 103.9164468  53.5909755 100.1632708 104.8672293  53.6698236
  99.6370322 103.5710341  54.2484682 106.4627620  96.0406927  64.4061251
 106.8710976  95.5989338  63.6615883 105.7404882  95.4659555  64.6595444
 106.7856435  96.6008118  58.1613540 106.1565297  96.7653832  57.4589608
 106.3982097  97.0149727  58.9324504 110.6645667  97.5362556  55.5157903
 109.9796705  97.9161457  54.9654937 110.7489516  98.1457882  56.2489851
 107.9196598  95.1822515  62.1153247 108.1313493  95.8254275  61.4387628
 107.8726346  94.3484831  61.6475177 109.0342426  98.0594470  60.2875604
 109.8559870  97.6574657  60.0058286 109.0304829  97.9562704  61.2391720
 117.1248419  94.4033219  56.6360576 116.3712128  93.8340617  56.4804580
 117.2595960  94.3695883  57.5831210 109.0415375  95.0152130  57.9406405
 108.3839049  95.7051391  58.0286534 109.8455774  95.4048562  58.2840392
 107.8520833  93.3696503  55.9910347 108.3652715  94.0026494  56.4932057
 108.5022057  92.7697698  55.6253707 102.0249194 100.9659352  56.1432761
 101.9825373 101.1920198  55.2141293 102.9411893 100.7322726  56.2918562
 105.4714828  91.4343419  63.0413390 105.8264216  91.6614892  63.9007856
 106.1186959  91.7661796  62.4190645 111.2012565  94.5561855  53.7462719
 111.0630463  94.7463451  52.8183908 110.8448784  95.3181238  54.2030770
 111.2281944  96.6238382  58.7573991 111.6618451  96.5313671  59.6057045
 111.9413525  96.5995883  58.1194007 104.9609839 100.2240476  60.2907091
 105.0146862 100.7931413  61.0584807 104.0924621 100.3942361  59.9261128
 103.9197939  94.3900738  61.8494023 104.8489999  94.5411898  61.6762990
 103.4988969  94.4784759  60.9942670 102.7186271  98.4151403  59.6192561
 102.5797357  98.0470187  60.4918499 101.9300867  98.9299042  59.4476519
 103.3134423 103.5160499  50.9618097 103.4886178 103.0448542  51.7763720
 102.6267211 104.1426265  51.1899358 108.8604809  99.8487948  64.9424239
 108.8017355  99.1647168  64.2754822 109.2624328 100.5906938  64.4904865
  97.8795508 106.6649862  57.7357957  98.1192106 107.2968386  58.4136976
  97.0364705 106.3137902  58.0223317 108.8622217  97.8127532  63.1738218
 107.9748995  97.4753454  63.2964617 109.4320768  97.0810563  63.4106984
 102.3923370 102.4728984  60.1399461 102.3193541 103.2783956  60.6518766
 101.9500763 102.6720950  59.3147483 104.8522053 102.3715818  62.2957620
 105.5650026 103.0063283  62.2233522 104.3612082 102.4679684  61.4797622
 104.6642427 102.7114563  55.0443912 104.8464821 101.8936219  55.5071664
 105.4875413 102.9282255  54.6068802 102.4945609 104.7241608  61.6639394
 103.0463917 104.8873229  62.4288480 102.8351802 105.3146046  60.9919419
 105.6313996 102.6723583  58.6503077 105.5065136 101.8713323  58.1414022
 106.2893087 103.1669777  58.1617046 107.6948905 100.4732604  60.2782627
 106.7479240 100.3537955  60.2060953 108.0431678  99.5855102  60.3608888
 104.6995338 100.2685320  56.4786979 104.5520300  99.3402027  56.6594549
 105.5248831 100.2905410  55.9944054 108.3029460 101.0913878  57.5651852
 109.2276007 100.8856740  57.4276303 108.1344763 100.8430280  58.4741193
 108.0924776 101.6099546  52.9213943 108.2661653 101.0445968  52.1687795
 108.5853667 102.4100441  52.7393433 113.9464167  94.3735969  54.5404243
 114.3895313  93.6243294  54.1423366 113.0690677  94.3646105  54.1577975
 110.9791371  98.3766016  51.5498172 111.5042696  98.7153289  50.8247492
 110.8913724  97.4413031  51.3661307 102.6632032 104.4437999  55.9093425
 102.2237023 103.9514378  56.6026282 103.4140149 103.9010967  55.6685500
 100.1105904  99.9876008  57.9815727  99.4885914  99.3246713  57.6817955
 100.7810771 100.0137140  57.2989375 110.6685278  99.0098920  66.8549370
 109.8780821  98.9923058  66.3153869 110.4318632  99.5487213  67.6098407
 110.7883153  95.8591386  64.1682099 110.8381158  95.6941393  65.1097621
 110.6797076  94.9918645  63.7779979 112.2901349  98.2788327  64.4124120
 111.9986158  98.6418308  65.2487581 111.6773481  97.5655336  64.2337452
 113.4897032  95.8441207  56.9326690 114.3243923  96.2831011  57.0964251
 113.6256161  95.3679860  56.1134936 111.7178284  93.4992822  60.2274783
 111.6854605  92.5608823  60.4134467 112.3278908  93.5776859  59.4940608
  98.6114208 103.6631471  57.8450310  98.4946592 104.6076904  57.7429001
  97.7906654 103.3605033  58.2336110  99.6368722 104.3159733  61.0606239
 100.5395969 104.3483344  61.3772734  99.4106092 103.3860184  61.0752575
 101.3922324 103.0690720  57.7216317 100.4417955 103.0692581  57.6080690
 101.6954810 102.3223454  57.2052352 117.1275018 108.9051258  58.7862080
 117.7653428 108.7858006  58.0825420 117.0095860 109.8532102  58.8450032
 113.9364724 108.8578686  58.7223605 113.5983235 108.7419751  57.8344139
 114.8054492 108.4569851  58.7024611 109.7951540 110.7114163  54.7120495
 109.2316405 110.6204100  53.9436783 109.6803935 109.8914067  55.1922988
 114.4184507 110.0113538  64.6809810 114.4073148 109.6166336  63.8090314
 114.5805146 109.2779611  65.2743582 107.3415971 112.2065354  57.5504716
 108.1337263 111.8656179  57.1351015 107.5812622 112.3160329  58.4706869
 115.3751098 114.3785130  50.0234960 114.7239078 114.9639211  49.6368974
 116.1695461 114.9091325  50.0829998 109.3006725 111.4674268  50.4222095
 110.0737601 110.9203255  50.2834971 109.6532124 112.3318517  50.6336556
 111.1391768 112.7950650  63.6288994 110.8481634 113.6996281  63.5135660
 111.7748752 112.8367177  64.3433064 112.0647975 110.1727498  60.2190354
 112.6611547 109.9483521  59.5047317 112.1222946 109.4312244  60.8215802
 111.6373003 107.6266934  48.0540545 111.8898524 107.1048455  47.2924008
 110.6997562 107.4633079  48.1567228 116.6816286 106.6302712  55.8615288
 117.4679375 106.2122135  55.5105705 116.9454990 107.5348804  56.0296936
 116.8526363 112.0675562  50.5603945 116.2172196 112.1410189  51.2724849
 116.5223770 112.6569161  49.8823024 122.0824713 106.5677945  56.7648266
 122.8149885 105.9977162  56.9986096 121.3264069 106.1799546  57.2054772
 111.3569292 109.5295040  50.2564920 111.2405550 108.8539943  50.9246004
 111.4671552 109.0427414  49.4397073 113.7000833 108.9905187  53.9611609
 113.3359040 108.4635808  54.6724530 114.5567949 108.6003656  53.7878094
 119.6050134 100.2799519  61.2242875 119.2733458 101.1494930  61.0004090
 119.0095747  99.9635803  61.9036905 113.3406320 104.0195086  48.9572957
 113.5080722 104.8875323  49.3243428 113.1503489 104.1822368  48.0334247
 116.0981653 112.4812065  60.6238788 115.7982376 113.3837104  60.5154595
 115.7532713 112.2144249  61.4759941 109.5494135 108.9325862  56.6575492
 108.6244631 108.8002076  56.8653184 109.7978548 109.7120081  57.1545435
 119.4978797 104.9994606  58.3036225 118.5895674 104.9310014  58.0094986
 119.4466393 105.4766550  59.1318051 113.3195541 106.4752744  49.9419624
 113.1995166 106.9209795  50.7805104 112.6248129 106.8238062  49.3833162
 106.9102946 108.5759136  57.4919281 107.0395327 108.8293615  58.4058693
 106.2300397 109.1686844  57.1723936 111.0802433 119.2456386  53.5909755
 111.0026463 120.1964211  53.6698236 110.4764076 118.9002258  54.2484682
 113.5719663 106.4184251  66.2471122 112.7952997 106.9778171  66.2373987
 114.2110226 106.9041034  66.7685992 121.3640443 103.2011044  60.0814099
 120.7214823 103.4943577  59.4353894 120.8595372 103.0863964  60.8867296
 119.0180607 106.9474217  50.7699958 119.9298463 107.1801604  50.5947656
 118.5090254 107.5311261  50.2075037 111.8266035 109.2269704  65.8089089
 112.5680719 109.7654748  65.5323913 111.1203020 109.8535993  65.9660641
 117.3021375 111.3698845  64.4061251 117.7104731 110.9281255  63.6615883
 116.5798636 110.7951472  64.6595444 113.6552445 106.3071452  61.7794808
 114.5013640 106.7310865  61.9229457 113.5951082 105.6505076  62.4733371
 117.6250189 111.9300036  58.1613540 116.9959052 112.0945750  57.4589608
 117.2375851 112.3441645  58.9324504 121.5039421 112.8654473  55.5157903
 120.8190459 113.2453375  54.9654937 121.5883270 113.4749800  56.2489851
 116.8051890 103.9675820  63.4375981 116.5612822 104.7217881  62.9010257
 117.0811820 104.3461168  64.2723228 118.7590353 110.5114432  62.1153247
 118.9707248 111.1546192  61.4387628 118.7120101 109.6776749  61.6475177
 116.3616582 103.1232253  59.0189819 115.5001061 103.4213507  59.3106557
 116.3879016 103.3402652  58.0870852 113.1778151 111.6674444  55.4263625
 113.6416497 111.9462147  54.6368247 112.9134949 110.7657888  55.2436715
 110.0702232 111.2145925  58.3643388 110.6403589 111.6433194  57.7260873
 110.6610344 110.9328510  59.0627574 112.1147037 107.7897596  52.2353190
 112.8171080 108.2418640  52.7027116 111.7827666 107.1481415  52.8633083
 110.5627399 106.3809353  66.6104399 109.9326059 107.0625634  66.8439796
 110.4563487 106.2692434  65.6657538 105.8572371 106.0481149  57.5370324
 105.0671425 106.3038677  57.0610434 106.3483618 106.8629487  57.6422364
 119.8736181 113.3886388  60.2875604 120.6953624 112.9866575  60.0058286
 119.8698584 113.2854622  61.2391720 107.8087116 106.4125728  54.4953800
 107.0118280 106.5244422  55.0137296 107.5812709 106.7512380  53.6294691
 113.6392784 112.9370431  62.4436315 113.7037217 113.3990838  63.2794487
 112.9303708 112.3067796  62.5718625 104.1410074 106.3011639  59.9685314
 104.3918113 107.1858649  60.2342890 104.6769622 106.1216241  59.1960406
 127.9642174 109.7325136  56.6360576 127.2105882 109.1632534  56.4804580
 128.0989715 109.6987801  57.5831210 113.3540802 114.6038539  52.3115295
 113.2186477 115.4490074  52.7400143 113.8950614 114.8057816  51.5481229
 106.8070199 112.1213977  52.8843220 107.3194720 112.9157227  53.0348785
 107.4592912 111.4240267  52.8176822 108.6165084 115.2379733  54.9665973
 108.7931712 116.1597698  54.7786957 109.4121917 114.9238152  55.3960353
 112.7576102 102.0987998  66.5649907 113.4985816 102.6995151  66.4854369
 112.9894025 101.3565635  66.0067950 107.9017440 107.2844365  64.8428137
 107.7870956 106.3829622  65.1435236 107.0461958 107.5308062  64.4912953
 114.9809278 115.2262105  66.4415637 114.5373132 114.4398484  66.1236542
 115.6426492 115.4141256  65.7759528 109.7396399 116.7557907  60.9676316
 110.2903824 116.6274970  60.1953310 108.9007875 117.0552796  60.6171209
 117.0790516 115.5064905  64.4697039 117.0608992 116.3273786  63.9777308
 118.0010436 115.3818980  64.6947180 113.5363570 113.0209035  65.3120547
 114.0691907 112.2597323  65.0819855 113.0077651 112.7282686  66.0544701
 116.7033265  98.1269101  60.8414189 116.3597535  99.0170742  60.7653299
 117.0712228  97.9370758  59.9783774 104.7719116 110.4502631  53.6602791
 105.6094338 110.8599639  53.4436498 104.9497384 109.5102073  53.6302985
 116.6683548 108.1177712  49.3486624 116.1530171 108.8882316  49.5875011
 116.3960857 107.4442848  49.9719685 114.2530659 102.9627412  54.4071862
 113.3972255 102.5734263  54.2277501 114.6657611 103.0419373  53.5471648
 115.7829806 100.4973756  58.8063422 115.2794601 100.4603891  57.9931227
 116.0760413 101.4066498  58.8660079 112.0272692 100.5812485  57.8129604
 112.8925688 100.3855294  57.4535493 112.0950201 100.3522837  58.7398960
 121.6417822 110.8710066  51.2839797 120.8647265 110.5321226  50.8394959
 122.3209303 110.8762689  50.6094762 116.4569851 105.9904804  51.1746405
 116.1519987 106.3050953  52.0256548 117.4100293 106.0686224  51.2173738
 114.9016283 112.1495027  52.8239359 114.3737645 111.4147787  52.5112596
 114.4003786 112.9269703  52.5779327 119.8809129 110.3444048  57.9406405
 119.2232804 111.0343309  58.0286534 120.6849528 110.7340479  58.2840392
 109.6335011 102.8114693  55.1845970 110.2078763 102.5889875  54.4519163
 110.2205993 102.8803388  55.9374572 118.6914588 108.6988420  55.9910347
 119.2046470 109.3318412  56.4932057 119.3415812 108.0989616  55.6253707
 109.9604598 104.8419154  49.2041856 109.1241910 105.1793841  49.5251130
 109.8209367 104.7068134  48.2668993 111.9357678  99.6855942  53.9121040
 111.2822091  99.3704959  53.2877655 111.8938153  99.0631683  54.6380863
 113.0468883 109.9675237  45.8274332 112.1395945 109.7364491  46.0265481
 113.5439915 109.1712857  46.0148313 115.9536962 118.6772745  48.7471018
 115.2798661 118.9804441  49.3555976 116.3402784 119.4801825  48.3976475
 115.1695419 106.1737876  58.2368687 114.2517980 106.3952823  58.0790376
 115.5855562 106.2484186  57.3780395 115.9530467 107.5729291  53.3671368
 116.7002285 108.0850689  53.0578490 116.2222056 107.2513344  54.2275761
 114.2257117 110.0687832  50.3498322 113.3168336 109.7846865  50.4470792
 114.2552201 110.4886911  49.4901629 119.4576384 113.6794422  54.1189490
 119.0038711 112.8385332  54.1754680 118.8270351 114.3155820  54.4564270
 118.4009304 104.6086408  55.3490157 117.6632060 104.0963794  55.6800400
 118.6536077 104.1686789  54.5373434 117.9009323 115.5170918  55.0539308
 118.1932298 116.0775975  54.3351673 118.4107944 115.8099479  55.8092467
 118.5020931  97.3862660  55.9431926 118.8079808  96.5260023  55.6557841
 119.2273536  97.9780280  55.7430920 104.7945287 107.7893346  54.3313524
 104.5969687 107.1962707  53.6064591 104.2391951 107.4845557  55.0489463
 112.7742011 107.6816453  56.4508117 112.8290621 106.7290289  56.3750594
 111.9633213 107.8375892  56.9349416 113.9233205 111.6096576  47.6886401
 113.4852634 110.8932435  47.2292038 114.6643645 111.8372691  47.1271492
 110.7134371 106.2993513  54.2098496 109.9002236 106.5987683  54.6163688
 111.2093365 105.9049201  54.9272978 112.8642949 116.2951269  56.1432761
 112.8219127 116.5212116  55.2141293 113.7805647 116.0614644  56.2918562
 116.3108582 106.7635337  63.0413390 116.6657970 106.9906810  63.9007856
 116.9580714 107.0953714  62.4190645 122.0406319 109.8853773  53.7462719
 121.9024218 110.0755369  52.8183908 121.6842538 110.6473156  54.2030770
 110.2048445 103.8711868  59.8259731 110.8447825 103.7300627  59.1282695
 109.3725976 103.5846381  59.4498333 122.0675699 111.9530300  58.7573991
 122.5012206 111.8605589  59.6057045 122.7807280 111.9287800  58.1194007
 110.9808749 113.1714298  55.9394724 111.7749348 112.6764619  55.7377299
 110.2700442 112.6432162  55.5762429 115.8003594 115.5532394  60.2907091
 115.8540616 116.1223330  61.0584807 114.9318375 115.7234279  59.9261128
 107.2891513 107.3157380  52.0154476 106.3589101 107.2541836  52.2324438
 107.3848985 106.7933333  51.2191118 107.2077062 103.8412193  54.6032718
 107.4683879 104.7557526  54.4941878 108.0294234 103.3736636  54.7529331
 108.6801987 105.2549950  61.7731543 109.3525041 105.0467312  61.1244191
 107.8531774 105.0572036  61.3336775 122.9291248 111.9954001  61.2906876
 123.1227139 112.8999811  61.5366151 122.8291867 111.5361420  62.1245461
 114.5827559 101.8811891  63.7897203 113.9355474 102.5801841  63.6961680
 115.3528575 102.3148035  64.1573452 117.9906357 112.1460743  66.8647757
 117.8391864 111.9171295  65.9477840 117.9811037 113.1031345  66.8779102
 114.7591694 109.7192656  61.8494023 115.6883754 109.8703816  61.6762990
 114.3382724 109.8076677  60.9942670 113.5580025 113.7443320  59.6192561
 113.4191111 113.3762105  60.4918499 112.7694622 114.2590960  59.4476519
 114.1528177 118.8452417  50.9618097 114.3279933 118.3740460  51.7763720
 113.4660965 119.4718183  51.1899358 115.1085240 113.1224923  57.0081399
 114.7735073 113.0825693  57.9039048 114.6089186 112.4569639  56.5351809
 109.0829484 108.5292553  62.5333980 108.9449282 107.7972792  63.1345519
 109.9934408 108.4401453  62.2518167 118.0444432 110.4680958  47.2818458
 117.4273603 109.7427786  47.1851511 117.5760921 111.2290318  46.9385532
 111.7111785 108.2412513  62.0217659 112.4211404 107.6005705  61.9804278
 111.6681093 108.4925407  62.9443840 119.6998564 115.1779866  64.9424239
 119.6411110 114.4939086  64.2754822 120.1018082 115.9198856  64.4904865
 110.4240719 105.2277730  63.8413299 109.8878076 104.7768469  64.4934895
 109.8357428 105.3623639  63.0983763 108.7189263 121.9941780  57.7357957
 108.9585861 122.6260304  58.4136976 107.8758459 121.6429820  58.0223317
 109.8342978 104.6866382  46.4039762 108.9572444 104.5655183  46.0402009
 110.3100731 103.8952460  46.1518651 119.7015971 113.1419450  63.1738218
 118.8142750 112.8045372  63.2964617 120.2714522 112.4102481  63.4106984
 101.3545118 109.4743542  56.4981270 102.0416158 109.1605272  55.9102285
 101.1993247 110.3784906  56.2248521 106.1579840 104.3633738  60.9266293
 106.0738029 103.7559408  60.1916703 105.3362547 104.8542756  60.9275790
 113.2317124 117.8020902  60.1399461 113.1587296 118.6075874  60.6518766
 112.7894518 118.0012868  59.3147483 113.0206904 117.0392672  53.6502283
 112.2374426 117.5814352  53.7440507 113.7199649 117.5566652  54.0496524
 116.3303554 102.8487302  56.2936488 116.8272254 102.0957264  55.9737559
 115.5590536 102.8851618  55.7279698 124.1833312 108.5527667  57.9354780
 124.1723188 109.4352383  57.5648713 123.3150691 108.1999218  57.7409317
 115.6915808 117.7007736  62.2957620 116.4043780 118.3355201  62.2233522
 115.2005837 117.7971602  61.4797622 117.4133335 111.6058989  53.8674912
 116.4789614 111.7260451  53.6979616 117.5910003 110.7031456  53.6034922
 112.9138523 104.9904685  56.0208173 112.5436310 104.4375725  56.7089079
 113.4097615 104.3862818  55.4683173 120.8005886 107.4476308  54.4024946
 121.2666338 108.2804300  54.3285249 121.2513387 106.9821290  55.1070204
 110.7427721 115.4502180  63.1163191 111.4437181 116.0838663  63.2692585
 110.2722836 115.7916911  62.3558830 118.8682117 113.7920129  51.4011098
 119.1441961 113.6776724  52.3104972 117.9986616 113.3937614  51.3623271
 118.7722549  99.8156895  58.4415847 117.8585629 100.0461122  58.6098054
 119.2015650  99.8995339  59.2929880 118.5429007 108.0046787  60.9415741
 117.8900458 108.2522695  60.2868194 118.9209387 107.1910925  60.6078219
 115.5036181 118.0406480  55.0443912 115.6858576 117.2228136  55.5071664
 116.3269167 118.2574173  54.6068802 115.8378347 116.9674665  52.3058960
 116.3666113 116.4567120  51.6929122 116.1006566 116.6517196  53.1704493
 114.5916580 108.7466598  67.4281778 113.9157218 108.6460727  68.0984154
 115.4144214 108.5905812  67.8917776 106.3395440 114.9838535  60.0494294
 106.9248876 114.2382223  60.1822198 106.1420278 115.2942491  60.9330957
 109.1934095 118.0189782  55.0656736 108.5244470 118.5035910  54.5820776
 109.0546964 118.2659003  55.9800115 100.9313094 107.5544135  58.7698737
 100.9697194 107.0207726  59.5635855 100.4253387 107.0279340  58.1509714
 113.3339363 120.0533526  61.6639394 113.8857671 120.2165147  62.4288480
 113.6745557 120.6437963  60.9919419 108.3103857 102.4008675  62.2661279
 108.3745183 103.2623506  61.8538677 108.2470977 101.7882677  61.5333638
 107.7856129 104.4731808  65.9134313 108.4128168 104.0908885  66.5271838
 106.9284048 104.2546010  66.2790006 118.1850238 114.8794783  67.5188049
 118.7290142 115.4924741  67.0243004 117.6037083 115.4374362  68.0355062
 104.5621672 106.2808237  51.8452668 104.8575113 105.3718915  51.7919722
 103.6609708 106.2595976  51.5233670 116.4707751 118.0015501  58.6503077
 116.3458890 117.2005241  58.1414022 117.1286842 118.4961694  58.1617046
 108.0915919 104.3564234  57.8280217 107.3702505 104.9700201  57.6887690
 108.8809175 104.8921998  57.7496863 118.5342659 115.8024521  60.2782627
 117.5872995 115.6829872  60.2060953 118.8825432 114.9147019  60.3608888
 110.8942232 101.6918660  64.1020868 111.4176634 101.9380957  64.8647178
 110.6754566 102.5238695  63.6824006 106.2909513 103.9622335  51.9691993
 105.9622220 103.0819714  51.7867099 106.6448884 103.9070003  52.8568383
 115.5389092 115.5977237  56.4786979 115.3914055 114.6693945  56.6594549
 116.3642586 115.6197328  55.9944054 109.4051337 104.2495305  52.3367471
 109.7447409 104.7781226  51.6146079 109.8523457 104.5875711  53.1126037
 119.1423214 116.4205796  57.5651852 120.0669762 116.2148657  57.4276303
 118.9738518 116.1722197  58.4741193 112.0994777 102.6332355  61.7870539
 111.7591598 101.8340168  62.1891219 111.3933784 102.9334066  61.2147372
 112.7511249  99.7181668  60.2397862 113.5737319  99.2442146  60.1176752
 112.9949313 100.4972151  60.7396548 111.3919484 102.7469926  50.5360764
 112.1127846 103.1251179  50.0324481 110.7684788 103.4658803  50.6395742
 115.5350607 103.4515075  51.4719096 115.7514221 104.3339713  51.1707924
 115.0544674 103.0601288  50.7424738 110.2749828 106.4100788  58.0489841
 110.1294409 106.7241091  58.9414122 109.7975032 107.0285689  57.4960739
 112.1346211 103.4003336  58.0970730 112.1207780 102.5044430  57.7603028
 112.8518639 103.4074000  58.7309016 113.9872342 103.8340676  60.1423858
 113.7290119 104.7557747  60.1408188 113.4557382 103.4371111  60.8324322
 118.9318530 116.9391464  52.9213943 119.1055408 116.3737886  52.1687795
 119.4247422 117.7392358  52.7393433 104.7495490 108.9506133  60.9877502
 104.2048958 109.7265941  61.1197776 105.6274840 109.2976937  60.8296623
 111.5383107 102.2817717  53.3658300 111.6599018 101.3534363  53.5649188
 111.2485149 102.2956403  52.4536616 114.4074297  99.9672627  56.5025020
 114.4295994 100.0311960  55.5477000 114.8242356  99.1277136  56.6965526
 124.7857922 109.7027887  54.5404243 125.2289068 108.9535212  54.1423366
 123.9084432 109.6938023  54.1577975 119.9193703 116.2558228  50.0210841
 120.6144607 116.8764921  50.2398156 120.2616853 115.4053579  50.2963219
 121.8185126 113.7057934  51.5498172 122.3436450 114.0445206  50.8247492
 121.7307479 112.7704949  51.3661307 113.4805175 117.6192007  63.6788049
 113.7892301 117.3741154  64.5510748 114.2780657 117.8238646  63.1906919
 113.5025787 119.7729917  55.9093425 113.0630777 119.2806296  56.6026282
 114.2533904 119.2302884  55.6685500 105.9818126 115.9641458  55.9118053
 106.8076146 115.6645230  55.5316697 105.6312178 115.1949080  56.3607842
 110.9499659 115.3167926  57.9815727 110.3279668 114.6538631  57.6817955
 111.6204526 115.3429058  57.2989375 104.1826731 113.8827784  56.8706987
 103.3458639 113.4549958  56.6890988 104.1550376 114.0760227  57.8077778
 121.5079032 114.3390837  66.8549370 120.7174576 114.3214976  66.3153869
 121.2712387 114.8779131  67.6098407 121.6276907 111.1883304  64.1682099
 121.6774912 111.0233311  65.1097621 121.5190830 110.3210563  63.7779979
 110.5113166 113.8671849  51.4574187 110.6601286 114.5507314  50.8040860
 111.3179609 113.8476939  51.9723643 118.9180669 107.1714232  65.4841405
 119.8190532 107.0320696  65.1925403 118.9928644 107.3368686  66.4239583
 113.2523475 104.5481086  64.3294592 112.3826784 104.8414652  64.0577180
 113.4882955 105.1321531  65.0501855 123.1295104 113.6080245  64.4124120
 122.8379912 113.9710226  65.2487581 122.5167235 112.8947253  64.2337452
 124.3290786 111.1733125  56.9326690 125.1637678 111.6122929  57.0964251
 124.4649915 110.6971778  56.1134936 121.3782292 108.7312860  62.8804178
 121.8536414 108.9240506  62.0723029 120.4547858 108.7872046  62.6347562
 108.2665799 109.8937027  52.4635256 108.0211841 108.9899357  52.6615467
 108.4361713 109.8954177  51.5214734 115.9562509 100.7660703  61.8460012
 116.4744453 101.5021730  61.5206501 115.6017641 101.0724697  62.6806771
 107.5361446 105.6265384  49.9621418 106.8430691 105.7009739  49.3061454
 107.2913198 104.8625728  50.4842935 116.2075103  97.1860986  57.3660909
 116.4876857  96.5184175  57.9921335 116.9925710  97.3790081  56.8535572
 114.0108571 116.3619980  48.9285935 113.4382538 116.9810167  48.4756407
 114.5841365 116.9119341  49.4625857 120.0783961 105.6078620  61.1132484
 121.0301384 105.7076717  61.1344708 119.9087412 104.8156888  61.6230568
 118.0998341 102.6934203  61.2991885 117.5048273 102.9739216  60.6038373
 117.8148037 103.1828104  62.0708626 117.2305831 116.6457130  50.0594517
 118.1636504 116.5802692  50.2627393 117.1429044 117.4813397  49.6009050
 119.8593848 115.9623000  47.0198465 119.7807479 115.6282864  47.9134223
 120.6803515 116.4544768  47.0189937 122.5572039 108.8284739  60.2274783
 122.5248359 107.8900740  60.4134467 123.1672663 108.9068776  59.4940608
 114.3955370 107.6980792  46.2701987 115.3414475 107.5687001  46.3390405
 114.0169615 106.9595454  46.7471416 122.7066527 105.6195783  60.2733067
 122.1905576 104.8354240  60.0862995 123.5906476 105.2914500  60.4379586
 120.3677254  99.3636798  56.2328879 120.1702075  99.0551887  57.1172211
 120.9776960 100.0898437  56.3626809 128.3748589 109.8900746  59.3680820
 129.1051977 109.6286034  59.9288523 127.7655534 109.1529468  59.4082888
 126.4563886 108.0308609  59.9655271 125.7297050 107.8964574  59.3571763
 126.0411173 108.3385438  60.7711989 114.2794062 111.7498539  67.7302644
 115.1997072 111.9277138  67.9242691 114.2443645 110.8054584  67.5782344
 112.5798287 105.6230769  46.2056873 111.6729742 105.3263882  46.2819586
 112.8574268 105.3260587  45.3391159 103.4976227 106.9437132  56.6555919
 103.1779012 106.0902440  56.3630293 102.9509656 107.1585710  57.4113886
 107.2756135 109.6599573  60.3725426 107.4942145 110.5916681  60.3913459
 107.6881909 109.3007548  61.1580229 114.1960353 100.1667659  52.3601114
 113.3861081  99.8214744  52.7356360 114.8844770  99.8575202  52.9488725
 116.1250901  99.2445705  53.9825411 116.6781940  99.6641159  54.6415434
 116.3620987  98.3181453  54.0248367 111.3497072 102.4817704  46.3468852
 112.2116236 102.8072602  46.6064669 111.5347416 101.6949200  45.8341918
 103.3664487 110.5640044  58.6249041 102.6727959 110.1493997  58.1118995
 104.1137478 110.6060580  58.0282459 119.5029708 101.3546231  53.4904075
 118.9228377 102.0131035  53.1082127 119.2365641 100.5323575  53.0791492
 117.9533274 100.7551288  55.6925395 118.4533053 100.8667823  54.8839714
 118.5968882 100.4512341  56.3326204 112.0115270 108.6629918  68.5793236
 111.5282352 109.4630278  68.7857125 112.0976209 108.6737863  67.6260680
 105.2801230 110.4958298  56.5015055 105.2571918 110.5945985  55.5496939
 105.5901866 111.3423448  56.8232222 107.9388608 112.5534453  60.6161670
 108.8931861 112.5218395  60.5491601 107.7401131 112.0925076  61.4311896
 108.5287990 111.1235569  63.1832468 109.3480879 111.6179647  63.2067305
 108.8024798 110.2067537  63.1550035 118.2854586 103.5146321  52.5460423
 117.3980441 103.7995972  52.3280618 118.7008575 103.3540084  51.6987700
 121.6369122 103.5392842  56.2614762 122.4129512 104.0289294  56.5339379
 120.9117256 103.9650896  56.7186632 124.0741681 104.2520461  57.3188703
 124.6686172 104.0116197  56.6082011 124.1468265 103.5327592  57.9462239
 106.2938837 118.0954072  57.6331868 106.1593304 117.3354473  57.0669866
 105.8770899 118.8194972  57.1660657 117.4297800 113.2790996  46.6408443
 118.1333650 113.4840998  47.2566099 116.7060448 113.8467757  46.9057527
 118.2595610 109.0300857  52.7610713 118.2030811 109.4869408  51.9218346
 118.8123952 108.2691541  52.5833556 122.0700416 104.8190589  53.5860833
 121.8137350 104.4187224  54.4169040 121.4453284 105.5334383  53.4610972
 126.3812754 107.5586662  56.0932124 125.8212312 107.6279851  56.8663686
 125.7756257 107.3827647  55.3731620 109.4507962 118.9923389  57.8450310
 109.3340347 119.9368822  57.7429001 108.6300409 118.6896951  58.2336110
 119.3384497 113.7173525  48.6906903 120.1730101 113.2854723  48.5084378
 119.1768840 113.5455538  49.6183798 118.9930389 110.2205638  50.0563242
 118.9379193 110.0549910  49.1151687 118.3676444 110.9281671  50.2125432
 103.7822904 105.4573702  63.8824665 104.4281768 104.9472656  64.3711890
 103.5740055 106.1942384  64.4568090 116.3076296 112.5254550  69.3816805
 117.1767456 112.6995202  69.0203440 115.8283048 113.3448967  69.2592535
 112.3026515  99.7213747  49.6348561 112.2905184 100.6655587  49.7916832
 113.1949936  99.5383892  49.3408022 110.4762477 119.6451651  61.0606239
 111.3789723 119.6775261  61.3772734 110.2499847 118.7152102  61.0752575
 112.2316079 118.3982637  57.7216317 111.2811710 118.3984499  57.6080690
 112.5348565 117.6515372  57.2052352 116.1178634  96.3156524  53.8894498
 115.3511030  95.7615010  54.0351180 116.5289339  96.3878392  54.7508649
 127.9668772 124.2343176  58.7862080 128.6047182 124.1149923  58.0825420
 127.8489615 125.1824020  58.8450032 124.7758478 124.1870604  58.7223605
 124.4376990 124.0711669  57.8344139 125.6448247 123.7861769  58.7024611
 120.6345294 126.0406080  54.7120495 120.0710159 125.9496017  53.9436783
 120.5197689 125.2205985  55.1922988 125.2578261 125.3405456  64.6809810
 125.2466902 124.9458254  63.8090314 125.4198901 124.6071528  65.2743582
 118.1809726 127.5357272  57.5504716 118.9731018 127.1948097  57.1351015
 118.4206376 127.6452247  58.4706869 126.2144853 129.7077048  50.0234960
 125.5632833 130.2931129  49.6368974 127.0089216 130.2383243  50.0829998
 120.1400480 126.7966185  50.4222095 120.9131356 126.2495172  50.2834971
 120.4925879 127.6610435  50.6336556 121.9785522 128.1242568  63.6288994
 121.6875388 129.0288198  63.5135660 122.6142507 128.1659095  64.3433064
 122.9041729 125.5019416  60.2190354 123.5005302 125.2775438  59.5047317
 122.9616701 124.7604162  60.8215802 122.4766758 122.9558851  48.0540545
 122.7292278 122.4340373  47.2924008 121.5391317 122.7924997  48.1567228
 127.5210041 121.9594630  55.8615288 128.3073130 121.5414053  55.5105705
 127.7848745 122.8640722  56.0296936 127.6920118 127.3967480  50.5603945
 127.0565951 127.4702107  51.2724849 127.3617524 127.9861079  49.8823024
 132.9218468 121.8969863  56.7648266 133.6543640 121.3269080  56.9986096
 132.1657823 121.5091463  57.2054772 122.1963046 124.8586957  50.2564920
 122.0799305 124.1831861  50.9246004 122.3065306 124.3719331  49.4397073
 124.5394587 124.3197104  53.9611609 124.1752795 123.7927725  54.6724530
 125.3961703 123.9295573  53.7878094 130.4443888 115.6091437  61.2242875
 130.1127213 116.4786848  61.0004090 129.8489501 115.2927721  61.9036905
 124.1800074 119.3487004  48.9572957 124.3474477 120.2167241  49.3243428
 123.9897243 119.5114286  48.0334247 126.9375408 127.8103983  60.6238788
 126.6376131 128.7129022  60.5154595 126.5926467 127.5436166  61.4759941
 120.3887889 124.2617780  56.6575492 119.4638386 124.1293994  56.8653184
 120.6372302 125.0411999  57.1545435 130.3372551 120.3286523  58.3036225
 129.4289429 120.2601932  58.0094986 130.2860147 120.8058468  59.1318051
 124.1589295 121.8044662  49.9419624 124.0388920 122.2501712  50.7805104
 123.4641884 122.1529979  49.3833162 117.7496700 123.9051053  57.4919281
 117.8789081 124.1585532  58.4058693 117.0694151 124.4978761  57.1723936
 124.4113417 121.7476169  66.2471122 123.6346751 122.3070089  66.2373987
 125.0503980 122.2332952  66.7685992 132.2034198 118.5302962  60.0814099
 131.5608578 118.8235495  59.4353894 131.6989126 118.4155882  60.8867296
 129.8574361 122.2766135  50.7699958 130.7692218 122.5093522  50.5947656
 129.3484008 122.8603179  50.2075037 122.6659789 124.5561622  65.8089089
 123.4074474 125.0946666  65.5323913 121.9596775 125.1827911  65.9660641
 128.1415129 126.6990763  64.4061251 128.5498485 126.2573173  63.6615883
 127.4192391 126.1243390  64.6595444 124.4946199 121.6363369  61.7794808
 125.3407394 122.0602783  61.9229457 124.4344837 120.9796994  62.4733371
 128.4643944 127.2591953  58.1613540 127.8352806 127.4237667  57.4589608
 128.0769606 127.6733563  58.9324504 127.6445644 119.2967738  63.4375981
 127.4006576 120.0509798  62.9010257 127.9205575 119.6753085  64.2723228
 129.5984107 125.8406350  62.1153247 129.8101002 126.4838110  61.4387628
 129.5513855 125.0068667  61.6475177 127.2010336 118.4524171  59.0189819
 126.3394815 118.7505424  59.3106557 127.2272771 118.6694570  58.0870852
 124.0171906 126.9966361  55.4263625 124.4810251 127.2754064  54.6368247
 123.7528704 126.0949806  55.2436715 120.9095987 126.5437843  58.3643388
 121.4797344 126.9725111  57.7260873 121.5004098 126.2620428  59.0627574
 122.9540792 123.1189514  52.2353190 123.6564835 123.5710557  52.7027116
 122.6221420 122.4773333  52.8633083 121.4021153 121.7101270  66.6104399
 120.7719814 122.3917551  66.8439796 121.2957241 121.5984352  65.6657538
 116.6966126 121.3773066  57.5370324 115.9065180 121.6330595  57.0610434
 117.1877373 122.1921404  57.6422364 118.6480871 121.7417646  54.4953800
 117.8512034 121.8536340  55.0137296 118.4206463 122.0804298  53.6294691
 124.4786539 128.2662349  62.4436315 124.5430971 128.7282756  63.2794487
 123.7697462 127.6359714  62.5718625 114.9803829 121.6303557  59.9685314
 115.2311867 122.5150567  60.2342890 115.5163377 121.4508158  59.1960406
 124.1934556 129.9330456  52.3115295 124.0580231 130.7781992  52.7400143
 124.7344369 130.1349734  51.5481229 120.6801896 116.0122036  68.9729650
 120.2868841 115.4588235  69.6477295 121.4968036 116.3232615  69.3636168
 117.6463954 127.4505894  52.8843220 118.1588474 128.2449145  53.0348785
 118.2986666 126.7532185  52.8176822 119.4558838 130.5671651  54.9665973
 119.6325467 131.4889615  54.7786957 120.2515672 130.2530070  55.3960353
 123.5969857 117.4279915  66.5649907 124.3379570 118.0287068  66.4854369
 123.8287780 116.6857553  66.0067950 118.7411195 122.6136283  64.8428137
 118.6264710 121.7121540  65.1435236 117.8855713 122.8599979  64.4912953
 125.8203033 130.5554023  66.4415637 125.3766887 129.7690401  66.1236542
 126.4820246 130.7433173  65.7759528 120.5790154 132.0849824  60.9676316
 121.1297579 131.9566888  60.1953310 119.7401630 132.3844713  60.6171209
 124.3757325 128.3500952  65.3120547 124.9085662 127.5889240  65.0819855
 123.8471406 128.0574604  66.0544701 127.5427020 113.4561018  60.8414189
 127.1991289 114.3462660  60.7653299 127.9105982 113.2662676  59.9783774
 115.6112870 125.7794549  53.6602791 116.4488092 126.1891557  53.4436498
 115.7891138 124.8393991  53.6302985 127.5077303 123.4469629  49.3486624
 126.9923926 124.2174234  49.5875011 127.2354611 122.7734765  49.9719685
 125.0924414 118.2919330  54.4071862 124.2366010 117.9026180  54.2277501
 125.5051365 118.3711291  53.5471648 126.6223560 115.8265673  58.8063422
 126.1188356 115.7895809  57.9931227 126.9154167 116.7358416  58.8660079
 122.8666446 115.9104403  57.8129604 123.7319443 115.7147212  57.4535493
 122.9343955 115.6814755  58.7398960 127.2963606 121.3196721  51.1746405
 126.9913741 121.6342871  52.0256548 128.2494048 121.3978141  51.2173738
 125.7410038 127.4786945  52.8239359 125.2131399 126.7439704  52.5112596
 125.2397540 128.2561621  52.5779327 130.7202884 125.6735965  57.9406405
 130.0626558 126.3635227  58.0286534 131.5243283 126.0632397  58.2840392
 120.4728765 118.1406611  55.1845970 121.0472517 117.9181793  54.4519163
 121.0599748 118.2095306  55.9374572 129.5308342 124.0280338  55.9910347
 130.0440224 124.6610330  56.4932057 130.1809566 123.4281533  55.6253707
 120.7998352 120.1711072  49.2041856 119.9635665 120.5085759  49.5251130
 120.6603122 120.0360052  48.2668993 122.7751433 115.0147860  53.9121040
 122.1215845 114.6996877  53.2877655 122.7331907 114.3923600  54.6380863
 123.8862638 125.2967155  45.8274332 122.9789699 125.0656408  46.0265481
 124.3833670 124.5004774  46.0148313 126.0089173 121.5029793  58.2368687
 125.0911735 121.7244740  58.0790376 126.4249317 121.5776104  57.3780395
 126.7924221 122.9021209  53.3671368 127.5396040 123.4142606  53.0578490
 127.0615811 122.5805262  54.2275761 125.0650871 125.3979750  50.3498322
 124.1562090 125.1138783  50.4470792 125.0945955 125.8178828  49.4901629
 129.2403058 119.9378325  55.3490157 128.5025815 119.4255712  55.6800400
 129.4929832 119.4978707  54.5373434 129.3414685 112.7154577  55.9431926
 129.6473562 111.8551941  55.6557841 130.0667290 113.3072198  55.7430920
 115.6339042 123.1185264  54.3313524 115.4363441 122.5254625  53.6064591
 115.0785706 122.8137474  55.0489463 123.6135765 123.0108370  56.4508117
 123.6684375 122.0582207  56.3750594 122.8026967 123.1667810  56.9349416
 124.7626959 126.9388494  47.6886401 124.3246389 126.2224352  47.2292038
 125.5037400 127.1664608  47.1271492 121.5528125 121.6285430  54.2098496
 120.7395991 121.9279601  54.6163688 122.0487119 121.2341119  54.9272978
 123.7036703 131.6243187  56.1432761 123.6612882 131.8504033  55.2141293
 124.6199402 131.3906562  56.2918562 127.1502337 122.0927255  63.0413390
 127.5051725 122.3198728  63.9007856 127.7974468 122.4245631  62.4190645
 132.8800074 125.2145691  53.7462719 132.7417972 125.4047287  52.8183908
 132.5236293 125.9765073  54.2030770 121.0442200 119.2003786  59.8259731
 121.6841579 119.0592545  59.1282695 120.2119730 118.9138299  59.4498333
 121.8202504 128.5006216  55.9394724 122.6143102 128.0056536  55.7377299
 121.1094196 127.9724079  55.5762429 118.1285267 122.6449298  52.0154476
 117.1982855 122.5833753  52.2324438 118.2242739 122.1225251  51.2191118
 118.0470816 119.1704111  54.6032718 118.3077634 120.0849444  54.4941878
 118.8687989 118.7028553  54.7529331 119.5195742 120.5841868  61.7731543
 120.1918795 120.3759230  61.1244191 118.6925528 120.3863954  61.3336775
 125.4221314 117.2103809  63.7897203 124.7749229 117.9093758  63.6961680
 126.1922329 117.6439953  64.1573452 128.8300112 127.4752661  66.8647757
 128.6785618 127.2463213  65.9477840 128.8204791 128.4323262  66.8779102
 125.5985448 125.0484574  61.8494023 126.5277508 125.1995733  61.6762990
 125.1776478 125.1368595  60.9942670 124.3973780 129.0735238  59.6192561
 124.2584866 128.7054023  60.4918499 123.6088376 129.5882878  59.4476519
 125.9478995 128.4516841  57.0081399 125.6128828 128.4117611  57.9039048
 125.4482941 127.7861557  56.5351809 119.9223239 123.8584471  62.5333980
 119.7843037 123.1264710  63.1345519 120.8328162 123.7693371  62.2518167
 128.8838187 125.7972875  47.2818458 128.2667357 125.0719703  47.1851511
 128.4154675 126.5582235  46.9385532 122.5505540 123.5704430  62.0217659
 123.2605158 122.9297622  61.9804278 122.5074848 123.8217325  62.9443840
 121.2634474 120.5569648  63.8413299 120.7271831 120.1060387  64.4934895
 120.6751182 120.6915557  63.0983763 120.6736733 120.0158299  46.4039762
 119.7966199 119.8947100  46.0402009 121.1494486 119.2244378  46.1518651
 112.1938873 124.8035459  56.4981270 112.8809912 124.4897189  55.9102285
 112.0387001 125.7076824  56.2248521 116.9973595 119.6925656  60.9266293
 116.9131784 119.0851325  60.1916703 116.1756301 120.1834674  60.9275790
 127.1697309 118.1779219  56.2936488 127.6666008 117.4249182  55.9737559
 126.3984290 118.2143536  55.7279698 135.0227066 123.8819585  57.9354780
 135.0116942 124.7644300  57.5648713 134.1544446 123.5291136  57.7409317
 128.2527089 126.9350907  53.8674912 127.3183368 127.0552369  53.6979616
 128.4303758 126.0323373  53.6034922 123.7532277 120.3196602  56.0208173
 123.3830065 119.7667643  56.7089079 124.2491370 119.7154736  55.4683173
 131.6399641 122.7768226  54.4024946 132.1060093 123.6096217  54.3285249
 132.0907141 122.3113207  55.1070204 121.5821476 130.7794097  63.1163191
 122.2830935 131.4130580  63.2692585 121.1116591 131.1208829  62.3558830
 129.6116303 115.1448813  58.4415847 128.6979383 115.3753040  58.6098054
 130.0409405 115.2287257  59.2929880 129.3822762 123.3338705  60.9415741
 128.7294212 123.5814612  60.2868194 129.7603142 122.5202843  60.6078219
 125.4310335 124.0758516  67.4281778 124.7550972 123.9752645  68.0984154
 126.2537969 123.9197730  67.8917776 117.1789194 130.3130452  60.0494294
 117.7642631 129.5674140  60.1822198 116.9814033 130.6234409  60.9330957
 120.0327849 133.3481700  55.0656736 119.3638225 133.8327827  54.5820776
 119.8940719 133.5950920  55.9800115 111.7706849 122.8836053  58.7698737
 111.8090948 122.3499643  59.5635855 111.2647142 122.3571258  58.1509714
 119.1497611 117.7300593  62.2661279 119.2138938 118.5915424  61.8538677
 119.0864731 117.1174595  61.5333638 118.6249884 119.8023726  65.9134313
 119.2521922 119.4200803  66.5271838 117.7677802 119.5837928  66.2790006
 115.4015426 121.6100155  51.8452668 115.6968867 120.7010833  51.7919722
 114.5003462 121.5887894  51.5233670 118.9309673 119.6856151  57.8280217
 118.2096259 120.2992119  57.6887690 119.7202929 120.2213916  57.7496863
 121.7335987 117.0210578  64.1020868 122.2570389 117.2672874  64.8647178
 121.5148320 117.8530613  63.6824006 117.1303268 119.2914252  51.9691993
 116.8015974 118.4111631  51.7867099 117.4842639 119.2361921  52.8568383
 120.2445091 119.5787222  52.3367471 120.5841164 120.1073143  51.6146079
 120.6917212 119.9167628  53.1126037 122.9388532 117.9624273  61.7870539
 122.5985352 117.1632086  62.1891219 122.2327538 118.2625984  61.2147372
 123.5905004 115.0473585  60.2397862 124.4131073 114.5734064  60.1176752
 123.8343067 115.8264069  60.7396548 122.2313238 118.0761844  50.5360764
 122.9521601 118.4543097  50.0324481 121.6078542 118.7950721  50.6395742
 126.3744361 118.7806993  51.4719096 126.5907976 119.6631631  51.1707924
 125.8938428 118.3893206  50.7424738 121.1143583 121.7392706  58.0489841
 120.9688163 122.0533009  58.9414122 120.6368786 122.3577606  57.4960739
 122.9739965 118.7295254  58.0970730 122.9601534 117.8336347  57.7603028
 123.6912394 118.7365918  58.7309016 124.8266096 119.1632594  60.1423858
 124.5683874 120.0849665  60.1408188 124.2951136 118.7663029  60.8324322
 115.5889245 124.2798050  60.9877502 115.0442713 125.0557858  61.1197776
 116.4668595 124.6268855  60.8296623 122.3776861 117.6109634  53.3658300
 122.4992773 116.6826280  53.5649188 122.0878904 117.6248320  52.4536616
 125.2468052 115.2964545  56.5025020 125.2689749 115.3603878  55.5477000
 125.6636111 114.4569053  56.6965526 116.3755267 123.4067947  63.8807659
 115.6337003 123.5550582  64.4672289 116.0548011 123.6676212  63.0174408
 116.8211880 131.2933375  55.9118053 117.6469900 130.9937147  55.5316697
 116.4705932 130.5240998  56.3607842 121.7893413 130.6459844  57.9815727
 121.1673423 129.9830549  57.6817955 122.4598280 130.6720975  57.2989375
 115.0220485 129.2119702  56.8706987 114.1852394 128.7841876  56.6890988
 114.9944131 129.4052145  57.8077778 121.8617941 119.1241632  67.5748233
 121.9106096 120.0003754  67.1926003 122.4040455 118.5819025  67.0019876
 132.4670662 126.5175221  64.1682099 132.5168667 126.3525229  65.1097621
 132.3584585 125.6502480  63.7779979 121.3506920 129.1963767  51.4574187
 121.4995041 129.8799231  50.8040860 122.1573364 129.1768857  51.9723643
 129.7574424 122.5006149  65.4841405 130.6584287 122.3612614  65.1925403
 129.8322398 122.6660604  66.4239583 124.0917229 119.8773004  64.3294592
 123.2220539 120.1706570  64.0577180 124.3276710 120.4613449  65.0501855
 132.2176047 124.0604777  62.8804178 132.6930168 124.2532424  62.0723029
 131.2941612 124.1163963  62.6347562 119.1059553 125.2228945  52.4635256
 118.8605595 124.3191275  52.6615467 119.2755468 125.2246095  51.5214734
 126.7956263 116.0952621  61.8460012 127.3138207 116.8313648  61.5206501
 126.4411396 116.4016614  62.6806771 118.3755201 120.9557302  49.9621418
 117.6824446 121.0301657  49.3061454 118.1306953 120.1917646  50.4842935
 127.0468857 112.5152903  57.3660909 127.3270611 111.8476093  57.9921335
 127.8319464 112.7081999  56.8535572 130.9177716 120.9370537  61.1132484
 131.8695139 121.0368635  61.1344708 130.7481166 120.1448806  61.6230568
 128.9392095 118.0226121  61.2991885 128.3442027 118.3031133  60.6038373
 128.6541792 118.5120022  62.0708626 133.3965793 124.1576657  60.2274783
 133.3642114 123.2192658  60.4134467 134.0066417 124.2360694  59.4940608
 125.2349124 123.0272710  46.2701987 126.1808229 122.8978918  46.3390405
 124.8563369 122.2887372  46.7471416 133.5460282 120.9487701  60.2733067
 133.0299331 120.1646157  60.0862995 134.4300230 120.6206417  60.4379586
 131.2071009 114.6928716  56.2328879 131.0095830 114.3843804  57.1172211
 131.8170714 115.4190355  56.3626809 125.1187817 127.0790456  67.7302644
 126.0390826 127.2569055  67.9242691 125.0837400 126.1346502  67.5782344
 123.4192041 120.9522687  46.2056873 122.5123497 120.6555799  46.2819586
 123.6968022 120.6552505  45.3391159 114.3369982 122.2729050  56.6555919
 114.0172766 121.4194358  56.3630293 113.7903410 122.4877628  57.4113886
 118.1149889 124.9891491  60.3725426 118.3335899 125.9208599  60.3913459
 118.5275663 124.6299465  61.1580229 125.0354107 115.4959576  52.3601114
 124.2254836 115.1506661  52.7356360 125.7238524 115.1867120  52.9488725
 126.9644655 114.5737623  53.9825411 127.5175694 114.9933076  54.6415434
 127.2014742 113.6473371  54.0248367 122.9877755 120.5624697  69.7628174
 122.8874482 121.5119054  69.6940266 122.7699297 120.2342936  68.8904245
 122.1890826 117.8109622  46.3468852 123.0509990 118.1364520  46.6064669
 122.3741170 117.0241118  45.8341918 114.2058242 125.8931961  58.6249041
 113.5121713 125.4785914  58.1118995 114.9531233 125.9352498  58.0282459
 130.3423463 116.6838148  53.4904075 129.7622132 117.3422952  53.1082127
 130.0759395 115.8615493  53.0791492 128.7927029 116.0843206  55.6925395
 129.2926807 116.1959740  54.8839714 129.4362637 115.7804259  56.3326204
 122.8509025 123.9921836  68.5793236 122.3676106 124.7922196  68.7857125
 122.9369964 124.0029780  67.6260680 116.1194984 125.8250215  56.5015055
 116.0965672 125.9237902  55.5496939 116.4295621 126.6715366  56.8232222
 118.7782362 127.8826370  60.6161670 119.7325616 127.8510313  60.5491601
 118.5794886 127.4216994  61.4311896 119.3681744 126.4527486  63.1832468
 120.1874633 126.9471565  63.2067305 119.6418552 125.5359454  63.1550035
 129.1248341 118.8438239  52.5460423 128.2374196 119.1287889  52.3280618
 129.5402330 118.6832002  51.6987700 132.4762877 118.8684760  56.2614762
 133.2523267 119.3581212  56.5339379 131.7511011 119.2942814  56.7186632
 134.9135435 119.5812379  57.3188703 135.5079926 119.3408115  56.6082011
 134.9862019 118.8619509  57.9462239 117.1332591 133.4245990  57.6331868
 116.9987059 132.6646391  57.0669866 116.7164653 134.1486890  57.1660657
 128.2691554 128.6082913  46.6408443 128.9727404 128.8132916  47.2566099
 127.5454203 129.1759675  46.9057527 129.0989364 124.3592775  52.7610713
 129.0424566 124.8161326  51.9218346 129.6517707 123.5983459  52.5833556
 132.9094170 120.1482506  53.5860833 132.6531104 119.7479142  54.4169040
 132.2847038 120.8626300  53.4610972 137.2206508 122.8878580  56.0932124
 136.6606066 122.9571769  56.8663686 136.6150011 122.7119564  55.3731620
 120.2901717 134.3215307  57.8450310 120.1734101 135.2660739  57.7429001
 119.4694163 134.0188868  58.2336110 129.8324144 125.5497556  50.0563242
 129.7772947 125.3841827  49.1151687 129.2070199 126.2573589  50.2125432
 114.6216659 120.7865620  63.8824665 115.2675522 120.2764574  64.3711890
 114.4133810 121.5234302  64.4568090 127.1470051 127.8546468  69.3816805
 128.0161210 128.0287120  69.0203440 126.6676802 128.6740884  69.2592535
 123.1420269 115.0505665  49.6348561 123.1298939 115.9947505  49.7916832
 124.0343691 114.8675810  49.3408022 126.9572389 111.6448441  53.8894498
 126.1904784 111.0906928  54.0351180 127.3683094 111.7170310  54.7508649
 118.9614150 117.9333237  67.9799679 119.8245611 117.5770042  68.1903003
 118.3879560 117.5947132  68.6675083  52.0912492  -6.0638125  45.5107386
  52.7290902  -6.1831378  44.8070727  51.9733335  -5.1157281  45.5695339
  48.9002198  -6.1110697  45.4468911  48.5620710  -6.2269632  44.5589446
  49.7691966  -6.5119532  45.4269917  44.7589014  -4.2575221  41.4365802
  44.1953879  -4.3485284  40.6682090  44.6441409  -5.0775316  41.9168295
  49.3821981  -4.9575845  51.4055117  49.3710622  -5.3523047  50.5335620
  49.5442621  -5.6909773  51.9988888  42.3053446  -2.7624029  44.2750023
  43.0974738  -3.1033204  43.8596322  42.5450096  -2.6529054  45.1952176
  50.3388573  -0.5904253  36.7480267  49.6876552  -0.0050173  36.3614281
  51.1332935  -0.0598058  36.8075305  46.1029242  -2.1738734  50.3534301
  45.8119108  -1.2693103  50.2380967  46.7386227  -2.1322206  51.0678370
  47.0285449  -4.7961885  46.9435660  47.6249021  -5.0205863  46.2292623
  47.0860421  -5.5377140  47.5461108  51.6453760  -8.3386671  42.5860595
  52.4316850  -8.7567248  42.2351012  51.9092465  -7.4340579  42.7542243
  51.8163838  -2.9013821  37.2849251  51.1809671  -2.8279195  37.9970156
  51.4861244  -2.3120222  36.6068331  48.6638307  -5.9784197  40.6856915
  48.2996514  -6.5053576  41.3969837  49.5205423  -6.3685728  40.5123401
  51.0619127  -2.4877318  47.3484094  50.7619850  -1.5852279  47.2399902
  50.7170187  -2.7545135  48.2005247  44.5131609  -6.0363521  43.3820799
  43.5882105  -6.1687307  43.5898491  44.7616022  -5.2569302  43.8790741
  41.8740420  -6.3930248  44.2164588  42.0032801  -6.1395769  45.1304000
  41.1937871  -5.8002540  43.8969243  46.0439907   4.2767002  40.3155062
  45.9663937   5.2274827  40.3943543  45.4401551   3.9312875  40.9729988
  48.5357137  -8.5505132  52.9716429  47.7590471  -7.9911212  52.9619294
  49.1747700  -8.0648349  53.4931299  53.9818081  -8.0215166  37.4945265
  54.8935937  -7.7887780  37.3192962  53.4727728  -7.4378122  36.9320343
  46.7903509  -5.7419679  52.5334396  47.5318194  -5.2034635  52.2569220
  46.0840495  -5.1153390  52.6905948  52.2658849  -3.5990539  51.1306557
  52.6742205  -4.0408128  50.3861190  51.5436110  -4.1737911  51.3840750
  48.6189919  -8.6617932  48.5040114  49.4651114  -8.2378518  48.6474763
  48.5588557  -9.3184307  49.1978678  52.5887664  -3.0389348  44.8858846
  51.9596526  -2.8743634  44.1834914  52.2013326  -2.6247738  45.6569810
  56.4676895  -2.1034910  42.2403210  55.7827934  -1.7236009  41.6900243
  56.5520745  -1.4939583  42.9735158  53.7227827  -4.4574951  48.8398554
  53.9344722  -3.8143191  48.1632935  53.6757575  -5.2912634  48.3720484
  48.1415625  -3.3014940  42.1508931  48.6053971  -3.0227237  41.3613554
  47.8772424  -4.2031495  41.9682022  45.0339706  -3.7543458  45.0888695
  45.6041064  -3.3256190  44.4506179  45.6247818  -4.0360874  45.7872880
  45.5264873  -8.5880031  53.3349706  44.8963534  -7.9063750  53.5685103
  45.4200961  -8.6996949  52.3902844  54.8373655  -1.5802996  47.0120911
  55.6591099  -1.9822808  46.7303593  54.8336058  -1.6834761  47.9637027
  48.6030258  -2.0318952  49.1681621  48.6674691  -1.5698545  50.0039793
  47.8941182  -2.6621587  49.2963931  62.9279648  -5.2364247  43.3605882
  62.1743356  -5.8056849  43.2049887  63.0627189  -5.2701583  44.3076517
  48.3178276  -0.3650845  39.0360602  48.1823951   0.4800691  39.4645450
  48.8588089  -0.1631567  38.2726536  41.7707673  -2.8475407  39.6088527
  42.2832194  -2.0532157  39.7594092  42.4230386  -3.5449116  39.5422128
  43.5802558   0.2690350  41.6911280  43.7569187   1.1908314  41.5032264
  44.3759392  -0.0451231  42.1205660  42.8654915  -7.6845019  51.5673443
  42.7508430  -8.5859761  51.8680542  42.0099432  -7.4381322  51.2158260
  49.9446752   0.2572722  53.1660944  49.5010607  -0.5290900  52.8481848
  50.6063966   0.4451872  52.5004835  44.7033874   1.7868523  47.6921622
  45.2541299   1.6585587  46.9198616  43.8645350   2.0863412  47.3416515
  52.0427991   0.5375522  51.1942345  52.0246466   1.3584403  50.7022614
  52.9647911   0.4129597  51.4192486  48.5001045  -1.9480349  52.0365854
  49.0329381  -2.7092061  51.8065161  47.9715126  -2.2406697  52.7790008
  56.6055297  -4.0979317  38.0085104  55.8284739  -4.4368158  37.5640266
  57.2846777  -4.0926694  37.3340069  49.8653757  -2.8194356  39.5484666
  49.3375119  -3.5541597  39.2357903  49.3641260  -2.0419680  39.3024634
  54.8446603  -4.6245336  44.6651712  54.1870278  -3.9346075  44.7531840
  55.6487003  -4.2348904  45.0085698  53.6552062  -6.2700963  42.7155654
  54.1683944  -5.6370971  43.2177363  54.3053286  -6.8699768  42.3499014
  50.9174436   3.7083361  35.4716325  50.2436135   4.0115058  36.0801283
  51.3040258   4.5112441  35.1221782  50.1332893  -8.7951508  44.9613994
  49.2155454  -8.5736561  44.8035682  50.5493037  -8.7205197  44.1025701
  50.9167941  -7.3960092  40.0916674  51.6639760  -6.8838695  39.7823796
  51.1859530  -7.7176039  40.9521068  54.4213858  -1.2894962  40.8434796
  53.9676186  -2.1304052  40.8999987  53.7907825  -0.6533563  41.1809576
  52.8646798   0.5481535  41.7784614  53.1569772   1.1086592  41.0596980
  53.3745418   0.8410096  42.5337773  47.7379485  -7.2872931  43.1753424
  47.7928095  -8.2399094  43.0995901  46.9270687  -7.1313492  43.6594722
  45.6771845  -8.6695871  40.9343803  44.8639711  -8.3701700  41.3408995
  46.1730839  -9.0640182  41.6518285  47.8280423   1.3261886  42.8678068
  47.7856602   1.5522732  41.9386600  48.7443122   1.0925261  43.0163869
  51.2746057  -8.2054046  49.7658697  51.6295444  -7.9782573  50.6253163
  51.9218188  -7.8735670  49.1435952  57.0043794  -5.0835611  40.4708026
  56.8661692  -4.8934015  39.5429215  56.6480012  -4.3216228  40.9276077
  57.0313173  -3.0159084  45.4819297  57.4649680  -3.1083794  46.3302351
  57.7444754  -3.0401583  44.8439313  45.9446224  -1.7975085  42.6640030
  46.7386822  -2.2924765  42.4622605  45.2337916  -2.3257222  42.3007736
  50.7641068   0.5843011  47.0152398  50.8178090   1.1533947  47.7830114
  49.8955849   0.7544896  46.6506435  57.8928723  -2.9735383  48.0152183
  58.0864613  -2.0689572  48.2611458  57.7929341  -3.4327964  48.8490768
  52.9543831  -2.8228640  53.5893063  52.8029338  -3.0518088  52.6723147
  52.9448511  -1.8658039  53.6024408  49.7229168  -5.2496727  48.5739330
  50.6521228  -5.0985568  48.4008297  49.3020198  -5.1612707  47.7187976
  48.5217500  -1.2246063  46.3437867  48.3828585  -1.5927279  47.2163805
  47.7332096  -0.7098424  46.1721825  49.1165652   3.8763033  37.6863404
  49.2917407   3.4051077  38.5009027  48.4298440   4.5028800  37.9144665
  50.0722715  -1.8464460  43.7326705  49.7372547  -1.8863690  44.6284355
  49.5726660  -2.5119744  43.2597115  44.0466959  -6.4396830  49.2579286
  43.9086757  -7.1716591  49.8590825  44.9571882  -6.5287930  48.9763474
  46.6749259  -6.7276871  48.7462966  47.3848878  -7.3683679  48.7049584
  46.6318568  -6.4763976  49.6689147  54.6636038   0.2090482  51.6669545
  54.6048584  -0.4750297  51.0000128  55.0655556   0.9509472  51.2150171
  45.3878193  -9.7411653  50.5658605  44.8515550 -10.1920915  51.2180202
  44.7994902  -9.6065744  49.8229070  43.6826737   7.0252396  44.4603264
  43.9223335   7.6570920  45.1382283  42.8395933   6.6740436  44.7468623
  54.6653445  -1.8269934  49.8983525  53.7780224  -2.1644012  50.0209924
  55.2351996  -2.5586902  50.1352290  48.1954599   2.8331519  46.8644768
  48.1224770   3.6386490  47.3764073  47.7531992   3.0323485  46.0392789
  47.9844378   2.0703289  40.3747590  47.2011900   2.6124969  40.4685814
  48.6837124   2.5877268  40.7741831  59.1470786  -6.4161716  44.6600086
  59.1360662  -5.5337001  44.2894020  58.2788165  -6.7690165  44.4654624
  50.6553282   2.7318353  49.0202927  51.3681254   3.3665818  48.9478828
  50.1643311   2.8282219  48.2042929  52.3770809  -3.3630395  40.5920218
  51.4427088  -3.2428932  40.4224923  52.5547478  -4.2657928  40.3280228
  47.8775997  -9.9784699  42.7453480  47.5073785 -10.5313658  43.4334385
  48.3735090 -10.5826565  42.1928480  55.7643361  -7.5213075  41.1270253
  56.2303813  -6.6885084  41.0530555  56.2150861  -7.9868094  41.8315511
  45.7065196   0.4812796  49.8408498  46.4074655   1.1149279  49.9937892
  45.2360311   0.8227528  49.0804137  53.8319592  -1.1769254  38.1256405
  54.1079436  -1.2912659  39.0350279  52.9624090  -1.5751769  38.0868578
  53.5066482  -6.9642596  47.6661048  52.8537932  -6.7166689  47.0113501
  53.8846862  -7.7778458  47.3323525  50.4673656   3.0717097  41.7689218
  50.6496050   2.2538753  42.2316971  51.2906642   3.2884789  41.3314108
  50.8015821   1.9985282  39.0304267  51.3303588   1.4877737  38.4174429
  51.0644041   1.6827812  39.8949800  49.5554055  -6.2222785  54.1527085
  48.8794692  -6.3228656  54.8229460  50.3781689  -6.3783572  54.6163082
  41.3032914   0.0149151  46.7739600  41.8886351  -0.7307161  46.9067504
  41.1057752   0.3253108  47.6576264  44.1571569   3.0500399  41.7902043
  43.4881944   3.5346526  41.3066083  44.0184439   3.2969619  42.7045421
  48.2976838   5.0844142  48.3884701  48.8495146   5.2475764  49.1533786
  48.6383031   5.6748580  47.7164726  53.1487712  -0.0894600  54.2433355
  53.6927616   0.5235358  53.7488310  52.5674557   0.4684978  54.7600368
  51.4345225   3.0326118  45.3748383  51.3096364   2.2315858  44.8659329
  52.0924316   3.5272311  44.8862353  53.4980133   0.8335138  47.0027933
  52.5510469   0.7140489  46.9306260  53.8462906  -0.0542364  47.0854195
  50.5026567   0.6287854  43.2032285  50.3551529  -0.2995439  43.3839855
  51.3280060   0.6507945  42.7189361  54.1060688   1.4516413  44.2897158
  55.0307236   1.2459274  44.1521609  53.9375992   1.2032814  45.1986500
  45.2387302  -8.5588595  44.7735147  45.0931883  -8.2448292  45.6659429
  44.7612506  -7.9403695  44.2206046  48.9509816 -11.1348707  46.8669164
  48.6927594 -10.2131636  46.8653495  48.4194856 -11.5318272  47.5569628
  53.8956005   1.9702080  39.6459250  54.0692882   1.4048503  38.8933102
  54.3884896   2.7702975  39.4638740  39.7132964  -6.0183251  47.7122808
  39.1686433  -5.2423443  47.8443083  40.5912314  -5.6712446  47.5541930
  59.7495396  -5.2661497  41.2649549  60.1926542  -6.0154172  40.8668673
  58.8721906  -5.2751361  40.8823281  54.8831177   1.2868845  36.7456148
  55.5782082   1.9075537  36.9643463  55.2254327   0.4364196  37.0208526
  40.4998986  -6.8913355  50.6052965  39.7580722  -6.7430719  51.1917596
  40.1791731  -6.6305089  49.7419715  56.7822600  -1.2631450  38.2743479
  57.3073924  -0.9244177  37.5492799  56.6944953  -2.1984435  38.0906613
  48.4442649   2.6502624  50.4033355  48.7529775   2.4051770  51.2756055
  49.2418131   2.8549262  49.9152226  48.4663261   4.8040533  42.6338732
  48.0268251   4.3116912  43.3271589  49.2171378   4.2613501  42.3930807
  40.9455600   0.9952074  42.6363360  41.7713620   0.6955846  42.2562003
  40.5949652   0.2259697  43.0853149  45.9137133   0.3478542  44.7061034
  45.2917142  -0.3150753  44.4063261  46.5842000   0.3739674  44.0234681
  39.1464205  -1.0861599  43.5952294  38.3096113  -1.5139425  43.4136295
  39.1187851  -0.8929156  44.5323085  56.4716506  -0.6298546  53.5794677
  55.6812050  -0.6474407  53.0399176  56.2349861  -0.0910253  54.3343713
  56.5914381  -3.7806080  50.8927405  56.6412386  -3.9456072  51.8342928
  56.4828305  -4.6478821  50.5025286  45.4750640  -1.1017534  38.1819494
  45.6238760  -0.4182070  37.5286167  46.2817084  -1.1212444  38.6968950
  53.8818144  -7.7975152  52.2086712  54.7828007  -7.9368687  51.9170710
  53.9566118  -7.6320697  53.1484889  48.2160949 -10.4208297  51.0539898
  47.3464259 -10.1274731  50.7822487  48.4520430  -9.8367852  51.7747162
  58.0932578  -1.3609138  51.1369427  57.8017387  -0.9979158  51.9732888
  57.4804710  -2.0742130  50.9582759  59.2928261  -3.7956259  43.6571997
  60.1275152  -3.3566455  43.8209557  59.4287389  -4.2717605  42.8380243
  56.3419766  -6.2376524  49.6049485  56.8173888  -6.0448877  48.7968336
  55.4185332  -6.1817338  49.3592868  48.9746046   1.3930596  35.6531242
  48.4020013   2.0120783  35.2001713  49.5478839   1.9429958  36.1871163
  52.1943305   1.6767746  36.7839824  53.1273979   1.6113308  36.9872699
  52.1066518   2.5124013  36.3254356  54.8231322   0.9933617  33.7443771
  54.7444954   0.6593480  34.6379529  55.6440989   1.4855385  33.7435244
  57.5209513  -6.1404644  46.9520090  57.4885833  -7.0788643  47.1379774
  58.1310137  -6.0620607  46.2185915  63.3386063  -5.0788637  46.0926127
  64.0689452  -5.3403349  46.6533830  62.7293009  -5.8159915  46.1328195
  61.4201360  -6.9380775  46.6900578  60.6934524  -7.0724810  46.0817070
  61.0048647  -6.6303946  47.4957296  49.2431537  -3.2190845  54.4547951
  50.1634546  -3.0412246  54.6487998  49.2081120  -4.1634800  54.3027650
  42.2393609  -5.3089810  47.0970732  42.4579619  -4.3772702  47.1158766
  42.6519383  -5.6681836  47.8825536  47.1121475  -9.7356604  56.4873481
  47.0118201  -8.7862248  56.4185572  46.8943017 -10.0638366  55.6149551
  38.3301962  -4.4049340  45.3494347  37.6365433  -4.8195387  44.8364302
  39.0774953  -4.3628803  44.7527766  46.9752745  -6.3059466  55.3038543
  46.4919826  -5.5059106  55.5102432  47.0613684  -6.2951521  54.3505987
  40.2438704  -4.4731086  43.2260362  40.2209392  -4.3743399  42.2742245
  40.5539341  -3.6265935  43.5477528  42.9026082  -2.4154931  47.3406977
  43.8569336  -2.4470989  47.2736908  42.7038606  -2.8764307  48.1557202
  43.4925464  -3.8453815  49.9077774  44.3118353  -3.3509736  49.9312611
  43.7662272  -4.7621847  49.8795342  41.2576311   3.1264689  44.3577174
  41.1230779   2.3665089  43.7915172  40.8408373   3.8505588  43.8905963
  53.2233084  -5.9388527  39.4856020  53.1668286  -5.4819975  38.6463652
  53.7761427  -6.6997842  39.3078863  44.4145437   4.0234006  44.5695617
  44.2977821   4.9679438  44.4674307  43.5937883   3.7207567  44.9581416
  54.3021971  -1.2515859  35.4152210  55.1367575  -1.6834660  35.2329685
  54.1406314  -1.4233845  36.3429104  53.9567863  -4.7483745  36.7808549
  53.9016667  -4.9139474  35.8396993  53.3313919  -4.0407712  36.9370739
  51.2713771  -2.4434834  56.1062112  52.1404930  -2.2694181  55.7448747
  50.7920522  -1.6240417  55.9837841  45.4399951   4.6762267  47.7851545
  46.3427198   4.7085878  48.1018040  45.2137321   3.7462718  47.7997881
  47.1953553   3.4293254  44.4461624  46.2449184   3.4295116  44.3325996
  47.4986039   2.6825989  43.9297659  62.9306246   9.2653792  45.5107386
  63.5684656   9.1460540  44.8070727  62.8127089  10.2134636  45.5695339
  59.7395953   9.2181221  45.4468911  59.4014464   9.1022285  44.5589446
  60.6085721   8.8172386  45.4269917  55.5982768  11.0716697  41.4365802
  55.0347633  10.9806634  40.6682090  55.4835163  10.2516601  41.9168295
  60.2215736  10.3716072  51.4055117  60.2104376   9.9768871  50.5335620
  60.3836375   9.6382145  51.9988888  53.1447200  12.5667889  44.2750023
  53.9368492  12.2258713  43.8596322  53.3843850  12.6762864  45.1952176
  61.1782327  14.7387665  36.7480267  60.5270307  15.3241745  36.3614281
  61.9726690  15.2693860  36.8075305  55.1037954  11.8276802  37.1467401
  55.8768830  11.2805789  37.0080277  55.4563353  12.6921051  37.3581863
  56.9422997  13.1553184  50.3534301  56.6512863  14.0598815  50.2380967
  57.5779981  13.1969712  51.0678370  57.8679204  10.5330033  46.9435660
  58.4642776  10.3086055  46.2292623  57.9254175   9.7914778  47.5461108
  57.4404232   7.9869468  34.7785851  57.6929753   7.4650989  34.0169314
  56.5028791   7.8235613  34.8812535  62.4847515   6.9905246  42.5860595
  63.2710604   6.5724669  42.2351012  62.7486219   7.8951338  42.7542243
  62.6557592  12.4278097  37.2849251  62.0203425  12.5012723  37.9970156
  62.3254999  13.0171695  36.6068331  67.8855942   6.9280479  43.4893573
  68.6181114   6.3579696  43.7231403  67.1295298   6.5402080  43.9300079
  57.1600521   9.8897574  36.9810226  57.0436779   9.2142477  37.6491311
  57.2702781   9.4029948  36.1642379  59.5032062   9.3507721  40.6856915
  59.1390269   8.8238342  41.3969837  60.3599178   8.9606190  40.5123401
  65.4081362   0.6402054  47.9488182  65.0764687   1.5097465  47.7249397
  64.8126976   0.3238338  48.6282212  59.1437549   4.3797621  35.6818264
  59.3111951   5.2477857  36.0488735  58.9534718   4.5424902  34.7579553
  61.9012882  12.8414600  47.3484094  61.6013605  13.7439638  47.2399902
  61.5563941  12.5746783  48.2005247  55.3525363   9.2928396  43.3820799
  54.4275860   9.1604611  43.5898491  55.6009777  10.0722616  43.8790741
  65.3010026   5.3597140  45.0281532  64.3926903   5.2912548  44.7340293
  65.2497621   5.8369085  45.8563357  59.1226770   6.8355278  36.6664931
  59.0026395   7.2812329  37.5050411  58.4279358   7.1840596  36.1078469
  52.7134174   8.9361670  44.2164588  52.8426556   9.1896149  45.1304000
  52.0331626   9.5289378  43.8969243  56.8833662  19.6058920  40.3155062
  56.8057691  20.5566745  40.3943543  56.2795305  19.2604792  40.9729988
  59.3750891   6.7786785  52.9716429  58.5984226   7.3380705  52.9619294
  60.0141454   7.2643568  53.4931299  67.1671672   3.5613578  46.8059406
  66.5246052   3.8546111  46.1599200  66.6626601   3.4466498  47.6112602
  64.8211836   7.3076751  37.4945265  65.7329692   7.5404138  37.3192962
  64.3121483   7.8913796  36.9320343  57.6297264   9.5872239  52.5334396
  58.3711948  10.1257283  52.2569220  56.9234249  10.2138527  52.6905948
  63.1052603  11.7301379  51.1306557  63.5135959  11.2883790  50.3861190
  62.3829865  11.1554007  51.3840750  59.4583673   6.6673986  48.5040114
  60.3044869   7.0913399  48.6474763  59.3982311   6.0107610  49.1978678
  63.4281418  12.2902570  44.8858846  62.7990280  12.4548284  44.1834914
  63.0407080  12.7044179  45.6569810  67.3070650  13.2257008  42.2403210
  66.6221688  13.6055909  41.6900243  67.3914499  13.8352334  42.9735158
  62.6083119   4.3278354  50.1621288  62.3644051   5.0820415  49.6255564
  62.8843049   4.7063702  50.9968535  64.5621582  10.8716967  48.8398554
  64.7738477  11.5148727  48.1632935  64.5151330  10.0379283  48.3720484
  62.1647810   3.4834787  45.7435126  61.3032290   3.7816041  46.0351863
  62.1910245   3.7005186  44.8116158  58.9809380  12.0276978  42.1508931
  59.4447725  12.3064681  41.3613554  58.7166178  11.1260422  41.9682022
  55.8733461  11.5748459  45.0888695  56.4434818  12.0035728  44.4506179
  56.4641573  11.2931044  45.7872880  57.9178266   8.1500130  38.9598497
  58.6202309   8.6021174  39.4272423  57.5858894   7.5083949  39.5878390
  56.3658627   6.7411887  53.3349706  55.7357288   7.4228168  53.5685103
  56.2594715   6.6294968  52.3902844  51.6603600   6.4083683  44.2615630
  50.8702654   6.6641211  43.7855741  52.1514847   7.2232021  44.3667671
  65.6767409  13.7488922  47.0120911  66.4984853  13.3469109  46.7303593
  65.6729812  13.6457156  47.9637027  53.6118345   6.7728262  41.2199107
  52.8149509   6.8846956  41.7382603  53.3843938   7.1114914  40.3539997
  59.4424013  13.2972965  49.1681621  59.5068445  13.7593373  50.0039793
  58.7334937  12.6670330  49.2963931  49.9441303   6.6614173  46.6930621
  50.1949341   7.5461183  46.9588197  50.4800851   6.4818775  45.9205713
  73.7673403  10.0927671  43.3605882  73.0137111   9.5235069  43.2049887
  73.9020944  10.0590335  44.3076517  59.1572031  14.9641073  39.0360602
  59.0217705  15.8092609  39.4645450  59.6981843  15.1660351  38.2726536
  55.6439370   1.0432653  55.6974957  55.2506316   0.4898851  56.3722601
  56.4605511   1.3543231  56.0881475  52.6101428  12.4816511  39.6088527
  53.1225949  13.2759761  39.7594092  53.2624141  11.7842801  39.5422128
  54.4196313  15.5982267  41.6911280  54.5962941  16.5200232  41.5032264
  55.2153146  15.2840686  42.1205660  58.5607331   2.4590532  53.2895214
  59.3017045   3.0597685  53.2099676  58.7925254   1.7168170  52.7313256
  53.7048669   7.6446899  51.5673443  53.5902184   6.7432156  51.8680542
  52.8493187   7.8910596  51.2158260  60.7840507  15.5864639  53.1660944
  60.3404361  14.8001018  52.8481848  61.4457721  15.7743790  52.5004835
  55.5427628  17.1160441  47.6921622  56.0935053  16.9877504  46.9198616
  54.7039104  17.4155330  47.3416515  62.8821745  15.8667439  51.1942345
  62.8640220  16.6876320  50.7022614  63.8041665  15.7421515  51.4192486
  59.3394799  13.3811569  52.0365854  59.8723136  12.6199857  51.8065161
  58.8108880  13.0885221  52.7790008  62.5064494  -1.5128365  47.5659495
  62.1628764  -0.6226724  47.4898606  62.8743457  -1.7026708  46.7029080
  50.5750345  10.8105165  40.3848097  51.4125567  11.2202174  40.1681805
  50.7528612   9.8704607  40.3548291  62.4714777   8.4780246  36.0731930
  61.9561400   9.2484850  36.3120318  62.1992085   7.8045382  36.6964992
  60.0561888   3.3229947  41.1317169  59.2003484   2.9336797  40.9522807
  60.4688840   3.4021907  40.2716954  61.5861035   0.8576290  45.5308729
  61.0825830   0.8206425  44.7176534  61.8791641   1.7669033  45.5905385
  57.8303920   0.9415020  44.5374910  58.6956917   0.7457828  44.1780800
  57.8981429   0.7125371  45.4644267  67.4449051  11.2312601  38.0085104
  66.6678494  10.8923760  37.5640266  68.1240532  11.2365224  37.3340069
  62.2601080   6.3507338  37.8991712  61.9551216   6.6653487  38.7501855
  63.2131522   6.4288758  37.9419045  60.7047512  12.5097561  39.5484666
  60.1768873  11.7750321  39.2357903  60.2035015  13.2872238  39.3024634
  65.6840358  10.7046582  44.6651712  65.0264032  11.3945843  44.7531840
  66.4880757  11.0943014  45.0085698  55.4366240   3.1717228  41.9091277
  56.0109991   2.9492409  41.1764470  56.0237222   3.2405922  42.6619878
  64.4945817   9.0590954  42.7155654  65.0077698   9.6920946  43.2177363
  65.1447041   8.4592150  42.3499014  55.7635827   5.2021689  35.9287162
  54.9273139   5.5396375  36.2496437  55.6240596   5.0670668  34.9914299
  57.7388907   0.0458476  40.6366346  57.0853320  -0.2692506  40.0122961
  57.6969381  -0.5765783  41.3626169  58.8500112  10.3277772  32.5519639
  57.9427174  10.0967025  32.7510788  59.3471144   9.5315391  32.7393620
  61.7568191  19.0375279  35.4716325  61.0829890  19.3406975  36.0801283
  62.1434013  19.8404359  35.1221782  60.9726648   6.5340410  44.9613994
  60.0549209   6.7555357  44.8035682  61.3886791   6.6086720  44.1025701
  61.7561695   7.9331826  40.0916674  62.5033514   8.4453223  39.7823796
  62.0253285   7.6115878  40.9521068  60.0288346  10.4290366  37.0743629
  59.1199565  10.1449399  37.1716098  60.0583429  10.8489445  36.2146936
  65.2607613  14.0396956  40.8434796  64.8069940  13.1987866  40.8999987
  64.6301580  14.6758354  41.1809576  64.2040532   4.9688942  42.0735464
  63.4663289   4.4566328  42.4045706  64.4567306   4.5289324  41.2618741
  63.7040552  15.8773453  41.7784614  63.9963527  16.4378510  41.0596980
  64.2139173  16.1702014  42.5337773  64.3052160  -2.2534806  42.6677233
  64.6111037  -3.1137443  42.3803148  65.0304765  -1.6617186  42.4676227
  50.5976516   8.1495881  41.0558831  50.4000916   7.5565241  40.3309897
  50.0423180   7.8448091  41.7734770  58.5773240   8.0418987  43.1753424
  58.6321849   7.0892823  43.0995901  57.7664442   8.1978426  43.6594722
  59.7264433  11.9699110  34.4131707  59.2883863  11.2534969  33.9537345
  60.4674874  12.1975225  33.8516799  56.5165599   6.6596047  40.9343803
  55.7033465   6.9590217  41.3408995  57.0124594   6.2651736  41.6518285
  58.6674177  16.6553804  42.8678068  58.6250356  16.8814650  41.9386600
  59.5836876  16.4217178  43.0163869  62.1139811   7.1237871  49.7658697
  62.4689199   7.3509344  50.6253163  62.7611942   7.4556248  49.1435952
  67.8437548  10.2456307  40.4708026  67.7055447  10.4357903  39.5429215
  67.4873767  11.0075690  40.9276077  56.0079674   4.2314402  46.5505038
  56.6479054   4.0903161  45.8528001  55.1757205   3.9448916  46.1743640
  67.8706928  12.3132834  45.4819297  68.3043434  12.2208123  46.3302351
  68.5838508  12.2890335  44.8439313  56.7839978  13.5316833  42.6640030
  57.5780577  13.0367153  42.4622605  56.0731671  13.0034696  42.3007736
  61.6034823  15.9134928  47.0152398  61.6571845  16.4825865  47.7830114
  60.7349604  16.0836813  46.6506435  53.0922742   7.6759914  38.7399783
  52.1620330   7.6144370  38.9569745  53.1880214   7.1535867  37.9436424
  53.0108291   4.2014727  41.3278025  53.2715108   5.1160061  41.2187185
  53.8325463   3.7339170  41.4774637  54.4833216   5.6152484  48.4976849
  55.1556269   5.4069847  47.8489498  53.6563003   5.4174570  48.0582081
  68.7322477  12.3556535  48.0152183  68.9258367  13.2602345  48.2611458
  68.6323095  11.8963954  48.8490768  60.3858788   2.2414425  50.5142510
  59.7386703   2.9404375  50.4206986  61.1559803   2.6750569  50.8818758
  63.7937586  12.5063278  53.5893063  63.6423092  12.2773829  52.6723147
  63.7842265  13.4633879  53.6024408  60.5622922  10.0795190  48.5739330
  61.4914982  10.2306350  48.4008297  60.1413952  10.1679211  47.7187976
  59.3611254  14.1045855  46.3437867  59.2222340  13.7364639  47.2163805
  58.5725850  14.6193494  46.1721825  59.9559406  19.2054951  37.6863404
  60.1311162  18.7342994  38.5009027  59.2692194  19.8320717  37.9144665
  60.9116469  13.4827457  43.7326705  60.5766302  13.4428227  44.6284355
  60.4120415  12.8172173  43.2597115  54.8860713   8.8895087  49.2579286
  54.7480511   8.1575326  49.8590825  55.7965637   8.8003988  48.9763474
  63.8475661  10.8283492  34.0063765  63.2304832  10.1030320  33.9096817
  63.3792149  11.5892852  33.6630839  57.5143014   8.6015047  48.7462966
  58.2242632   7.9608239  48.7049584  57.4712322   8.8527942  49.6689147
  65.5029793  15.5382400  51.6669545  65.4442339  14.8541620  51.0000128
  65.9049311  16.2801390  51.2150171  56.2271948   5.5880265  50.5658605
  55.6909305   5.1371003  51.2180202  55.6388656   5.7226173  49.8229070
  54.5220491  22.3544314  44.4603264  54.7617090  22.9862838  45.1382283
  53.6789688  22.0032354  44.7468623  55.6374207   5.0468916  33.1285069
  54.7603673   4.9257717  32.7647316  56.1131960   4.2554994  32.8763958
  65.5047200  13.5021984  49.8983525  64.6173979  13.1647906  50.0209924
  66.0745751  12.7705015  50.1352290  47.1576347   9.8346076  43.2226576
  47.8447387   9.5207806  42.6347592  47.0024476  10.7387440  42.9493828
  51.9611069   4.7236272  47.6511600  51.8769258   4.1161942  46.9162010
  51.1393776   5.2145291  47.6521096  59.0348353  18.1623436  46.8644768
  58.9618525  18.9678408  47.3764073  58.5925746  18.3615402  46.0392789
  58.8238133  17.3995206  40.3747590  58.0405655  17.9416887  40.4685814
  59.5230878  17.9169186  40.7741831  62.1334783   3.2089836  43.0181795
  62.6303483   2.4559798  42.6982865  61.3621764   3.2454153  42.4525004
  69.9864540   8.9130201  44.6600086  69.9754417   9.7954917  44.2894020
  69.1181920   8.5601752  44.4654624  61.4947037  18.0610270  49.0202927
  62.2075009  18.6957735  48.9478828  61.0037065  18.1574136  48.2042929
  63.2164564  11.9661523  40.5920218  62.2820842  12.0862986  40.4224923
  63.3941232  11.0633990  40.3280228  58.7169752   5.3507219  42.7453480
  58.3467539   4.7978259  43.4334385  59.2128844   4.7465352  42.1928480
  66.6037115   7.8078842  41.1270253  67.0697567   8.6406834  41.0530555
  67.0544616   7.3423824  41.8315511  56.5458950  15.8104714  49.8408498
  57.2468410  16.4441197  49.9937892  56.0754065  16.1519445  49.0804137
  64.6713346  14.1522664  38.1256405  64.9473190  14.0379258  39.0350279
  63.8017845  13.7540148  38.0868578  64.5753778   0.1759429  45.1661154
  63.6616858   0.4063656  45.3343361  65.0046879   0.2597873  46.0175186
  64.3460236   8.3649321  47.6661048  63.6931687   8.6125229  47.0113501
  64.7240616   7.5513459  47.3323525  61.3067410  18.4009014  41.7689218
  61.4889805  17.5830670  42.2316971  62.1300396  18.6176707  41.3314108
  61.6409576  17.3277200  39.0304267  62.1697342  16.8169654  38.4174429
  61.9037795  17.0119730  39.8949800  60.3947809   9.1069132  54.1527085
  59.7188446   9.0063262  54.8229460  61.2175443   8.9508346  54.6163082
  52.1426668  15.3441069  46.7739600  52.7280105  14.5984757  46.9067504
  51.9451507  15.6545026  47.6576264  54.9965324  18.3792316  41.7902043
  54.3275699  18.8638444  41.3066083  54.8578193  18.6261537  42.7045421
  46.7344323   7.9146669  45.4944043  46.7728423   7.3810260  46.2881161
  46.2284616   7.3881875  44.8755021  59.1370592  20.4136060  48.3884701
  59.6888900  20.5767681  49.1533786  59.4776786  21.0040498  47.7164726
  54.1135085   2.7611210  48.9906586  54.1776412   3.6226041  48.5783983
  54.0502206   2.1485211  48.2578944  53.5887358   4.8334342  52.6379620
  54.2159397   4.4511419  53.2517144  52.7315277   4.6148544  53.0035312
  63.9881466  15.2397317  54.2433355  64.5321370  15.8527276  53.7488310
  63.4068311  15.7976896  54.7600368  50.3652901   6.6410771  38.5697975
  50.6606342   5.7321450  38.5165028  49.4640936   6.6198511  38.2478977
  62.2738979  18.3618035  45.3748383  62.1490119  17.5607775  44.8659329
  62.9318071  18.8564229  44.8862353  53.8947148   4.7166768  44.5525523
  53.1733733   5.3302736  44.4132997  54.6840403   5.2524533  44.4742169
  64.3373888  16.1627055  47.0027933  63.3904223  16.0432407  46.9306260
  64.6856661  15.2749553  47.0854195  56.6973461   2.0521194  50.8266175
  57.2207863   2.2983491  51.5892484  56.4785794   2.8841229  50.4069312
  52.0940742   4.3224869  38.6937300  51.7653448   3.4422248  38.5112406
  52.4480113   4.2672538  39.5813689  61.3420321  15.9579772  43.2032285
  61.1945284  15.0296479  43.3839855  62.1673815  15.9799862  42.7189361
  55.2082565   4.6097839  39.0612778  55.5478638   5.1383760  38.3391386
  55.6554686   4.9478245  39.8371344  64.9454443  16.7808330  44.2897158
  65.8700990  16.5751192  44.1521609  64.7769746  16.5324732  45.1986500
  57.9026006   2.9934889  48.5115846  57.5622827   2.1942703  48.9136526
  57.1965013   3.2936600  47.9392679  58.5542478   0.0784202  46.9643169
  59.3768547  -0.3955320  46.8422059  58.7980542   0.8574686  47.4641855
  57.1950713   3.1072460  37.2606070  57.9159075   3.4853713  36.7569787
  56.5716017   3.8261337  37.3641048  61.3381835   3.8117609  38.1964403
  61.5545450   4.6942247  37.8953231  60.8575903   3.4203823  37.4670045
  56.0781057   6.7703323  44.7735147  55.9325638   7.0843626  45.6659429
  55.6006260   7.3888223  44.2206046  57.9377440   3.7605870  44.8216037
  57.9239008   2.8646964  44.4848335  58.6549868   3.7676534  45.4554323
  59.7903570   4.1943211  46.8669164  59.5321348   5.1160281  46.8653495
  59.2588611   3.7973645  47.5569628  64.7349759  17.2993998  39.6459250
  64.9086637  16.7340420  38.8933102  65.2278650  18.0994893  39.4638740
  50.5526719   9.3108667  47.7122808  50.0080187  10.0868475  47.8443083
  51.4306069   9.6579471  47.5541930  57.3414336   2.6420251  40.0903607
  57.4630247   1.7136897  40.2894494  57.0516378   2.6558937  39.1781922
  60.2105526   0.3275161  43.2270327  60.2327223   0.3914494  42.2722306
  60.6273585  -0.5120330  43.4210833  70.5889150  10.0630421  41.2649549
  71.0320296   9.3137746  40.8668673  69.7115661  10.0540557  40.8823281
  65.7224932  16.6160762  36.7456148  66.4175836  17.2367455  36.9643463
  66.0648082  15.7656113  37.0208526  51.3392741   8.4378563  50.6052965
  50.5974477   8.5861199  51.1917596  51.0185485   8.6986829  49.7419715
  67.6216355  14.0660468  38.2743479  68.1467679  14.4047741  37.5492799
  67.5338707  13.1307483  38.0906613  59.2836403  17.9794541  50.4033355
  59.5923530  17.7343688  51.2756055  60.0811886  18.1841180  49.9152226
  59.3057016  20.1332451  42.6338732  58.8662006  19.6408830  43.3271589
  60.0565132  19.5905419  42.3930807  51.7849355  16.3243992  42.6363360
  52.6107374  16.0247764  42.2562003  51.4343407  15.5551614  43.0853149
  56.7530888  15.6770460  44.7061034  56.1310897  15.0141165  44.4063261
  57.4235755  15.7031592  44.0234681  49.9857960  14.2430318  43.5952294
  49.1489868  13.8152493  43.4136295  49.9581605  14.4362762  44.5323085
  56.8255415   4.1552248  54.2993540  56.8743571   5.0314371  53.9171309
  57.3677929   3.6129641  53.7265183  67.3110261  14.6993371  53.5794677
  66.5205805  14.6817510  53.0399176  67.0743615  15.2381665  54.3343713
  67.4308136  11.5485838  50.8927405  67.4806141  11.3835845  51.8342928
  67.3222059  10.6813097  50.5025286  56.3144395  14.2274383  38.1819494
  56.4632515  14.9109848  37.5286167  57.1210838  14.2079474  38.6968950
  64.7211898   7.5316766  52.2086712  65.6221761   7.3923231  51.9170710
  64.7959873   7.6971221  53.1484889  59.0554704   4.9083621  51.0539898
  58.1858013   5.2017187  50.7822487  59.2914184   5.4924066  51.7747162
  68.9326333  13.9682779  51.1369427  68.6411141  14.3312760  51.9732888
  68.3198464  13.2549788  50.9582759  70.1322015  11.5335659  43.6571997
  70.9668906  11.9725463  43.8209557  70.2681144  11.0574312  42.8380243
  67.1813521   9.0915394  49.6049485  67.6567643   9.2843040  48.7968336
  66.2579086   9.1474580  49.3592868  54.0697028  10.2539561  39.1880563
  53.8243070   9.3501891  39.3860773  54.2392942  10.2556712  38.2460041
  61.7593737   1.1263237  48.5705319  62.2775681   1.8624264  48.2451807
  61.4048870   1.4327231  49.4052078  53.3392675   5.9867919  36.6866724
  52.6461920   6.0612274  36.0306760  53.0944427   5.2228262  37.2088241
  62.0106332  -2.4536480  44.0906215  62.2908085  -3.1213291  44.7166642
  62.7956939  -2.2607384  43.5780879  59.8139800  16.7222514  35.6531242
  59.2413767  17.3412701  35.2001713  60.3872594  17.2721876  36.1871163
  65.8815190   5.9681154  47.8377790  66.8332613   6.0679252  47.8590014
  65.7118640   5.1759423  48.3475875  63.9029569   3.0536737  48.0237191
  63.3079502   3.3341750  47.3283680  63.6179266   3.5430638  48.7953932
  63.0337060  17.0059664  36.7839824  63.9667733  16.9405226  36.9872699
  62.9460273  17.8415931  36.3254356  65.6625077  16.3225534  33.7443771
  65.5838708  15.9885398  34.6379529  66.4834743  16.8147302  33.7435244
  68.3603268   9.1887274  46.9520090  68.3279588   8.2503274  47.1379774
  68.9703891   9.2671310  46.2185915  60.1986599   8.0583327  32.9947294
  61.1445703   7.9289535  33.0635712  59.8200844   7.3197989  33.4716722
  68.5097756   5.9798317  46.9978373  67.9936805   5.1956774  46.8108302
  69.3937705   5.6517034  47.1624893  66.1708483  -0.2760667  42.9574186
  65.9733304  -0.5845579  43.8417518  66.7808189   0.4500972  43.0872116
  74.1779818  10.2503281  46.0926127  74.9083206   9.9888569  46.6533830
  73.5686763   9.5132002  46.1328195  72.2595115   8.3911143  46.6900578
  71.5328278   8.2567108  46.0817070  71.8442402   8.6987972  47.4957296
  60.0825291  12.1101073  54.4547951  61.0028301  12.2879672  54.6487998
  60.0474874  11.1657118  54.3027650  58.3829516   5.9833303  32.9302179
  57.4760971   5.6866416  33.0064893  58.6605497   5.6863121  32.0636465
  49.3007456   7.3039666  43.3801226  48.9810241   6.4504975  43.0875600
  48.7540884   7.5188245  44.1359193  53.0787364  10.0202107  47.0970732
  53.2973373  10.9519215  47.1158766  53.4913138   9.6610082  47.8825536
  59.9991582   0.5270193  39.0846421  59.1892310   0.1817278  39.4601667
  60.6875998   0.2177736  39.6734032  61.9282130  -0.3951760  40.7070717
  62.4813168   0.0243693  41.3660740  62.1652216  -1.3216012  40.7493673
  57.9515229   5.5935313  56.4873481  57.8511956   6.5429670  56.4185572
  57.7336771   5.2653552  55.6149551  57.1528300   2.8420238  33.0714158
  58.0147464   3.1675137  33.3309976  57.3378645   2.0551734  32.5587224
  49.1695716  10.9242578  45.3494347  48.4759188  10.5096531  44.8364302
  49.9168707  10.9663114  44.7527766  65.3060937   1.7148765  40.2149381
  64.7259606   2.3733569  39.8327434  65.0396870   0.8926109  39.8036799
  63.7564503   1.1153822  42.4170702  64.2564282   1.2270357  41.6085021
  64.4000111   0.8114875  43.0571510  57.8146499   9.0232452  55.3038543
  57.3313581   9.8232812  55.5102432  57.9007438   9.0340397  54.3505987
  51.0832459  10.8560832  43.2260362  51.0603147  10.9548519  42.2742245
  51.3933095  11.7025983  43.5477528  53.7419837  12.9136987  47.3406977
  54.6963090  12.8820929  47.2736908  53.5432360  12.4527610  48.1557202
  54.3319219  11.4838103  49.9077774  55.1512108  11.9782181  49.9312611
  54.6056026  10.5670071  49.8795342  64.0885815   3.8748855  39.2705730
  63.2011670   4.1598506  39.0525924  64.5039804   3.7142618  38.4233007
  67.4400351   3.8995376  42.9860069  68.2160741   4.3891829  43.2584686
  66.7148485   4.3253430  43.4431938  69.8772910   4.6122995  44.0434010
  70.4717400   4.3718731  43.3327318  69.9499493   3.8930126  44.6707546
  52.0970065  18.4556606  44.3577174  51.9624533  17.6957007  43.7915172
  51.6802128  19.1797506  43.8905963  63.2329028  13.6393530  33.3653750
  63.9364878  13.8443532  33.9811405  62.5091677  14.2070292  33.6302833
  64.0626839   9.3903391  39.4856020  64.0062040   9.8471942  38.6463652
  64.6155181   8.6294076  39.3078863  67.8731645   5.1793123  40.3106139
  67.6168579   4.7789759  41.1414347  67.2484513   5.8936917  40.1856279
  72.1843982   7.9189196  42.8177431  71.6243540   7.9882385  43.5908993
  71.5787486   7.7430181  42.0976927  55.2539191  19.3525923  44.5695617
  55.1371575  20.2971356  44.4674307  54.4331638  19.0499485  44.9581416
  65.1415726  14.0776059  35.4152210  65.9761330  13.6457257  35.2329685
  64.9800069  13.9058073  36.3429104  64.7961618  10.5808172  36.7808549
  64.7410422  10.4152444  35.8396993  64.1707673  11.2884205  36.9370739
  49.5854133   5.8176237  50.6069971  50.2312997   5.3075191  51.0957196
  49.3771284   6.5544918  51.1813397  62.1107525  12.8857084  56.1062112
  62.9798685  13.0597736  55.7448747  61.6314277  13.7051501  55.9837841
  58.1057743   0.0816281  36.3593867  58.0936413   1.0258121  36.5162138
  58.9981165  -0.1013573  36.0653329  56.2793705  20.0054185  47.7851545
  57.1820952  20.0377795  48.1018040  56.0531075  19.0754636  47.7997881
  58.0347307  18.7585172  44.4461624  57.0842938  18.7587033  44.3325996
  58.3379794  18.0117906  43.9297659  61.9209863  -3.3240942  40.6139804
  61.1542259  -3.8782455  40.7596487  62.3320568  -3.2519073  41.4753956
  53.9251624   2.9643854  54.7044985  54.7883085   2.6080659  54.9148310
  53.3517035   2.6257749  55.3920390  73.7700001  24.5945710  45.5107386
  74.4078411  24.4752457  44.8070727  73.6520844  25.5426554  45.5695339
  70.5789707  24.5473138  45.4468911  70.2408219  24.4314203  44.5589446
  71.4479475  24.1464303  45.4269917  66.4376523  26.4008615  41.4365802
  65.8741388  26.3098552  40.6682090  66.3228918  25.5808519  41.9168295
  71.0609490  25.7007990  51.4055117  71.0498131  25.3060788  50.5335620
  71.2230130  24.9674063  51.9988888  63.9840955  27.8959806  44.2750023
  64.7762247  27.5550631  43.8596322  64.2237605  28.0054781  45.1952176
  72.0176082  30.0679582  36.7480267  71.3664061  30.6533663  36.3614281
  72.8120444  30.5985777  36.8075305  65.9431709  27.1568719  37.1467401
  66.7162585  26.6097707  37.0080277  66.2957108  28.0212969  37.3581863
  67.7816751  28.4845102  50.3534301  67.4906617  29.3890733  50.2380967
  68.4173736  28.5261629  51.0678370  68.7072958  25.8621950  46.9435660
  69.3036530  25.6377973  46.2292623  68.7647930  25.1206696  47.5461108
  68.2797987  23.3161386  34.7785851  68.5323507  22.7942907  34.0169314
  67.3422546  23.1527531  34.8812535  73.3241269  22.3197164  42.5860595
  74.1104359  21.9016587  42.2351012  73.5879974  23.2243256  42.7542243
  73.4951347  27.7570014  37.2849251  72.8597180  27.8304641  37.9970156
  73.1648753  28.3463613  36.6068331  78.7249696  22.2572397  43.4893573
  79.4574868  21.6871614  43.7231403  77.9689052  21.8693998  43.9300079
  67.9994275  25.2189492  36.9810226  67.8830533  24.5434395  37.6491311
  68.1096535  24.7321865  36.1642379  70.3425816  24.6799639  40.6856915
  69.9784023  24.1530260  41.3969837  71.1992932  24.2898108  40.5123401
  76.2475117  15.9693971  47.9488182  75.9158442  16.8389382  47.7249397
  75.6520730  15.6530255  48.6282212  69.9831303  19.7089538  35.6818264
  70.1505706  20.5769775  36.0488735  69.7928472  19.8716820  34.7579553
  72.7406636  28.1706517  47.3484094  72.4407359  29.0731556  47.2399902
  72.3957696  27.9038700  48.2005247  66.1919118  24.6220314  43.3820799
  65.2669614  24.4896528  43.5898491  66.4403531  25.4014533  43.8790741
  76.1403780  20.6889057  45.0281532  75.2320657  20.6204466  44.7340293
  76.0891376  21.1661002  45.8563357  69.9620524  22.1647196  36.6664931
  69.8420149  22.6104247  37.5050411  69.2673112  22.5132514  36.1078469
  63.5527929  24.2653588  44.2164588  63.6820310  24.5188067  45.1304000
  62.8725380  24.8581296  43.8969243  67.7227416  34.9350838  40.3155062
  67.6451446  35.8858663  40.3943543  67.1189060  34.5896710  40.9729988
  70.2144646  22.1078703  52.9716429  69.4377980  22.6672623  52.9619294
  70.8535209  22.5935486  53.4931299  78.0065427  18.8905496  46.8059406
  77.3639807  19.1838029  46.1599200  77.5020355  18.7758416  47.6112602
  75.6605590  22.6368669  37.4945265  76.5723446  22.8696056  37.3192962
  75.1515237  23.2205713  36.9320343  68.4691018  24.9164156  52.5334396
  69.2105703  25.4549200  52.2569220  67.7628004  25.5430445  52.6905948
  73.9446358  27.0593297  51.1306557  74.3529714  26.6175707  50.3861190
  73.2223619  26.4845924  51.3840750  70.2977428  21.9965904  48.5040114
  71.1438623  22.4205317  48.6474763  70.2376066  21.3399528  49.1978678
  74.2675173  27.6194487  44.8858846  73.6384035  27.7840202  44.1834914
  73.8800835  28.0336097  45.6569810  78.1464404  28.5548925  42.2403210
  77.4615443  28.9347827  41.6900243  78.2308254  29.1644252  42.9735158
  73.4476873  19.6570272  50.1621288  73.2037805  20.4112333  49.6255564
  73.7236804  20.0355620  50.9968535  75.4015336  26.2008884  48.8398554
  75.6132231  26.8440644  48.1632935  75.3545084  25.3671201  48.3720484
  73.0041565  18.8126705  45.7435126  72.1426044  19.1107959  46.0351863
  73.0304000  19.0297104  44.8116158  69.8203134  27.3568896  42.1508931
  70.2841480  27.6356599  41.3613554  69.5559933  26.4552340  41.9682022
  66.7127215  26.9040377  45.0888695  67.2828573  27.3327645  44.4506179
  67.3035327  26.6222962  45.7872880  68.7572020  23.4792048  38.9598497
  69.4596064  23.9313092  39.4272423  68.4252649  22.8375867  39.5878390
  67.2052382  22.0703805  53.3349706  66.5751043  22.7520085  53.5685103
  67.0988470  21.9586886  52.3902844  62.4997354  21.7375601  44.2615630
  61.7096408  21.9933129  43.7855741  62.9908602  22.5523938  44.3667671
  76.5161164  29.0780840  47.0120911  77.3378608  28.6761027  46.7303593
  76.5123567  28.9749074  47.9637027  64.4512100  22.1020180  41.2199107
  63.6543263  22.2138874  41.7382603  64.2237692  22.4406832  40.3539997
  70.2817767  28.6264883  49.1681621  70.3462200  29.0885290  50.0039793
  69.5728691  27.9962248  49.2963931  60.7835057  21.9906091  46.6930621
  61.0343096  22.8753101  46.9588197  61.3194606  21.8110693  45.9205713
  84.6067157  25.4219588  43.3605882  83.8530865  24.8526986  43.2049887
  84.7414698  25.3882253  44.3076517  69.9965785  30.2932991  39.0360602
  69.8611460  31.1384526  39.4645450  70.5375598  30.4952268  38.2726536
  66.4833125  16.3724570  55.6974957  66.0900070  15.8190769  56.3722601
  67.2999265  16.6835149  56.0881475  63.4495182  27.8108429  39.6088527
  63.9619703  28.6051679  39.7594092  64.1017895  27.1134719  39.5422128
  65.2590067  30.9274185  41.6911280  65.4356696  31.8492150  41.5032264
  66.0546901  30.6132604  42.1205660  69.4001086  17.7882449  53.2895214
  70.1410799  18.3889603  53.2099676  69.6319009  17.0460087  52.7313256
  64.5442424  22.9738817  51.5673443  64.4295939  22.0724074  51.8680542
  63.6886941  23.2202514  51.2158260  71.6234261  30.9156557  53.1660944
  71.1798116  30.1292936  52.8481848  72.2851475  31.1035708  52.5004835
  66.3821383  32.4452359  47.6921622  66.9328808  32.3169422  46.9198616
  65.5432859  32.7447248  47.3416515  73.7215500  31.1959357  51.1942345
  73.7033975  32.0168238  50.7022614  74.6435420  31.0713432  51.4192486
  70.1788554  28.7103486  52.0365854  70.7116890  27.9491775  51.8065161
  69.6502635  28.4177138  52.7790008  73.3458249  13.8163552  47.5659495
  73.0022518  14.7065194  47.4898606  73.7137211  13.6265210  46.7029080
  61.4144099  26.1397083  40.3848097  62.2519321  26.5494091  40.1681805
  61.5922367  25.1996525  40.3548291  73.3108531  23.8072164  36.0731930
  72.7955155  24.5776768  36.3120318  73.0385840  23.1337300  36.6964992
  70.8955642  18.6521864  41.1317169  70.0397239  18.2628715  40.9522807
  71.3082594  18.7313825  40.2716954  72.4254789  16.1868208  45.5308729
  71.9219585  16.1498343  44.7176534  72.7185396  17.0960950  45.5905385
  68.6697675  16.2706937  44.5374910  69.5350672  16.0749746  44.1780800
  68.7375184  16.0417289  45.4644267  78.2842805  26.5604518  38.0085104
  77.5072248  26.2215678  37.5640266  78.9634286  26.5657141  37.3340069
  73.0994835  21.6799256  37.8991712  72.7944970  21.9945405  38.7501855
  74.0525277  21.7580676  37.9419045  71.5441266  27.8389479  39.5484666
  71.0162628  27.1042239  39.2357903  71.0428769  28.6164155  39.3024634
  76.5234112  26.0338499  44.6651712  75.8657787  26.7237761  44.7531840
  77.3274512  26.4234931  45.0085698  66.2759994  18.5009145  41.9091277
  66.8503746  18.2784327  41.1764470  66.8630976  18.5697840  42.6619878
  75.3339571  24.3882872  42.7155654  75.8471453  25.0212864  43.2177363
  75.9840795  23.7884068  42.3499014  66.6029581  20.5313606  35.9287162
  65.7666893  20.8688293  36.2496437  66.4634351  20.3962586  34.9914299
  68.5782662  15.3750394  40.6366346  67.9247074  15.0599411  40.0122961
  68.5363136  14.7526135  41.3626169  69.6893867  25.6569689  32.5519639
  68.7820928  25.4258943  32.7510788  70.1864899  24.8607308  32.7393620
  72.5961945  34.3667196  35.4716325  71.9223644  34.6698893  36.0801283
  72.9827767  35.1696277  35.1221782  71.8120402  21.8632328  44.9613994
  70.8942963  22.0847275  44.8035682  72.2280546  21.9378638  44.1025701
  72.5955450  23.2623743  40.0916674  73.3427269  23.7745141  39.7823796
  72.8647039  22.9407796  40.9521068  70.8682100  25.7582284  37.0743629
  69.9593319  25.4741317  37.1716098  70.8977184  26.1781363  36.2146936
  76.1001367  29.3688874  40.8434796  75.6463695  28.5279783  40.8999987
  75.4695334  30.0050272  41.1809576  75.0434287  20.2980860  42.0735464
  74.3057044  19.7858246  42.4045706  75.2961061  19.8581241  41.2618741
  74.5434307  31.2065370  41.7784614  74.8357281  31.7670427  41.0596980
  75.0532927  31.4993931  42.5337773  75.1445914  13.0757112  42.6677233
  75.4504791  12.2154475  42.3803148  75.8698519  13.6674732  42.4676227
  61.4370270  23.4787798  41.0558831  61.2394670  22.8857159  40.3309897
  60.8816934  23.1740008  41.7734770  69.4166994  23.3710905  43.1753424
  69.4715604  22.4184741  43.0995901  68.6058196  23.5270344  43.6594722
  70.5658188  27.2991028  34.4131707  70.1277618  26.5826887  33.9537345
  71.3068629  27.5267143  33.8516799  67.3559354  21.9887964  40.9343803
  66.5427220  22.2882135  41.3408995  67.8518348  21.5943653  41.6518285
  69.5067932  31.9845721  42.8678068  69.4644111  32.2106568  41.9386600
  70.4230631  31.7509096  43.0163869  72.9533566  22.4529789  49.7658697
  73.3082953  22.6801262  50.6253163  73.6005697  22.7848166  49.1435952
  78.6831303  25.5748225  40.4708026  78.5449201  25.7649821  39.5429215
  78.3267521  26.3367608  40.9276077  66.8473429  19.5606320  46.5505038
  67.4872808  19.4195079  45.8528001  66.0150959  19.2740833  46.1743640
  78.7100682  27.6424752  45.4819297  79.1437189  27.5500041  46.3302351
  79.4232263  27.6182252  44.8439313  67.6233733  28.8608750  42.6640030
  68.4174331  28.3659071  42.4622605  66.9125425  28.3326614  42.3007736
  72.4428577  31.2426846  47.0152398  72.4965599  31.8117782  47.7830114
  71.5743358  31.4128731  46.6506435  63.9316496  23.0051832  38.7399783
  63.0014084  22.9436288  38.9569745  64.0273968  22.4827785  37.9436424
  63.8502045  19.5306645  41.3278025  64.1108862  20.4451978  41.2187185
  64.6719217  19.0631088  41.4774637  65.3226970  20.9444402  48.4976849
  65.9950024  20.7361764  47.8489498  64.4956757  20.7466488  48.0582081
  79.5716232  27.6848452  48.0152183  79.7652122  28.5894263  48.2611458
  79.4716850  27.2255872  48.8490768  71.2252542  17.5706343  50.5142510
  70.5780458  18.2696293  50.4206986  71.9953558  18.0042487  50.8818758
  74.6331340  27.8355195  53.5893063  74.4816847  27.6065747  52.6723147
  74.6236020  28.7925797  53.6024408  71.4016677  25.4087108  48.5739330
  72.3308737  25.5598268  48.4008297  70.9807707  25.4971129  47.7187976
  70.2005009  29.4337772  46.3437867  70.0616094  29.0656557  47.2163805
  69.4119605  29.9485412  46.1721825  70.7953161  34.5346869  37.6863404
  70.9704916  34.0634912  38.5009027  70.1085949  35.1612635  37.9144665
  71.7510224  28.8119375  43.7326705  71.4160056  28.7720145  44.6284355
  71.2514169  28.1464091  43.2597115  65.7254468  24.2187005  49.2579286
  65.5874266  23.4867244  49.8590825  66.6359391  24.1295905  48.9763474
  74.6869415  26.1575409  34.0063765  74.0698586  25.4322238  33.9096817
  74.2185904  26.9184770  33.6630839  68.3536768  23.9306964  48.7462966
  69.0636387  23.2900157  48.7049584  68.3106077  24.1819859  49.6689147
  76.3423547  30.8674318  51.6669545  76.2836093  30.1833538  51.0000128
  76.7443065  31.6093308  51.2150171  67.0665702  20.9172182  50.5658605
  66.5303059  20.4662921  51.2180202  66.4782411  21.0518091  49.8229070
  65.3614246  37.6836232  44.4603264  65.6010844  38.3154756  45.1382283
  64.5183442  37.3324272  44.7468623  66.4767961  20.3760834  33.1285069
  65.5997428  20.2549634  32.7647316  66.9525714  19.5846912  32.8763958
  76.3440954  28.8313902  49.8983525  75.4567733  28.4939823  50.0209924
  76.9139505  28.0996933  50.1352290  57.9970101  25.1637993  43.2226576
  58.6841141  24.8499723  42.6347592  57.8418230  26.0679358  42.9493828
  62.8004824  20.0528190  47.6511600  62.7163012  19.4453860  46.9162010
  61.9787530  20.5437208  47.6521096  69.8742108  33.4915354  46.8644768
  69.8012279  34.2970326  47.3764073  69.4319501  33.6907320  46.0392789
  69.6631887  32.7287124  40.3747590  68.8799409  33.2708804  40.4685814
  70.3624633  33.2461104  40.7741831  72.9728537  18.5381754  43.0181795
  73.4697237  17.7851716  42.6982865  72.2015519  18.5746070  42.4525004
  80.8258295  24.2422119  44.6600086  80.8148171  25.1246834  44.2894020
  79.9575674  23.8893670  44.4654624  72.3340791  33.3902188  49.0202927
  73.0468763  34.0249653  48.9478828  71.8430820  33.4866054  48.2042929
  74.0558318  27.2953441  40.5920218  73.1214597  27.4154903  40.4224923
  74.2334987  26.3925908  40.3280228  69.5563506  20.6799137  42.7453480
  69.1861294  20.1270177  43.4334385  70.0522599  20.0757270  42.1928480
  77.4430870  23.1370760  41.1270253  77.9091322  23.9698752  41.0530555
  77.8938370  22.6715742  41.8315511  67.3852705  31.1396632  49.8408498
  68.0862164  31.7733114  49.9937892  66.9147820  31.4811363  49.0804137
  75.5107101  29.4814581  38.1256405  75.7866945  29.3671176  39.0350279
  74.6411599  29.0832066  38.0868578  75.4147532  15.5051347  45.1661154
  74.5010612  15.7355574  45.3343361  75.8440634  15.5889791  46.0175186
  75.1853991  23.6941239  47.6661048  74.5325441  23.9417146  47.0113501
  75.5634371  22.8805377  47.3323525  72.1461165  33.7300932  41.7689218
  72.3283559  32.9122588  42.2316971  72.9694151  33.9468624  41.3314108
  72.4803330  32.6569117  39.0304267  73.0091097  32.1461572  38.4174429
  72.7431550  32.3411647  39.8949800  71.2341564  24.4361050  54.1527085
  70.5582201  24.3355179  54.8229460  72.0569198  24.2800264  54.6163082
  62.9820423  30.6732987  46.7739600  63.5673860  29.9276674  46.9067504
  62.7845261  30.9836943  47.6576264  65.8359078  33.7084234  41.7902043
  65.1669453  34.1930362  41.3066083  65.6971948  33.9553454  42.7045421
  57.5738078  23.2438587  45.4944043  57.6122177  22.7102177  46.2881161
  57.0678370  22.7173792  44.8755021  69.9764347  35.7427977  48.3884701
  70.5282655  35.9059599  49.1533786  70.3170540  36.3332415  47.7164726
  64.9528840  18.0903127  48.9906586  65.0170166  18.9517958  48.5783983
  64.8895960  17.4777129  48.2578944  64.4281112  20.1626260  52.6379620
  65.0553151  19.7803337  53.2517144  63.5709031  19.9440462  53.0035312
  74.8275221  30.5689235  54.2433355  75.3715125  31.1819193  53.7488310
  74.2462066  31.1268813  54.7600368  61.2046655  21.9702689  38.5697975
  61.5000096  21.0613367  38.5165028  60.3034691  21.9490428  38.2478977
  73.1132734  33.6909953  45.3748383  72.9883873  32.8899693  44.8659329
  73.7711825  34.1856146  44.8862353  64.7340902  20.0458686  44.5525523
  64.0127488  20.6594653  44.4132997  65.5234158  20.5816450  44.4742169
  75.1767642  31.4918973  47.0027933  74.2297978  31.3724324  46.9306260
  75.5250415  30.6041471  47.0854195  67.5367216  17.3813112  50.8266175
  68.0601618  17.6275409  51.5892484  67.3179549  18.2133147  50.4069312
  62.9334497  19.6516787  38.6937300  62.6047203  18.7714166  38.5112406
  63.2873867  19.5964455  39.5813689  72.1814076  31.2871689  43.2032285
  72.0339038  30.3588397  43.3839855  73.0067569  31.3091780  42.7189361
  66.0476320  19.9389756  39.0612778  66.3872392  20.4675678  38.3391386
  66.4948440  20.2770163  39.8371344  75.7848197  32.1100248  44.2897158
  76.7094745  31.9043109  44.1521609  75.6163501  31.8616649  45.1986500
  68.7419761  18.3226807  48.5115846  68.4016581  17.5234620  48.9136526
  68.0358767  18.6228518  47.9392679  69.3936233  15.4076120  46.9643169
  70.2162302  14.9336598  46.8422059  69.6374296  16.1866603  47.4641855
  68.0344467  18.4364378  37.2606070  68.7552830  18.8145631  36.7569787
  67.4109771  19.1553255  37.3641048  72.1775590  19.1409527  38.1964403
  72.3939204  20.0234165  37.8953231  71.6969657  18.7495740  37.4670045
  66.9174811  22.0995240  44.7735147  66.7719392  22.4135543  45.6659429
  66.4400015  22.7180141  44.2206046  68.7771194  19.0897788  44.8216037
  68.7632763  18.1938881  44.4848335  69.4943622  19.0968452  45.4554323
  70.6297325  19.5235128  46.8669164  70.3715103  20.4452199  46.8653495
  70.0982365  19.1265563  47.5569628  75.5743514  32.6285915  39.6459250
  75.7480391  32.0632338  38.8933102  76.0672405  33.4286810  39.4638740
  61.3920473  24.6400585  47.7122808  60.8473942  25.4160393  47.8443083
  62.2699823  24.9871389  47.5541930  68.1808090  17.9712168  40.0903607
  68.3024001  17.0428815  40.2894494  67.8910133  17.9850854  39.1781922
  71.0499281  15.6567079  43.2270327  71.0720977  15.7206412  42.2722306
  71.4667340  14.8171588  43.4210833  81.4282905  25.3922338  41.2649549
  81.8714051  24.6429664  40.8668673  80.5509415  25.3832475  40.8823281
  76.5618686  31.9452680  36.7456148  77.2569591  32.5659373  36.9643463
  76.9041836  31.0948031  37.0208526  62.1786495  23.7670481  50.6052965
  61.4368231  23.9153116  51.1917596  61.8579240  24.0278746  49.7419715
  78.4610109  29.3952385  38.2743479  78.9861433  29.7339658  37.5492799
  78.3732462  28.4599401  38.0906613  70.1230158  33.3086459  50.4033355
  70.4317284  33.0635606  51.2756055  70.9205640  33.5133098  49.9152226
  70.1450770  35.4624369  42.6338732  69.7055760  34.9700747  43.3271589
  70.8958887  34.9197336  42.3930807  62.6243109  31.6535910  42.6363360
  63.4501129  31.3539681  42.2562003  62.2737161  30.8843532  43.0853149
  67.5924642  31.0062378  44.7061034  66.9704651  30.3433083  44.4063261
  68.2629509  31.0323510  44.0234681  60.8251714  29.5722236  43.5952294
  59.9883622  29.1444410  43.4136295  60.7975359  29.7654679  44.5323085
  67.6649170  19.4844166  54.2993540  67.7137325  20.3606289  53.9171309
  68.2071684  18.9421559  53.7265183  78.1504015  30.0285289  53.5794677
  77.3599559  30.0109428  53.0399176  77.9137370  30.5673583  54.3343713
  78.2701890  26.8777755  50.8927405  78.3199895  26.7127763  51.8342928
  78.1615814  26.0105014  50.5025286  67.1538149  29.5566301  38.1819494
  67.3026269  30.2401766  37.5286167  67.9604593  29.5371391  38.6968950
  75.5605653  22.8608683  52.2086712  76.4615516  22.7215148  51.9170710
  75.6353627  23.0263138  53.1484889  69.8948458  20.2375538  51.0539898
  69.0251768  20.5309104  50.7822487  70.1307938  20.8215983  51.7747162
  79.7720087  29.2974697  51.1369427  79.4804896  29.6604678  51.9732888
  79.1592219  28.5841705  50.9582759  80.9715770  26.8627577  43.6571997
  81.8062661  27.3017381  43.8209557  81.1074898  26.3866230  42.8380243
  78.0207275  24.4207312  49.6049485  78.4961397  24.6134958  48.7968336
  77.0972841  24.4766497  49.3592868  64.9090782  25.5831479  39.1880563
  64.6636824  24.6793809  39.3860773  65.0786697  25.5848629  38.2460041
  72.5987492  16.4555155  48.5705319  73.1169436  17.1916182  48.2451807
  72.2442625  16.7619148  49.4052078  64.1786430  21.3159836  36.6866724
  63.4855675  21.3904191  36.0306760  63.9338182  20.5520180  37.2088241
  72.8500086  12.8755438  44.0906215  73.1301840  12.2078627  44.7166642
  73.6350693  13.0684533  43.5780879  70.6533555  32.0514432  35.6531242
  70.0807522  32.6704619  35.2001713  71.2266348  32.6013793  36.1871163
  76.7208944  21.2973072  47.8377790  77.6726367  21.3971169  47.8590014
  76.5512395  20.5051340  48.3475875  74.7423324  18.3828655  48.0237191
  74.1473256  18.6633668  47.3283680  74.4573021  18.8722556  48.7953932
  73.8730814  32.3351582  36.7839824  74.8061488  32.2697143  36.9872699
  73.7854027  33.1707849  36.3254356  76.5018831  31.6517452  33.7443771
  76.4232463  31.3177316  34.6379529  77.3228498  32.1439220  33.7435244
  79.1997022  24.5179191  46.9520090  79.1673342  23.5795192  47.1379774
  79.8097646  24.5963228  46.2185915  71.0380353  23.3875244  32.9947294
  71.9839458  23.2581452  33.0635712  70.6594598  22.6489906  33.4716722
  79.3491511  21.3090235  46.9978373  78.8330559  20.5248691  46.8108302
  80.2331459  20.9808951  47.1624893  77.0102238  15.0531250  42.9574186
  76.8127059  14.7446339  43.8417518  77.6201943  15.7792889  43.0872116
  85.0173572  25.5795198  46.0926127  85.7476961  25.3180486  46.6533830
  84.4080518  24.8423920  46.1328195  83.0988869  23.7203061  46.6900578
  82.3722033  23.5859026  46.0817070  82.6836156  24.0279889  47.4957296
  70.9219046  27.4392990  54.4547951  71.8422055  27.6171589  54.6487998
  70.8868629  26.4949036  54.3027650  69.2223270  21.3125221  32.9302179
  68.3154726  21.0158333  33.0064893  69.4999251  21.0155039  32.0636465
  60.1401211  22.6331584  43.3801226  59.8203995  21.7796892  43.0875600
  59.5934639  22.8480162  44.1359193  63.9181118  25.3494025  47.0970732
  64.1367128  26.2811133  47.1158766  64.3306892  24.9902000  47.8825536
  70.8385336  15.8562110  39.0846421  70.0286064  15.5109195  39.4601667
  71.5269753  15.5469654  39.6734032  72.7675884  14.9340157  40.7070717
  73.3206923  15.3535611  41.3660740  73.0045971  14.0075905  40.7493673
  68.7908984  20.9227231  56.4873481  68.6905710  21.8721588  56.4185572
  68.5730526  20.5945470  55.6149551  67.9922055  18.1712156  33.0714158
  68.8541219  18.4967054  33.3309976  68.1772399  17.3843652  32.5587224
  60.0089471  26.2534496  45.3494347  59.3152942  25.8388448  44.8364302
  60.7562462  26.2955032  44.7527766  76.1454691  17.0440682  40.2149381
  75.5653360  17.7025486  39.8327434  75.8790624  16.2218027  39.8036799
  74.5958258  16.4445740  42.4170702  75.0958036  16.5562275  41.6085021
  75.2393866  16.1406793  43.0571510  68.6540254  24.3524370  55.3038543
  68.1707335  25.1524730  55.5102432  68.7401193  24.3632315  54.3505987
  61.9226213  26.1852749  43.2260362  61.8996901  26.2840437  42.2742245
  62.2326850  27.0317900  43.5477528  64.5813591  28.2428904  47.3406977
  65.5356845  28.2112847  47.2736908  64.3826115  27.7819528  48.1557202
  65.1712973  26.8130020  49.9077774  65.9905862  27.3074099  49.9312611
  65.4449781  25.8961989  49.8795342  74.9279569  19.2040773  39.2705730
  74.0405424  19.4890423  39.0525924  75.3433558  19.0434536  38.4233007
  78.2794106  19.2287294  42.9860069  79.0554496  19.7183746  43.2584686
  77.5542240  19.6545348  43.4431938  80.7166664  19.9414913  44.0434010
  81.3111155  19.7010649  43.3327318  80.7893248  19.2222044  44.6707546
  62.9363820  33.7848524  44.3577174  62.8018288  33.0248925  43.7915172
  62.5195882  34.5089424  43.8905963  74.0722783  28.9685447  33.3653750
  74.7758633  29.1735450  33.9811405  73.3485432  29.5362209  33.6302833
  74.9020593  24.7195309  39.4856020  74.8455795  25.1763860  38.6463652
  75.4548936  23.9585993  39.3078863  78.7125399  20.5085041  40.3106139
  78.4562333  20.1081676  41.1414347  78.0878267  21.2228835  40.1856279
  83.0237737  23.2481114  42.8177431  82.4637295  23.3174303  43.5908993
  82.4181240  23.0722098  42.0976927  66.0932946  34.6817841  44.5695617
  65.9765330  35.6263273  44.4674307  65.2725392  34.3791402  44.9581416
  75.9809480  29.4067977  35.4152210  76.8155084  28.9749175  35.2329685
  75.8193823  29.2349990  36.3429104  75.6355372  25.9100090  36.7808549
  75.5804176  25.7444361  35.8396993  75.0101428  26.6176123  36.9370739
  60.4247887  21.1468154  50.6069971  61.0706751  20.6367108  51.0957196
  60.2165039  21.8836836  51.1813397  72.9501280  28.2149002  56.1062112
  73.8192439  28.3889654  55.7448747  72.4708031  29.0343419  55.9837841
  68.9451498  15.4108199  36.3593867  68.9330168  16.3550039  36.5162138
  69.8374920  15.2278344  36.0653329  67.1187460  35.3346103  47.7851545
  68.0214707  35.3669713  48.1018040  66.8924830  34.4046554  47.7997881
  68.8741062  34.0877089  44.4461624  67.9236693  34.0878951  44.3325996
  69.1773548  33.3409824  43.9297659  72.7603617  12.0050976  40.6139804
  71.9936013  11.4509462  40.7596487  73.1714322  12.0772844  41.4753956
  64.7645378  18.2935771  54.7044985  65.6276840  17.9372576  54.9148310
  64.1910789  17.9549666  55.3920390  84.6093755  39.9237628  45.5107386
  85.2472165  39.8044375  44.8070727  84.4914598  40.8718472  45.5695339
  81.4183462  39.8765056  45.4468911  81.0801973  39.7606121  44.5589446
  82.2873230  39.4756221  45.4269917  77.2770277  41.7300532  41.4365802
  76.7135142  41.6390469  40.6682090  77.1622672  40.9100437  41.9168295
  81.9003245  41.0299908  51.4055117  81.8891885  40.6352706  50.5335620
  82.0623884  40.2965980  51.9988888  74.8234709  43.2251724  44.2750023
  75.6156001  42.8842549  43.8596322  75.0631359  43.3346699  45.1952176
  82.8569836  45.3971500  36.7480267  82.2057816  45.9825580  36.3614281
  83.6514199  45.9277695  36.8075305  76.7825463  42.4860637  37.1467401
  77.5556339  41.9389624  37.0080277  77.1350862  43.3504886  37.3581863
  78.6210506  43.8137019  50.3534301  78.3300372  44.7182650  50.2380967
  79.2567490  43.8553547  51.0678370  79.5466713  41.1913868  46.9435660
  80.1430285  40.9669890  46.2292623  79.6041684  40.4498613  47.5461108
  79.1191741  38.6453303  34.7785851  79.3717262  38.1234825  34.0169314
  78.1816300  38.4819449  34.8812535  84.1635024  37.6489082  42.5860595
  84.9498113  37.2308505  42.2351012  84.4273728  38.5535174  42.7542243
  84.3345101  43.0861932  37.2849251  83.6990934  43.1596558  37.9970156
  84.0042508  43.6755531  36.6068331  89.5643451  37.5864315  43.4893573
  90.2968623  37.0163532  43.7231403  88.8082807  37.1985915  43.9300079
  78.8388030  40.5481409  36.9810226  78.7224288  39.8726313  37.6491311
  78.9490290  40.0613783  36.1642379  81.1819571  40.0091556  40.6856915
  80.8177778  39.4822177  41.3969837  82.0386687  39.6190025  40.5123401
  87.0868871  31.2985889  47.9488182  86.7552196  32.1681300  47.7249397
  86.4914485  30.9822173  48.6282212  80.8225058  35.0381456  35.6818264
  80.9899460  35.9061692  36.0488735  80.6322227  35.2008738  34.7579553
  83.5800391  43.4998435  47.3484094  83.2801114  44.4023474  47.2399902
  83.2351450  43.2330618  48.2005247  77.0312872  39.9512232  43.3820799
  76.1063369  39.8188446  43.5898491  77.2797286  40.7306451  43.8790741
  86.9797535  36.0180975  45.0281532  86.0714412  35.9496384  44.7340293
  86.9285130  36.4952920  45.8563357  80.8014279  37.4939114  36.6664931
  80.6813904  37.9396164  37.5050411  80.1066867  37.8424431  36.1078469
  74.3921683  39.5945505  44.2164588  74.5214065  39.8479984  45.1304000
  73.7119135  40.1873213  43.8969243  78.5621171  50.2642755  40.3155062
  78.4845200  51.2150580  40.3943543  77.9582814  49.9188628  40.9729988
  81.0538400  37.4370621  52.9716429  80.2771734  37.9964541  52.9619294
  81.6928963  37.9227404  53.4931299  88.8459181  34.2197414  46.8059406
  88.2033561  34.5129947  46.1599200  88.3414110  34.1050334  47.6112602
  86.4999345  37.9660587  37.4945265  87.4117201  38.1987973  37.3192962
  85.9908992  38.5497631  36.9320343  79.3084773  40.2456074  52.5334396
  80.0499457  40.7841118  52.2569220  78.6021758  40.8722363  52.6905948
  84.7840112  42.3885215  51.1306557  85.1923468  41.9467625  50.3861190
  84.0617374  41.8137842  51.3840750  81.1371182  37.3257821  48.5040114
  81.9832378  37.7497235  48.6474763  81.0769820  36.6691446  49.1978678
  85.1068927  42.9486405  44.8858846  84.4777789  43.1132119  44.1834914
  84.7194589  43.3628015  45.6569810  88.9858159  43.8840843  42.2403210
  88.3009197  44.2639744  41.6900243  89.0702008  44.4936170  42.9735158
  84.2870628  34.9862190  50.1621288  84.0431560  35.7404250  49.6255564
  84.5630558  35.3647537  50.9968535  86.2409091  41.5300802  48.8398554
  86.4525986  42.1732562  48.1632935  86.1938839  40.6963119  48.3720484
  83.8435319  34.1418623  45.7435126  82.9819799  34.4399876  46.0351863
  83.8697754  34.3589022  44.8116158  80.6596889  42.6860813  42.1508931
  81.1235234  42.9648516  41.3613554  80.3953687  41.7844258  41.9682022
  77.5520970  42.2332295  45.0888695  78.1222327  42.6619563  44.4506179
  78.1429082  41.9514879  45.7872880  79.5965775  38.8083966  38.9598497
  80.2989818  39.2605009  39.4272423  79.2646403  38.1667784  39.5878390
  78.0446136  37.3995722  53.3349706  77.4144797  38.0812003  53.5685103
  77.9382224  37.2878804  52.3902844  73.3391109  37.0667518  44.2615630
  72.5490163  37.3225047  43.7855741  73.8302356  37.8815856  44.3667671
  87.3554918  44.4072757  47.0120911  88.1772362  44.0052945  46.7303593
  87.3517321  44.3040992  47.9637027  75.2905854  37.4312098  41.2199107
  74.4937018  37.5430792  41.7382603  75.0631446  37.7698750  40.3539997
  81.1211522  43.9556801  49.1681621  81.1855954  44.4177208  50.0039793
  80.4122446  43.3254166  49.2963931  71.6228812  37.3198009  46.6930621
  71.8736850  38.2045019  46.9588197  72.1588360  37.1402610  45.9205713
  95.4460912  40.7511506  43.3605882  94.6924620  40.1818904  43.2049887
  95.5808453  40.7174170  44.3076517  80.8359540  45.6224908  39.0360602
  80.7005214  46.4676444  39.4645450  81.3769352  45.8244186  38.2726536
  77.3226879  31.7016488  55.6974957  76.9293825  31.1482687  56.3722601
  78.1393020  32.0127067  56.0881475  74.2888937  43.1400346  39.6088527
  74.8013458  43.9343597  39.7594092  74.9411650  42.4426637  39.5422128
  76.0983822  46.2566103  41.6911280  76.2750450  47.1784067  41.5032264
  76.8940655  45.9424522  42.1205660  80.2394840  33.1174367  53.2895214
  80.9804554  33.7181520  53.2099676  80.4712763  32.3752005  52.7313256
  75.3836178  38.3030734  51.5673443  75.2689693  37.4015992  51.8680542
  74.5280696  38.5494431  51.2158260  82.4628016  46.2448475  53.1660944
  82.0191870  45.4584853  52.8481848  83.1245230  46.4327625  52.5004835
  77.2215137  47.7744276  47.6921622  77.7722562  47.6461340  46.9198616
  76.3826613  48.0739165  47.3416515  84.5609254  46.5251275  51.1942345
  84.5427729  47.3460156  50.7022614  85.4829174  46.4005350  51.4192486
  81.0182308  44.0395404  52.0365854  81.5510645  43.2783692  51.8065161
  80.4896389  43.7469056  52.7790008  84.1852003  29.1455470  47.5659495
  83.8416273  30.0357112  47.4898606  84.5530966  28.9557128  46.7029080
  72.2537854  41.4689001  40.3848097  73.0913076  41.8786009  40.1681805
  72.4316121  40.5288443  40.3548291  84.1502286  39.1364081  36.0731930
  83.6348909  39.9068686  36.3120318  83.8779594  38.4629217  36.6964992
  81.7349397  33.9813782  41.1317169  80.8790993  33.5920632  40.9522807
  82.1476349  34.0605743  40.2716954  83.2648544  31.5160125  45.5308729
  82.7613339  31.4790260  44.7176534  83.5579150  32.4252868  45.5905385
  79.5091429  31.5998855  44.5374910  80.3744426  31.4041664  44.1780800
  79.5768938  31.3709207  45.4644267  89.1236560  41.8896436  38.0085104
  88.3466003  41.5507595  37.5640266  89.8028041  41.8949059  37.3340069
  83.9388589  37.0091173  37.8991712  83.6338725  37.3237322  38.7501855
  84.8919031  37.0872593  37.9419045  82.3835021  43.1681397  39.5484666
  81.8556382  42.4334156  39.2357903  81.8822524  43.9456073  39.3024634
  87.3627867  41.3630417  44.6651712  86.7051541  42.0529679  44.7531840
  88.1668266  41.7526849  45.0085698  77.1153748  33.8301063  41.9091277
  77.6897500  33.6076244  41.1764470  77.7024731  33.8989757  42.6619878
  86.1733326  39.7174790  42.7155654  86.6865207  40.3504782  43.2177363
  86.8234550  39.1175985  42.3499014  77.4423336  35.8605524  35.9287162
  76.6060648  36.1980210  36.2496437  77.3028105  35.7254504  34.9914299
  79.4176416  30.7042312  40.6366346  78.7640829  30.3891329  40.0122961
  79.3756890  30.0818052  41.3626169  80.5287621  40.9861607  32.5519639
  79.6214683  40.7550860  32.7510788  81.0258653  40.1899226  32.7393620
  83.4355700  49.6959114  35.4716325  82.7617399  49.9990811  36.0801283
  83.8221522  50.4988194  35.1221782  82.6514157  37.1924245  44.9613994
  81.7336718  37.4139192  44.8035682  83.0674300  37.2670556  44.1025701
  83.4349204  38.5915661  40.0916674  84.1821023  39.1037058  39.7823796
  83.7040794  38.2699714  40.9521068  81.7075854  41.0874202  37.0743629
  80.7987074  40.8033235  37.1716098  81.7370938  41.5073280  36.2146936
  86.9395122  44.6980791  40.8434796  86.4857449  43.8571701  40.8999987
  86.3089089  45.3342190  41.1809576  85.8828041  35.6272777  42.0735464
  85.1450798  35.1150163  42.4045706  86.1354815  35.1873159  41.2618741
  85.3828061  46.5357288  41.7784614  85.6751036  47.0962345  41.0596980
  85.8926682  46.8285849  42.5337773  85.9839669  28.4049029  42.6677233
  86.2898546  27.5446393  42.3803148  86.7092274  28.9966649  42.4676227
  72.2764025  38.8079716  41.0558831  72.0788425  38.2149077  40.3309897
  71.7210689  38.5031926  41.7734770  80.2560749  38.7002822  43.1753424
  80.3109358  37.7476659  43.0995901  79.4451951  38.8562261  43.6594722
  81.4051942  42.6282945  34.4131707  80.9671372  41.9118804  33.9537345
  82.1462383  42.8559060  33.8516799  78.1953108  37.3179882  40.9343803
  77.3820974  37.6174053  41.3408995  78.6912103  36.9235571  41.6518285
  80.3461686  47.3137639  42.8678068  80.3037865  47.5398485  41.9386600
  81.2624385  47.0801014  43.0163869  83.7927320  37.7821707  49.7658697
  84.1476708  38.0093180  50.6253163  84.4399451  38.1140083  49.1435952
  89.5225057  40.9040142  40.4708026  89.3842956  41.0941738  39.5429215
  89.1661276  41.6659525  40.9276077  77.6867183  34.8898238  46.5505038
  78.3266563  34.7486997  45.8528001  76.8544714  34.6032751  46.1743640
  89.5494437  42.9716669  45.4819297  89.9830943  42.8791959  46.3302351
  90.2626017  42.9474170  44.8439313  78.4627487  44.1900668  42.6640030
  79.2568086  43.6950988  42.4622605  77.7519180  43.6618531  42.3007736
  83.2822332  46.5718764  47.0152398  83.3359354  47.1409700  47.7830114
  82.4137113  46.7420649  46.6506435  74.7710251  38.3343750  38.7399783
  73.8407839  38.2728205  38.9569745  74.8667723  37.8119703  37.9436424
  74.6895800  34.8598563  41.3278025  74.9502617  35.7743896  41.2187185
  75.5112972  34.3923005  41.4774637  76.1620725  36.2736320  48.4976849
  76.8343778  36.0653682  47.8489498  75.3350511  36.0758406  48.0582081
  90.4109986  43.0140370  48.0152183  90.6045876  43.9186181  48.2611458
  90.3110604  42.5547789  48.8490768  82.0646297  32.8998261  50.5142510
  81.4174212  33.5988210  50.4206986  82.8347312  33.3334405  50.8818758
  85.4725095  43.1647113  53.5893063  85.3210601  42.9357665  52.6723147
  85.4629774  44.1217714  53.6024408  82.2410431  40.7379026  48.5739330
  83.1702491  40.8890185  48.4008297  81.8201461  40.8263046  47.7187976
  81.0398763  44.7629690  46.3437867  80.9009849  44.3948474  47.2163805
  80.2513359  45.2777329  46.1721825  81.6346915  49.8638786  37.6863404
  81.8098671  49.3926830  38.5009027  80.9479703  50.4904553  37.9144665
  82.5903978  44.1411293  43.7326705  82.2553811  44.1012063  44.6284355
  82.0907924  43.4756009  43.2597115  76.5648222  39.5478923  49.2579286
  76.4268020  38.8159162  49.8590825  77.4753146  39.4587823  48.9763474
  85.5263170  41.4867327  34.0063765  84.9092341  40.7614155  33.9096817
  85.0579658  42.2476687  33.6630839  79.1930523  39.2598882  48.7462966
  79.9030141  38.6192074  48.7049584  79.1499831  39.5111777  49.6689147
  87.1817302  46.1966235  51.6669545  87.1229848  45.5125456  51.0000128
  87.5836820  46.9385225  51.2150171  77.9059457  36.2464100  50.5658605
  77.3696814  35.7954838  51.2180202  77.3176165  36.3810009  49.8229070
  77.3161716  35.7052751  33.1285069  76.4391182  35.5841552  32.7647316
  77.7919469  34.9138830  32.8763958  87.1834709  44.1605819  49.8983525
  86.2961488  43.8231741  50.0209924  87.7533260  43.4288851  50.1352290
  68.8363856  40.4929911  43.2226576  69.5234896  40.1791641  42.6347592
  68.6811985  41.3971276  42.9493828  73.6398578  35.3820108  47.6511600
  73.5556767  34.7745777  46.9162010  72.8181285  35.8729126  47.6521096
  80.7135862  48.8207272  46.8644768  80.6406034  49.6262243  47.3764073
  80.2713255  49.0199238  46.0392789  80.5025642  48.0579042  40.3747590
  79.7193164  48.6000722  40.4685814  81.2018387  48.5753021  40.7741831
  83.8122292  33.8673671  43.0181795  84.3090992  33.1143634  42.6982865
  83.0409273  33.9037988  42.4525004  91.6652049  39.5714037  44.6600086
  91.6541926  40.4538752  44.2894020  90.7969429  39.2185588  44.4654624
  83.1734546  48.7194106  49.0202927  83.8862518  49.3541571  48.9478828
  82.6824574  48.8157972  48.2042929  84.8952073  42.6245358  40.5920218
  83.9608351  42.7446821  40.4224923  85.0728741  41.7217825  40.3280228
  80.3957261  36.0091054  42.7453480  80.0255048  35.4562095  43.4334385
  80.8916353  35.4049188  42.1928480  88.2824624  38.4662678  41.1270253
  88.7485076  39.2990669  41.0530555  88.7332125  38.0007659  41.8315511
  78.2246459  46.4688549  49.8408498  78.9255919  47.1025032  49.9937892
  77.7541574  46.8103281  49.0804137  86.3500855  44.8106499  38.1256405
  86.6260699  44.6963094  39.0350279  85.4805354  44.4123984  38.0868578
  86.2541287  30.8343265  45.1661154  85.3404367  31.0647492  45.3343361
  86.6834388  30.9181709  46.0175186  86.0247745  39.0233157  47.6661048
  85.3719195  39.2709064  47.0113501  86.4028125  38.2097295  47.3323525
  82.9854919  49.0592850  41.7689218  83.1677314  48.2414506  42.2316971
  83.8087905  49.2760542  41.3314108  83.3197085  47.9861035  39.0304267
  83.8484851  47.4753490  38.4174429  83.5825304  47.6703565  39.8949800
  82.0735318  39.7652968  54.1527085  81.3975955  39.6647097  54.8229460
  82.8962952  39.6092181  54.6163082  73.8214177  46.0024904  46.7739600
  74.4067614  45.2568592  46.9067504  73.6239016  46.3128861  47.6576264
  76.6752833  49.0376152  41.7902043  76.0063208  49.5222279  41.3066083
  76.5365702  49.2845372  42.7045421  68.4131832  38.5730504  45.4944043
  68.4515932  38.0394095  46.2881161  67.9072125  38.0465710  44.8755021
  80.8158101  51.0719895  48.3884701  81.3676409  51.2351517  49.1533786
  81.1564295  51.6624333  47.7164726  75.7922594  33.4195045  48.9906586
  75.8563921  34.2809876  48.5783983  75.7289715  32.8069047  48.2578944
  75.2674867  35.4918178  52.6379620  75.8946906  35.1095255  53.2517144
  74.4102786  35.2732379  53.0035312  85.6668975  45.8981153  54.2433355
  86.2108879  46.5111111  53.7488310  85.0855820  46.4560731  54.7600368
  72.0440410  37.2994607  38.5697975  72.3393851  36.3905285  38.5165028
  71.1428445  37.2782346  38.2478977  83.9526488  49.0201871  45.3748383
  83.8277628  48.2191611  44.8659329  84.6105580  49.5148064  44.8862353
  75.5734657  35.3750603  44.5525523  74.8521242  35.9886571  44.4132997
  76.3627912  35.9108368  44.4742169  86.0161397  46.8210891  47.0027933
  85.0691732  46.7016242  46.9306260  86.3644170  45.9333389  47.0854195
  78.3760970  32.7105030  50.8266175  78.8995372  32.9567326  51.5892484
  78.1573303  33.5425065  50.4069312  73.7728251  34.9808704  38.6937300
  73.4440957  34.1006083  38.5112406  74.1267622  34.9256373  39.5813689
  83.0207830  46.6163607  43.2032285  82.8732793  45.6880314  43.3839855
  83.8461324  46.6383698  42.7189361  76.8870074  35.2681674  39.0612778
  77.2266147  35.7967595  38.3391386  77.3342195  35.6062080  39.8371344
  86.6241952  47.4392166  44.2897158  87.5488499  47.2335027  44.1521609
  86.4557255  47.1908567  45.1986500  79.5813515  33.6518725  48.5115846
  79.2410336  32.8526538  48.9136526  78.8752521  33.9520436  47.9392679
  80.2329987  30.7368037  46.9643169  81.0556056  30.2628515  46.8422059
  80.4768051  31.5158521  47.4641855  78.8738222  33.7656296  37.2606070
  79.5946584  34.1437548  36.7569787  78.2503526  34.4845172  37.3641048
  83.0169344  34.4701445  38.1964403  83.2332959  35.3526083  37.8953231
  82.5363412  34.0787658  37.4670045  77.7568566  37.4287158  44.7735147
  77.6113147  37.7427461  45.6659429  77.2793769  38.0472058  44.2206046
  79.6164949  34.4189706  44.8216037  79.6026517  33.5230799  44.4848335
  80.3337377  34.4260370  45.4554323  81.4691079  34.8527046  46.8669164
  81.2108857  35.7744117  46.8653495  80.9376120  34.4557481  47.5569628
  86.4137268  47.9577833  39.6459250  86.5874146  47.3924256  38.8933102
  86.9066159  48.7578728  39.4638740  72.2314228  39.9692502  47.7122808
  71.6867696  40.7452310  47.8443083  73.1093578  40.3163307  47.5541930
  79.0201845  33.3004086  40.0903607  79.1417756  32.3720732  40.2894494
  78.7303887  33.3142772  39.1781922  81.8893035  30.9858997  43.2270327
  81.9114732  31.0498330  42.2722306  82.3061094  30.1463505  43.4210833
  92.2676659  40.7214256  41.2649549  92.7107805  39.9721581  40.8668673
  91.3903170  40.7124392  40.8823281  87.4012441  47.2744598  36.7456148
  88.0963345  47.8951290  36.9643463  87.7435591  46.4239949  37.0208526
  73.0180250  39.0962399  50.6052965  72.2761986  39.2445034  51.1917596
  72.6972994  39.3570664  49.7419715  89.3003864  44.7244303  38.2743479
  89.8255188  45.0631576  37.5492799  89.2126216  43.7891318  38.0906613
  80.9623912  48.6378377  50.4033355  81.2711039  48.3927524  51.2756055
  81.7599394  48.8425015  49.9152226  80.9844525  50.7916286  42.6338732
  80.5449515  50.2992665  43.3271589  81.7352641  50.2489254  42.3930807
  73.4636864  46.9827827  42.6363360  74.2894883  46.6831599  42.2562003
  73.1130915  46.2135450  43.0853149  78.4318397  46.3354295  44.7061034
  77.8098406  45.6725000  44.4063261  79.1023264  46.3615427  44.0234681
  71.6645469  44.9014154  43.5952294  70.8277377  44.4736328  43.4136295
  71.6369114  45.0946597  44.5323085  78.5042924  34.8136083  54.2993540
  78.5531080  35.6898206  53.9171309  79.0465438  34.2713477  53.7265183
  88.9897770  45.3577207  53.5794677  88.1993314  45.3401346  53.0399176
  88.7531124  45.8965500  54.3343713  89.1095645  42.2069673  50.8927405
  89.1593650  42.0419681  51.8342928  89.0009568  41.3396932  50.5025286
  77.9931904  44.8858219  38.1819494  78.1420024  45.5693683  37.5286167
  78.7998347  44.8663309  38.6968950  86.3999407  38.1900601  52.2086712
  87.3009270  38.0507066  51.9170710  86.4747382  38.3555056  53.1484889
  80.7342213  35.5667456  51.0539898  79.8645522  35.8601022  50.7822487
  80.9701693  36.1507901  51.7747162  90.6113842  44.6266615  51.1369427
  90.3198650  44.9896595  51.9732888  89.9985973  43.9133623  50.9582759
  91.8109524  42.1919494  43.6571997  92.6456415  42.6309298  43.8209557
  91.9468653  41.7158148  42.8380243  88.8601030  39.7499229  49.6049485
  89.3355152  39.9426876  48.7968336  87.9366595  39.8058415  49.3592868
  75.7484537  40.9123396  39.1880563  75.5030579  40.0085726  39.3860773
  75.9180451  40.9140547  38.2460041  83.4381246  31.7847073  48.5705319
  83.9563190  32.5208100  48.2451807  83.0836379  32.0911066  49.4052078
  75.0180184  36.6451754  36.6866724  74.3249429  36.7196109  36.0306760
  74.7731936  35.8812098  37.2088241  83.6893841  28.2047355  44.0906215
  83.9695594  27.5370544  44.7166642  84.4744448  28.3976451  43.5780879
  81.4927309  47.3806349  35.6531242  80.9201276  47.9996536  35.2001713
  82.0660103  47.9305711  36.1871163  87.5602699  36.6264989  47.8377790
  88.5120122  36.7263087  47.8590014  87.3906149  35.8343258  48.3475875
  85.5817078  33.7120573  48.0237191  84.9867011  33.9925585  47.3283680
  85.2966775  34.2014473  48.7953932  84.7124569  47.6643499  36.7839824
  85.6455242  47.5989061  36.9872699  84.6247782  48.4999766  36.3254356
  87.3412586  46.9809370  33.7443771  87.2626217  46.6469233  34.6379529
  88.1622252  47.4731138  33.7435244  90.0390777  39.8471109  46.9520090
  90.0067097  38.9087110  47.1379774  90.6491400  39.9255146  46.2185915
  81.8774108  38.7167162  32.9947294  82.8233212  38.5873370  33.0635712
  81.4988353  37.9781824  33.4716722  90.1885265  36.6382152  46.9978373
  89.6724314  35.8540609  46.8108302  91.0725214  36.3100869  47.1624893
  87.8495992  30.3823168  42.9574186  87.6520813  30.0738256  43.8417518
  88.4595698  31.1084807  43.0872116  95.8567327  40.9087116  46.0926127
  96.5870715  40.6472404  46.6533830  95.2474272  40.1715838  46.1328195
  93.9382624  39.0494978  46.6900578  93.2115787  38.9150943  46.0817070
  93.5229911  39.3571807  47.4957296  81.7612800  42.7684908  54.4547951
  82.6815810  42.9463507  54.6487998  81.7262383  41.8240953  54.3027650
  80.0617025  36.6417138  32.9302179  79.1548480  36.3450251  33.0064893
  80.3393006  36.3446956  32.0636465  70.9794965  37.9623502  43.3801226
  70.6597749  37.1088810  43.0875600  70.4328393  38.1772080  44.1359193
  74.7574873  40.6785943  47.0970732  74.9760882  41.6103051  47.1158766
  75.1700647  40.3193917  47.8825536  81.6779090  31.1854028  39.0846421
  80.8679819  30.8401113  39.4601667  82.3663507  30.8761572  39.6734032
  83.6069639  30.2632075  40.7070717  84.1600677  30.6827528  41.3660740
  83.8439725  29.3367823  40.7493673  79.6302738  36.2519149  56.4873481
  79.5299465  37.2013506  56.4185572  79.4124280  35.9237387  55.6149551
  78.8315809  33.5004074  33.0714158  79.6934973  33.8258972  33.3309976
  79.0166154  32.7135570  32.5587224  70.8483225  41.5826413  45.3494347
  70.1546697  41.1680366  44.8364302  71.5956216  41.6246950  44.7527766
  86.9848446  32.3732600  40.2149381  86.4047115  33.0317404  39.8327434
  86.7184379  31.5509945  39.8036799  85.4352012  31.7737658  42.4170702
  85.9351791  31.8854192  41.6085021  86.0787620  31.4698711  43.0571510
  79.4934008  39.6816287  55.3038543  79.0101090  40.4816648  55.5102432
  79.5794947  39.6924232  54.3505987  72.7619968  41.5144667  43.2260362
  72.7390656  41.6132354  42.2742245  73.0720604  42.3609818  43.5477528
  75.4207346  43.5720822  47.3406977  76.3750599  43.5404764  47.2736908
  75.2219869  43.1111446  48.1557202  76.0106728  42.1421938  49.9077774
  76.8299617  42.6366017  49.9312611  76.2843535  41.2253906  49.8795342
  85.7673324  34.5332690  39.2705730  84.8799179  34.8182341  39.0525924
  86.1827313  34.3726454  38.4233007  89.1187860  34.5579211  42.9860069
  89.8948250  35.0475664  43.2584686  88.3935994  34.9837266  43.4431938
  91.5560419  35.2706831  44.0434010  92.1504909  35.0302567  43.3327318
  91.6287002  34.5513961  44.6707546  73.7757574  49.1140442  44.3577174
  73.6412042  48.3540842  43.7915172  73.3589637  49.8381341  43.8905963
  84.9116537  44.2977365  33.3653750  85.6152387  44.5027368  33.9811405
  84.1879186  44.8654127  33.6302833  85.7414348  40.0487226  39.4856020
  85.6849549  40.5055778  38.6463652  86.2942690  39.2877911  39.3078863
  89.5519154  35.8376958  40.3106139  89.2956088  35.4373594  41.1414347
  88.9272022  36.5520752  40.1856279  93.8631491  38.5773032  42.8177431
  93.3031049  38.6466221  43.5908993  93.2574995  38.4014016  42.0976927
  76.9326700  50.0109759  44.5695617  76.8159084  50.9555191  44.4674307
  76.1119146  49.7083320  44.9581416  86.8203235  44.7359894  35.4152210
  87.6548839  44.3041093  35.2329685  86.6587578  44.5641908  36.3429104
  86.4749127  41.2392008  36.7808549  86.4197931  41.0736279  35.8396993
  85.8495182  41.9468041  36.9370739  71.2641642  36.4760072  50.6069971
  71.9100506  35.9659026  51.0957196  71.0558793  37.2128754  51.1813397
  83.7895034  43.5440920  56.1062112  84.6586194  43.7181572  55.7448747
  83.3101786  44.3635336  55.9837841  79.7845252  30.7400117  36.3593867
  79.7723922  31.6841957  36.5162138  80.6768674  30.5570262  36.0653329
  77.9581214  50.6638021  47.7851545  78.8608461  50.6961631  48.1018040
  77.7318584  49.7338471  47.7997881  79.7134816  49.4169007  44.4461624
  78.7630447  49.4170869  44.3325996  80.0167303  48.6701742  43.9297659
  83.5997372  27.3342893  40.6139804  82.8329768  26.7801380  40.7596487
  84.0108077  27.4064762  41.4753956  75.6039133  33.6227689  54.7044985
  76.4670594  33.2664494  54.9148310  75.0304544  33.2841584  55.3920390
  95.4487510  55.2529545  45.5107386  96.0865920  55.1336293  44.8070727
  95.3308353  56.2010389  45.5695339  92.2577216  55.2056974  45.4468911
  91.9195728  55.0898038  44.5589446  93.1266984  54.8048139  45.4269917
  88.1164032  57.0592450  41.4365802  87.5528897  56.9682387  40.6682090
  88.0016427  56.2392354  41.9168295  92.7396999  56.3591825  51.4055117
  92.7285640  55.9644624  50.5335620  92.9017639  55.6257898  51.9988888
  85.6628464  58.5543642  44.2750023  86.4549756  58.2134466  43.8596322
  85.9025114  58.6638617  45.1952176  93.6963591  60.7263418  36.7480267
  93.0451570  61.3117498  36.3614281  94.4907953  61.2569613  36.8075305
  87.6219218  57.8152555  37.1467401  88.3950094  57.2681542  37.0080277
  87.9744617  58.6796804  37.3581863  89.4604260  59.1428937  50.3534301
  89.1694126  60.0474568  50.2380967  90.0961245  59.1845465  51.0678370
  90.3860467  56.5205786  46.9435660  90.9824039  56.2961808  46.2292623
  90.4435439  55.7790531  47.5461108  89.9585496  53.9745221  34.7785851
  90.2111016  53.4526742  34.0169314  89.0210055  53.8111366  34.8812535
  95.0028778  52.9780999  42.5860595  95.7891868  52.5600422  42.2351012
  95.2667483  53.8827091  42.7542243  95.1738856  58.4153850  37.2849251
  94.5384689  58.4888476  37.9970156  94.8436262  59.0047448  36.6068331
 100.4037205  52.9156232  43.4893573 101.1362377  52.3455449  43.7231403
  99.6476561  52.5277833  43.9300079  89.6781784  55.8773327  36.9810226
  89.5618042  55.2018230  37.6491311  89.7884044  55.3905701  36.1642379
  92.0213325  55.3383474  40.6856915  91.6571532  54.8114095  41.3969837
  92.8780441  54.9481943  40.5123401  97.9262626  46.6277807  47.9488182
  97.5945951  47.4973218  47.7249397  97.3308239  46.3114091  48.6282212
  91.6618812  50.3673374  35.6818264  91.8293215  51.2353610  36.0488735
  91.4715981  50.5300655  34.7579553  94.4194145  58.8290353  47.3484094
  94.1194868  59.7315391  47.2399902  94.0745205  58.5622536  48.2005247
  87.8706627  55.2804149  43.3820799  86.9457123  55.1480364  43.5898491
  88.1191040  56.0598369  43.8790741  97.8191289  51.3472893  45.0281532
  96.9108166  51.2788301  44.7340293  97.7678885  51.8244838  45.8563357
  91.6408033  52.8231031  36.6664931  91.5207658  53.2688082  37.5050411
  90.9460621  53.1716349  36.1078469  85.2315438  54.9237423  44.2164588
  85.3607819  55.1771902  45.1304000  84.5512889  55.5165131  43.8969243
  89.4014925  65.5934673  40.3155062  89.3238955  66.5442498  40.3943543
  88.7976569  65.2480545  40.9729988  91.8932155  52.7662538  52.9716429
  91.1165489  53.3256459  52.9619294  92.5322718  53.2519321  53.4931299
  99.6852936  49.5489331  46.8059406  99.0427316  49.8421864  46.1599200
  99.1807864  49.4342252  47.6112602  97.3393099  53.2952504  37.4945265
  98.2510955  53.5279891  37.3192962  96.8302746  53.8789549  36.9320343
  90.1478527  55.5747992  52.5334396  90.8893212  56.1133036  52.2569220
  89.4415513  56.2014280  52.6905948  95.6233867  57.7177132  51.1306557
  96.0317223  57.2759543  50.3861190  94.9011128  57.1429760  51.3840750
  91.9764937  52.6549739  48.5040114  92.8226132  53.0789153  48.6474763
  91.9163575  51.9983363  49.1978678  95.9462682  58.2778323  44.8858846
  95.3171544  58.4424037  44.1834914  95.5588344  58.6919932  45.6569810
  99.8251913  59.2132761  42.2403210  99.1402952  59.5931662  41.6900243
  99.9095763  59.8228087  42.9735158  95.1264382  50.3154107  50.1621288
  94.8825314  51.0696168  49.6255564  95.4024313  50.6939455  50.9968535
  97.0802845  56.8592720  48.8398554  97.2919740  57.5024480  48.1632935
  97.0332593  56.0255036  48.3720484  94.6829074  49.4710540  45.7435126
  93.8213553  49.7691794  46.0351863  94.7091509  49.6880939  44.8116158
  91.4990643  58.0152731  42.1508931  91.9628989  58.2940434  41.3613554
  91.2347441  57.1136175  41.9682022  88.3914724  57.5624212  45.0888695
  88.9616082  57.9911481  44.4506179  88.9822836  57.2806797  45.7872880
  90.4359529  54.1375883  38.9598497  91.1383573  54.5896927  39.4272423
  90.1040158  53.4959702  39.5878390  88.8839891  52.7287640  53.3349706
  88.2538552  53.4103921  53.5685103  88.7775979  52.6170722  52.3902844
  84.1784863  52.3959436  44.2615630  83.3883917  52.6516964  43.7855741
  84.6696111  53.2107774  44.3667671  98.1948673  59.7364675  47.0120911
  99.0166117  59.3344862  46.7303593  98.1911076  59.6332909  47.9637027
  86.1299609  52.7604015  41.2199107  85.3330772  52.8722709  41.7382603
  85.9025201  53.0990667  40.3539997  91.9605276  59.2848718  49.1681621
  92.0249709  59.7469126  50.0039793  91.2516200  58.6546083  49.2963931
  82.4622566  52.6489926  46.6930621  82.7130605  53.5336936  46.9588197
  82.9982115  52.4694528  45.9205713 106.2854666  56.0803424  43.3605882
 105.5318374  55.5110822  43.2049887 106.4202207  56.0466088  44.3076517
  91.6753294  60.9516826  39.0360602  91.5398969  61.7968362  39.4645450
  92.2163107  61.1536104  38.2726536  88.1620634  47.0308406  55.6974957
  87.7687579  46.4774604  56.3722601  88.9786774  47.3418984  56.0881475
  85.1282691  58.4692264  39.6088527  85.6407212  59.2635514  39.7594092
  85.7805404  57.7718554  39.5422128  86.9377576  61.5858020  41.6911280
  87.1144204  62.5075985  41.5032264  87.7334410  61.2716439  42.1205660
  91.0788595  48.4466285  53.2895214  91.8198308  49.0473438  53.2099676
  91.3106518  47.7043923  52.7313256  86.2229933  53.6322652  51.5673443
  86.1083448  52.7307909  51.8680542  85.3674450  53.8786349  51.2158260
  88.0608892  63.1036194  47.6921622  88.6116317  62.9753257  46.9198616
  87.2220368  63.4031083  47.3416515  95.4003009  61.8543192  51.1942345
  95.3821484  62.6752073  50.7022614  96.3222929  61.7297268  51.4192486
  91.8576063  59.3687322  52.0365854  92.3904399  58.6075610  51.8065161
  91.3290144  59.0760974  52.7790008  95.0245758  44.4747388  47.5659495
  94.6810027  45.3649029  47.4898606  95.3924720  44.2849045  46.7029080
  83.0931608  56.7980918  40.3848097  83.9306830  57.2077927  40.1681805
  83.2709876  55.8580360  40.3548291  94.9896040  54.4655999  36.0731930
  94.4742664  55.2360604  36.3120318  94.7173349  53.7921135  36.6964992
  92.5743151  49.3105700  41.1317169  91.7184748  48.9212550  40.9522807
  92.9870103  49.3897660  40.2716954  94.1042298  46.8452043  45.5308729
  93.6007094  46.8082178  44.7176534  94.3972905  47.7544786  45.5905385
  90.3485184  46.9290773  44.5374910  91.2138181  46.7333581  44.1780800
  90.4162693  46.7001124  45.4644267  99.9630314  57.2188354  38.0085104
  99.1859757  56.8799513  37.5640266 100.6421795  57.2240977  37.3340069
  94.7782344  52.3383091  37.8991712  94.4732479  52.6529240  38.7501855
  95.7312786  52.4164511  37.9419045  93.2228775  58.4973314  39.5484666
  92.6950137  57.7626074  39.2357903  92.7216278  59.2747991  39.3024634
  98.2021621  56.6922335  44.6651712  97.5445296  57.3821596  44.7531840
  99.0062021  57.0818767  45.0085698  87.9547503  49.1592981  41.9091277
  88.5291255  48.9368162  41.1764470  88.5418485  49.2281675  42.6619878
  97.0127080  55.0466707  42.7155654  97.5258962  55.6796699  43.2177363
  97.6628304  54.4467903  42.3499014  88.2817090  51.1897442  35.9287162
  87.4454402  51.5272128  36.2496437  88.1421860  51.0546421  34.9914299
  90.2570171  46.0334229  40.6366346  89.6034583  45.7183247  40.0122961
  90.2150645  45.4109970  41.3626169  91.3681376  56.3153525  32.5519639
  90.4608437  56.0842778  32.7510788  91.8652408  55.5191144  32.7393620
  94.2749454  65.0251032  35.4716325  93.6011153  65.3282729  36.0801283
  94.6615276  65.8280112  35.1221782  93.4907911  52.5216163  44.9613994
  92.5730472  52.7431110  44.8035682  93.9068055  52.5962474  44.1025701
  94.2742959  53.9207579  40.0916674  95.0214778  54.4328976  39.7823796
  94.5434548  53.5991631  40.9521068  92.5469609  56.4166119  37.0743629
  91.6380828  56.1325152  37.1716098  92.5764693  56.8365198  36.2146936
  97.7788876  60.0272709  40.8434796  97.3251203  59.1863619  40.8999987
  97.1482843  60.6634107  41.1809576  96.7221796  50.9564695  42.0735464
  95.9844553  50.4442081  42.4045706  96.9748569  50.5165077  41.2618741
  96.2221816  61.8649206  41.7784614  96.5144790  62.4254263  41.0596980
  96.7320436  62.1577767  42.5337773  96.8233423  43.7340947  42.6677233
  97.1292300  42.8738310  42.3803148  97.5486028  44.3258567  42.4676227
  83.1157779  54.1371634  41.0558831  82.9182179  53.5440994  40.3309897
  82.5604443  53.8323844  41.7734770  91.0954503  54.0294740  43.1753424
  91.1503113  53.0768576  43.0995901  90.2845705  54.1854179  43.6594722
  92.2445697  57.9574863  34.4131707  91.8065127  57.2410722  33.9537345
  92.9856138  58.1850978  33.8516799  89.0346863  52.6471800  40.9343803
  88.2214728  52.9465970  41.3408995  89.5305857  52.2527489  41.6518285
  91.1855441  62.6429557  42.8678068  91.1431620  62.8690403  41.9386600
  92.1018140  62.4092931  43.0163869  94.6321075  53.1113624  49.7658697
  94.9870462  53.3385097  50.6253163  95.2793206  53.4432001  49.1435952
 100.3618812  56.2332060  40.4708026 100.2236710  56.4233656  39.5429215
 100.0055030  56.9951443  40.9276077  88.5260938  50.2190155  46.5505038
  89.1660317  50.0778914  45.8528001  87.6938468  49.9324669  46.1743640
 100.3888191  58.3008587  45.4819297 100.8224698  58.2083876  46.3302351
 101.1019772  58.2766088  44.8439313  89.3021242  59.5192586  42.6640030
  90.0961840  59.0242906  42.4622605  88.5912934  58.9910449  42.3007736
  94.1216086  61.9010681  47.0152398  94.1753108  62.4701618  47.7830114
  93.2530867  62.0712566  46.6506435  85.6104005  53.6635667  38.7399783
  84.6801593  53.6020123  38.9569745  85.7061477  53.1411620  37.9436424
  85.5289554  50.1890480  41.3278025  85.7896371  51.1035814  41.2187185
  86.3506726  49.7214923  41.4774637  87.0014479  51.6028237  48.4976849
  87.6737533  51.3945600  47.8489498  86.1744266  51.4050323  48.0582081
 101.2503741  58.3432288  48.0152183 101.4439631  59.2478098  48.2611458
 101.1504359  57.8839707  48.8490768  92.9040051  48.2290178  50.5142510
  92.2567967  48.9280128  50.4206986  93.6741067  48.6626322  50.8818758
  96.3118849  58.4939031  53.5893063  96.1604356  58.2649582  52.6723147
  96.3023529  59.4509632  53.6024408  93.0804186  56.0670943  48.5739330
  94.0096246  56.2182103  48.4008297  92.6595216  56.1554964  47.7187976
  91.8792518  60.0921608  46.3437867  91.7403603  59.7240392  47.2163805
  91.0907114  60.6069247  46.1721825  92.4740670  65.1930704  37.6863404
  92.6492425  64.7218747  38.5009027  91.7873458  65.8196470  37.9144665
  93.4297733  59.4703210  43.7326705  93.0947565  59.4303980  44.6284355
  92.9301678  58.8047926  43.2597115  87.4041977  54.8770840  49.2579286
  87.2661775  54.1451079  49.8590825  88.3146900  54.7879741  48.9763474
  96.3656924  56.8159245  34.0063765  95.7486095  56.0906073  33.9096817
  95.8973413  57.5768605  33.6630839  90.0324277  54.5890800  48.7462966
  90.7423896  53.9483992  48.7049584  89.9893586  54.8403695  49.6689147
  98.0211056  61.5258153  51.6669545  97.9623602  60.8417373  51.0000128
  98.4230574  62.2677143  51.2150171  88.7453211  51.5756018  50.5658605
  88.2090568  51.1246756  51.2180202  88.1569920  51.7101926  49.8229070
  87.0401755  68.3420067  44.4603264  87.2798353  68.9738591  45.1382283
  86.1970951  67.9908107  44.7468623  88.1555470  51.0344669  33.1285069
  87.2784937  50.9133470  32.7647316  88.6313223  50.2430747  32.8763958
  98.0228463  59.4897737  49.8983525  97.1355242  59.1523659  50.0209924
  98.5927014  58.7580768  50.1352290  84.4792333  50.7112025  47.6511600
  84.3950521  50.1037695  46.9162010  83.6575039  51.2021044  47.6521096
  91.3419396  63.3870959  40.3747590  90.5586918  63.9292640  40.4685814
  92.0412142  63.9044939  40.7741831  94.6516046  49.1965589  43.0181795
  95.1484746  48.4435551  42.6982865  93.8803028  49.2329906  42.4525004
 102.5045804  54.9005954  44.6600086 102.4935680  55.7830670  44.2894020
 101.6363183  54.5477505  44.4654624  94.0128300  64.0486023  49.0202927
  94.7256272  64.6833488  48.9478828  93.5218329  64.1449889  48.2042929
  95.7345827  57.9537276  40.5920218  94.8002106  58.0738739  40.4224923
  95.9122496  57.0509743  40.3280228  91.2351015  51.3382972  42.7453480
  90.8648803  50.7854012  43.4334385  91.7310108  50.7341105  42.1928480
  99.1218378  53.7954595  41.1270253  99.5878831  54.6282587  41.0530555
  99.5725879  53.3299577  41.8315511  89.0640214  61.7980467  49.8408498
  89.7649673  62.4316950  49.9937892  88.5935329  62.1395198  49.0804137
  97.1894610  60.1398417  38.1256405  97.4654454  60.0255011  39.0350279
  96.3199108  59.7415902  38.0868578  97.0935041  46.1635182  45.1661154
  96.1798121  46.3939409  45.3343361  97.5228143  46.2473626  46.0175186
  96.8641500  54.3525074  47.6661048  96.2112950  54.6000982  47.0113501
  97.2421880  53.5389213  47.3323525  93.8248674  64.3884768  41.7689218
  94.0071068  63.5706423  42.2316971  94.6481660  64.6052460  41.3314108
  94.1590839  63.3152953  39.0304267  94.6878606  62.8045407  38.4174429
  94.4219059  62.9995483  39.8949800  92.9129073  55.0944885  54.1527085
  92.2369710  54.9939015  54.8229460  93.7356707  54.9384099  54.6163082
  84.6607932  61.3316822  46.7739600  85.2461369  60.5860510  46.9067504
  84.4632770  61.6420779  47.6576264  87.5146587  64.3668069  41.7902043
  86.8456962  64.8514197  41.3066083  87.3759457  64.6137290  42.7045421
  86.6316349  48.7486963  48.9906586  86.6957675  49.6101794  48.5783983
  86.5683469  48.1360964  48.2578944  86.1068621  50.8210095  52.6379620
  86.7340660  50.4387173  53.2517144  85.2496540  50.6024297  53.0035312
  96.5062730  61.2273070  54.2433355  97.0502634  61.8403029  53.7488310
  95.9249575  61.7852649  54.7600368  82.8834164  52.6286524  38.5697975
  83.1787605  51.7197203  38.5165028  81.9822200  52.6074264  38.2478977
  94.7920243  64.3493788  45.3748383  94.6671382  63.5483528  44.8659329
  95.4499334  64.8439982  44.8862353  86.4128411  50.7042521  44.5525523
  85.6914997  51.3178489  44.4132997  87.2021667  51.2400286  44.4742169
  96.8555151  62.1502808  47.0027933  95.9085487  62.0308160  46.9306260
  97.2037924  61.2625306  47.0854195  89.2154725  48.0396947  50.8266175
  89.7389126  48.2859244  51.5892484  88.9967058  48.8716982  50.4069312
  84.6122006  50.3100622  38.6937300  84.2834712  49.4298001  38.5112406
  84.9661376  50.2548291  39.5813689  93.8601585  61.9455525  43.2032285
  93.7126547  61.0172232  43.3839855  94.6855078  61.9675615  42.7189361
  87.7263829  50.5973592  39.0612778  88.0659901  51.1259513  38.3391386
  88.1735949  50.9353998  39.8371344  97.4635706  62.7684083  44.2897158
  98.3882254  62.5626945  44.1521609  97.2951010  62.5200485  45.1986500
  90.4207270  48.9810642  48.5115846  90.0804090  48.1818456  48.9136526
  89.7146276  49.2812353  47.9392679  91.0723742  46.0659955  46.9643169
  91.8949811  45.5920433  46.8422059  91.3161805  46.8450439  47.4641855
  89.7131976  49.0948213  37.2606070  90.4340339  49.4729466  36.7569787
  89.0897280  49.8137090  37.3641048  93.8563099  49.7993362  38.1964403
  94.0726713  50.6818000  37.8953231  93.3757166  49.4079576  37.4670045
  88.5962320  52.7579076  44.7735147  88.4506901  53.0719379  45.6659429
  88.1187524  53.3763976  44.2206046  90.4558703  49.7481624  44.8216037
  90.4420272  48.8522717  44.4848335  91.1731131  49.7552287  45.4554323
  92.3084834  50.1818964  46.8669164  92.0502612  51.1036034  46.8653495
  91.7769874  49.7849398  47.5569628  97.2531023  63.2869751  39.6459250
  97.4267900  62.7216173  38.8933102  97.7459914  64.0870646  39.4638740
  83.0707982  55.2984420  47.7122808  82.5261451  56.0744228  47.8443083
  83.9487332  55.6455224  47.5541930  89.8595599  48.6296004  40.0903607
  89.9811510  47.7012650  40.2894494  89.5697641  48.6434690  39.1781922
  92.7286790  46.3150914  43.2270327  92.7508486  46.3790247  42.2722306
  93.1454849  45.4755423  43.4210833 103.1070414  56.0506174  41.2649549
 103.5501560  55.3013499  40.8668673 102.2296924  56.0416310  40.8823281
  98.2406195  62.6036515  36.7456148  98.9357100  63.2243208  36.9643463
  98.5829345  61.7531866  37.0208526  83.8574004  54.4254316  50.6052965
  83.1155740  54.5736952  51.1917596  83.5366749  54.6862582  49.7419715
 100.1397618  60.0536221  38.2743479 100.6648942  60.3923494  37.5492799
 100.0519971  59.1183236  38.0906613  91.8238279  66.1208204  42.6338732
  91.3843269  65.6284583  43.3271589  92.5746396  65.5781172  42.3930807
  84.3030618  62.3119745  42.6363360  85.1288638  62.0123517  42.2562003
  83.9524670  61.5427367  43.0853149  89.2712151  61.6646213  44.7061034
  88.6492160  61.0016918  44.4063261  89.9417018  61.6907345  44.0234681
  82.5039223  60.2306071  43.5952294  81.6671131  59.8028246  43.4136295
  82.4762868  60.4238515  44.5323085  89.3436679  50.1428001  54.2993540
  89.3924834  51.0190124  53.9171309  89.8859193  49.6005394  53.7265183
  99.8291524  60.6869124  53.5794677  99.0387068  60.6693263  53.0399176
  99.5924879  61.2257418  54.3343713  99.9489399  57.5361591  50.8927405
  99.9987404  57.3711598  51.8342928  99.8403323  56.6688850  50.5025286
  88.8325658  60.2150136  38.1819494  88.9813778  60.8985601  37.5286167
  89.6392102  60.1955227  38.6968950  97.2393162  53.5192519  52.2086712
  98.1403025  53.3798984  51.9170710  97.3141136  53.6846974  53.1484889
  91.5735967  50.8959374  51.0539898  90.7039277  51.1892940  50.7822487
  91.8095447  51.4799819  51.7747162 101.4507596  59.9558532  51.1369427
 101.1592405  60.3188513  51.9732888 100.8379727  59.2425541  50.9582759
 102.6503279  57.5211412  43.6571997 103.4850170  57.9601216  43.8209557
 102.7862407  57.0450065  42.8380243  99.6994784  55.0791147  49.6049485
 100.1748906  55.2718793  48.7968336  98.7760350  55.1350333  49.3592868
  86.5878291  56.2415314  39.1880563  86.3424333  55.3377644  39.3860773
  86.7574206  56.2432465  38.2460041  94.2775001  47.1138991  48.5705319
  94.7956945  47.8500017  48.2451807  93.9230134  47.4202984  49.4052078
  85.8573939  51.9743672  36.6866724  85.1643184  52.0488027  36.0306760
  85.6125690  51.2104015  37.2088241  94.5287595  43.5339273  44.0906215
  94.8089349  42.8662462  44.7166642  95.3138202  43.7268369  43.5780879
  92.3321064  62.7098267  35.6531242  91.7595031  63.3288454  35.2001713
  92.9053857  63.2597629  36.1871163  98.3996453  51.9556907  47.8377790
  99.3513876  52.0555005  47.8590014  98.2299904  51.1635176  48.3475875
  96.4210833  49.0412490  48.0237191  95.8260765  49.3217503  47.3283680
  96.1360530  49.5306391  48.7953932  95.5518323  62.9935417  36.7839824
  96.4848997  62.9280979  36.9872699  95.4641536  63.8291684  36.3254356
  98.1806340  62.3101287  33.7443771  98.1019972  61.9761151  34.6379529
  99.0016007  62.8023055  33.7435244 100.8784531  55.1763027  46.9520090
 100.8460851  54.2379027  47.1379774 101.4885155  55.2547063  46.2185915
  92.7167862  54.0459080  32.9947294  93.6626967  53.9165288  33.0635712
  92.3382107  53.3073742  33.4716722 101.0279020  51.9674070  46.9978373
 100.5118068  51.1832527  46.8108302 101.9118968  51.6392787  47.1624893
  98.6889747  45.7115086  42.9574186  98.4914568  45.4030174  43.8417518
  99.2989452  46.4376725  43.0872116 106.6961081  56.2379034  46.0926127
 107.4264470  55.9764322  46.6533830 106.0868027  55.5007756  46.1328195
 104.7776378  54.3786896  46.6900578 104.0509542  54.2442861  46.0817070
 104.3623665  54.6863725  47.4957296  92.6006555  58.0976826  54.4547951
  93.5209564  58.2755425  54.6487998  92.5656138  57.1532871  54.3027650
  90.9010779  51.9709056  32.9302179  89.9942235  51.6742169  33.0064893
  91.1786760  51.6738874  32.0636465  81.8188720  53.2915419  43.3801226
  81.4991504  52.4380728  43.0875600  81.2722148  53.5063998  44.1359193
  85.5968627  56.0077860  47.0970732  85.8154637  56.9394968  47.1158766
  86.0094401  55.6485835  47.8825536  92.5172845  46.5145946  39.0846421
  91.7073573  46.1693031  39.4601667  93.2057262  46.2053490  39.6734032
  94.4463393  45.5923993  40.7070717  94.9994432  46.0119446  41.3660740
  94.6833480  44.6659741  40.7493673  90.4696492  51.5811066  56.4873481
  90.3693219  52.5305423  56.4185572  90.2518035  51.2529305  55.6149551
  89.6709564  48.8295991  33.0714158  90.5328728  49.1550890  33.3309976
  89.8559908  48.0427487  32.5587224  81.6876980  56.9118331  45.3494347
  80.9940451  56.4972284  44.8364302  82.4349971  56.9538867  44.7527766
  97.8242200  47.7024518  40.2149381  97.2440869  48.3609322  39.8327434
  97.5578133  46.8801862  39.8036799  96.2745767  47.1029575  42.4170702
  96.7745545  47.2146110  41.6085021  96.9181375  46.7990628  43.0571510
  90.3327763  55.0108205  55.3038543  89.8494844  55.8108565  55.5102432
  90.4188702  55.0216150  54.3505987  83.6013722  56.8436585  43.2260362
  83.5784410  56.9424272  42.2742245  83.9114359  57.6901736  43.5477528
  86.2601100  58.9012740  47.3406977  87.2144354  58.8696682  47.2736908
  86.0613624  58.4403364  48.1557202  86.8500482  57.4713856  49.9077774
  87.6693371  57.9657935  49.9312611  87.1237290  56.5545824  49.8795342
  96.6067078  49.8624608  39.2705730  95.7192933  50.1474259  39.0525924
  97.0221067  49.7018372  38.4233007  99.9581615  49.8871129  42.9860069
 100.7342005  50.3767582  43.2584686  99.2329749  50.3129183  43.4431938
 102.3954173  50.5998748  44.0434010 102.9898664  50.3594484  43.3327318
 102.4680757  49.8805879  44.6707546  84.6151329  64.4432359  44.3577174
  84.4805797  63.6832760  43.7915172  84.1983391  65.1673259  43.8905963
  95.7510292  59.6269283  33.3653750  96.4546142  59.8319285  33.9811405
  95.0272941  60.1946045  33.6302833  96.5808102  55.3779144  39.4856020
  96.5243304  55.8347696  38.6463652  97.1336445  54.6169829  39.3078863
 100.3912908  51.1668876  40.3106139 100.1349842  50.7665512  41.1414347
  99.7665776  51.8812670  40.1856279 104.7025246  53.9064949  42.8177431
 104.1424804  53.9758139  43.5908993 104.0968749  53.7305934  42.0976927
  87.7720455  65.3401676  44.5695617  87.6552839  66.2847109  44.4674307
  86.9512901  65.0375238  44.9581416  97.6596989  60.0651812  35.4152210
  98.4942593  59.6333010  35.2329685  97.4981332  59.8933826  36.3429104
  97.3142881  56.5683925  36.7808549  97.2591685  56.4028197  35.8396993
  96.6888937  57.2759958  36.9370739  82.1035396  51.8051990  50.6069971
  82.7494260  51.2950944  51.0957196  81.8952548  52.5420671  51.1813397
  94.6288789  58.8732837  56.1062112  95.4979948  59.0473489  55.7448747
  94.1495540  59.6927254  55.9837841  90.6239007  46.0692034  36.3593867
  90.6117677  47.0133874  36.5162138  91.5162429  45.8862180  36.0653329
  90.5528571  64.7460925  44.4461624  89.6024202  64.7462786  44.3325996
  90.8561057  63.9993659  43.9297659  94.4391126  42.6634811  40.6139804
  93.6723522  42.1093298  40.7596487  94.8501831  42.7356680  41.4753956
  86.4432887  48.9519607  54.7044985  87.3064349  48.5956412  54.9148310
  85.8698298  48.6133502  55.3920390 106.2881264  70.5821463  45.5107386
 106.9259674  70.4628210  44.8070727 106.1702107  71.5302307  45.5695339
 103.0970971  70.5348891  45.4468911 102.7589482  70.4189956  44.5589446
 103.9660739  70.1340056  45.4269917  98.9557786  72.3884368  41.4365802
  98.3922651  72.2974305  40.6682090  98.8410181  71.5684272  41.9168295
 103.5790754  71.6883743  51.4055117 103.5679394  71.2936541  50.5335620
 103.7411393  70.9549816  51.9988888  96.5022218  73.8835559  44.2750023
  97.2943510  73.5426384  43.8596322  96.7418868  73.9930534  45.1952176
  98.4612972  73.1444472  37.1467401  99.2343848  72.5973460  37.0080277
  98.8138371  74.0088722  37.3581863 100.7979250  69.3037139  34.7785851
 101.0504771  68.7818660  34.0169314  99.8603809  69.1403284  34.8812535
 105.8422533  68.3072917  42.5860595 106.6285622  67.8892340  42.2351012
 106.1061237  69.2119009  42.7542243 111.2430960  68.2448150  43.4893573
 111.9756132  67.6747367  43.7231403 110.4870316  67.8569751  43.9300079
 100.5175539  71.2065245  36.9810226 100.4011797  70.5310148  37.6491311
 100.6277799  70.7197618  36.1642379 102.8607080  70.6675392  40.6856915
 102.4965287  70.1406013  41.3969837 103.7174196  70.2773861  40.5123401
 108.7656380  61.9569724  47.9488182 108.4339705  62.8265135  47.7249397
 108.1701994  61.6406008  48.6282212 102.5012567  65.6965291  35.6818264
 102.6686969  66.5645528  36.0488735 102.3109736  65.8592573  34.7579553
 105.2587900  74.1582270  47.3484094 104.9588623  75.0607309  47.2399902
 104.9138959  73.8914453  48.2005247  98.7100381  70.6096067  43.3820799
  97.7850878  70.4772281  43.5898491  98.9584795  71.3890286  43.8790741
 108.6585044  66.6764810  45.0281532 107.7501921  66.6080219  44.7340293
 108.6072639  67.1536755  45.8563357 102.4801788  68.1522949  36.6664931
 102.3601413  68.5980000  37.5050411 101.7854376  68.5008267  36.1078469
  96.0709192  70.2529341  44.2164588  96.2001574  70.5063820  45.1304000
  95.3906644  70.8457049  43.8969243 102.7325909  68.0954456  52.9716429
 101.9559243  68.6548376  52.9619294 103.3716472  68.5811239  53.4931299
 110.5246690  64.8781249  46.8059406 109.8821070  65.1713782  46.1599200
 110.0201619  64.7634169  47.6112602 108.1786854  68.6244422  37.4945265
 109.0904710  68.8571809  37.3192962 107.6696501  69.2081466  36.9320343
 102.8158691  67.9841657  48.5040114 103.6619887  68.4081070  48.6474763
 102.7557329  67.3275281  49.1978678 106.7856436  73.6070240  44.8858846
 106.1565298  73.7715955  44.1834914 106.3982098  74.0211850  45.6569810
 105.9658137  65.6446025  50.1621288 105.7219069  66.3988086  49.6255564
 106.2418067  66.0231373  50.9968535 107.9196599  72.1884637  48.8398554
 108.1313495  72.8316397  48.1632935 107.8726348  71.3546954  48.3720484
 105.5222828  64.8002458  45.7435126 104.6607307  65.0983712  46.0351863
 105.5485263  65.0172857  44.8116158 102.3384398  73.3444649  42.1508931
 102.8022743  73.6232352  41.3613554 102.0741196  72.4428093  41.9682022
  99.2308479  72.8916130  45.0888695  99.8009836  73.3203398  44.4506179
  99.8216591  72.6098715  45.7872880 101.2753284  69.4667801  38.9598497
 101.9777327  69.9188845  39.4272423 100.9433912  68.8251620  39.5878390
  95.0178618  67.7251354  44.2615630  94.2277672  67.9808882  43.7855741
  95.5089865  68.5399691  44.3667671 109.0342427  75.0656593  47.0120911
 109.8559871  74.6636780  46.7303593 109.0304830  74.9624827  47.9637027
  96.9693363  68.0895933  41.2199107  96.1724527  68.2014627  41.7382603
  96.7418955  68.4282585  40.3539997  93.3016321  67.9781844  46.6930621
  93.5524359  68.8628854  46.9588197  93.8375869  67.7986446  45.9205713
 117.1248420  71.4095341  43.3605882 116.3712129  70.8402739  43.2049887
 117.2595962  71.3758006  44.3076517 102.5147049  76.2808744  39.0360602
 102.3792723  77.1260279  39.4645450 103.0556861  76.4828021  38.2726536
  99.0014388  62.3600323  55.6974957  98.6081334  61.8066522  56.3722601
  99.8180529  62.6710902  56.0881475  95.9676446  73.7984182  39.6088527
  96.4800967  74.5927432  39.7594092  96.6199159  73.1010472  39.5422128
  97.7771331  76.9149938  41.6911280  97.9537959  77.8367903  41.5032264
  98.5728164  76.6008357  42.1205660 101.9182349  63.7758203  53.2895214
 102.6592063  64.3765356  53.2099676 102.1500272  63.0335840  52.7313256
  97.0623687  68.9614570  51.5673443  96.9477202  68.0599827  51.8680542
  96.2068205  69.2078267  51.2158260 105.8639512  59.8039305  47.5659495
 105.5203782  60.6940947  47.4898606 106.2318475  59.6140963  46.7029080
  93.9325363  72.1272836  40.3848097  94.7700585  72.5369844  40.1681805
  94.1103630  71.1872278  40.3548291 105.8289795  69.7947917  36.0731930
 105.3136418  70.5652521  36.3120318 105.5567103  69.1213053  36.6964992
 103.4136906  64.6397617  41.1317169 102.5578502  64.2504468  40.9522807
 103.8263858  64.7189578  40.2716954 104.9436053  62.1743961  45.5308729
 104.4400848  62.1374096  44.7176534 105.2366659  63.0836703  45.5905385
 101.1878938  62.2582690  44.5374910 102.0531935  62.0625499  44.1780800
 101.2556447  62.0293042  45.4644267 110.8024069  72.5480271  38.0085104
 110.0253512  72.2091431  37.5640266 111.4815550  72.5532894  37.3340069
 105.6176098  67.6675009  37.8991712 105.3126234  67.9821158  38.7501855
 106.5706540  67.7456429  37.9419045 104.0622530  73.8265232  39.5484666
 103.5343891  73.0917992  39.2357903 103.5610033  74.6039908  39.3024634
 109.0415376  72.0214252  44.6651712 108.3839050  72.7113514  44.7531840
 109.8455775  72.4110684  45.0085698  98.7941257  64.4884898  41.9091277
  99.3685009  64.2660080  41.1764470  99.3812240  64.5573593  42.6619878
 107.8520835  70.3758625  42.7155654 108.3652716  71.0088617  43.2177363
 108.5022059  69.7759821  42.3499014  99.1210845  66.5189359  35.9287162
  98.2848157  66.8564046  36.2496437  98.9815614  66.3838339  34.9914299
 101.0963925  61.3626147  40.6366346 100.4428338  61.0475164  40.0122961
 101.0544399  60.7401888  41.3626169 102.2075130  71.6445442  32.5519639
 101.3002192  71.4134696  32.7510788 102.7046162  70.8483061  32.7393620
 104.3301666  67.8508081  44.9613994 103.4124227  68.0723028  44.8035682
 104.7461809  67.9254391  44.1025701 105.1136713  69.2499496  40.0916674
 105.8608532  69.7620894  39.7823796 105.3828303  68.9283549  40.9521068
 103.3863363  71.7458037  37.0743629 102.4774583  71.4617070  37.1716098
 103.4158447  72.1657116  36.2146936 107.5615550  66.2856613  42.0735464
 106.8238307  65.7733999  42.4045706 107.8142324  65.8456994  41.2618741
 107.6627178  59.0632865  42.6677233 107.9686055  58.2030228  42.3803148
 108.3879783  59.6550485  42.4676227  93.9551534  69.4663551  41.0558831
  93.7575934  68.8732912  40.3309897  93.3998198  69.1615761  41.7734770
 101.9348258  69.3586658  43.1753424 101.9896867  68.4060494  43.0995901
 101.1239460  69.5146097  43.6594722 103.0839451  73.2866781  34.4131707
 102.6458881  72.5702640  33.9537345 103.8249892  73.5142896  33.8516799
  99.8740617  67.9763717  40.9343803  99.0608483  68.2757888  41.3408995
 100.3699612  67.5819406  41.6518285 102.0249195  77.9721474  42.8678068
 101.9825374  78.1982321  41.9386600 102.9411894  77.7384849  43.0163869
 105.4714829  68.4405542  49.7658697 105.8264217  68.6677015  50.6253163
 106.1186960  68.7723919  49.1435952 111.2012566  71.5623978  40.4708026
 111.0630465  71.7525574  39.5429215 110.8448785  72.3243361  40.9276077
  99.3654692  65.5482073  46.5505038 100.0054072  65.4070832  45.8528001
  98.5332223  65.2616586  46.1743640 111.2281946  73.6300505  45.4819297
 111.6618452  73.5375794  46.3302351 111.9413526  73.6058005  44.8439313
  96.4497760  68.9927585  38.7399783  95.5195348  68.9312041  38.9569745
  96.5455232  68.4703538  37.9436424  96.3683309  65.5182398  41.3278025
  96.6290126  66.4327731  41.2187185  97.1900481  65.0506841  41.4774637
  97.8408234  66.9320155  48.4976849  98.5131287  66.7237517  47.8489498
  97.0138020  66.7342241  48.0582081 112.0897495  73.6724205  48.0152183
 112.2833385  74.5770016  48.2611458 111.9898113  73.2131625  48.8490768
 103.7433806  63.5582096  50.5142510 103.0961721  64.2572046  50.4206986
 104.5134821  63.9918240  50.8818758 103.9197940  71.3962861  48.5739330
 104.8490000  71.5474021  48.4008297 103.4988970  71.4846882  47.7187976
 104.2691487  74.7995128  43.7326705 103.9341320  74.7595898  44.6284355
 103.7695433  74.1339844  43.2597115 107.2050679  72.1451162  34.0063765
 106.5879850  71.4197991  33.9096817 106.7367167  72.9060523  33.6630839
 100.8718032  69.9182717  48.7462966 101.5817650  69.2775910  48.7049584
 100.8287340  70.1695612  49.6689147  99.5846966  66.9047935  50.5658605
  99.0484323  66.4538674  51.2180202  98.9963674  67.0393844  49.8229070
  97.8795509  83.6711985  44.4603264  98.1192108  84.3030509  45.1382283
  97.0364706  83.3200025  44.7468623  98.9949225  66.3636587  33.1285069
  98.1178691  66.2425388  32.7647316  99.4706978  65.5722665  32.8763958
  90.5151365  71.1513746  43.2226576  91.2022405  70.8375476  42.6347592
  90.3599494  72.0555111  42.9493828  95.3186087  66.0403943  47.6511600
  95.2344276  65.4329613  46.9162010  94.4968793  66.5312961  47.6521096
 102.3923371  79.4791107  46.8644768 102.3193543  80.2846079  47.3764073
 101.9500764  79.6783073  46.0392789 105.4909801  64.5257507  43.0181795
 105.9878500  63.7727469  42.6982865 104.7196782  64.5621823  42.4525004
 113.3439558  70.2297872  44.6600086 113.3329435  71.1122588  44.2894020
 112.4756938  69.8769423  44.4654624 102.0744770  66.6674890  42.7453480
 101.7042557  66.1145930  43.4334385 102.5703862  66.0633023  42.1928480
 109.9612133  69.1246513  41.1270253 110.4272585  69.9574505  41.0530555
 110.4119633  68.6591495  41.8315511 107.9328796  61.4927100  45.1661154
 107.0191876  61.7231327  45.3343361 108.3621897  61.5765544  46.0175186
 107.7035254  69.6816992  47.6661048 107.0506704  69.9292899  47.0113501
 108.0815634  68.8681130  47.3323525  95.5001686  76.6608740  46.7739600
  96.0855123  75.9152428  46.9067504  95.3026525  76.9712696  47.6576264
  98.3540342  79.6959987  41.7902043  97.6850717  80.1806115  41.3066083
  98.2153211  79.9429207  42.7045421 102.4945610  81.7303731  48.3884701
 103.0463918  81.8935352  49.1533786 102.8351804  82.3208168  47.7164726
  97.4710103  64.0778880  48.9906586  97.5351430  64.9393711  48.5783983
  97.4077224  63.4652882  48.2578944  93.7227919  67.9578442  38.5697975
  94.0181360  67.0489120  38.5165028  92.8215954  67.9366181  38.2478977
  97.2522166  66.0334439  44.5525523  96.5308751  66.6470406  44.4132997
  98.0415421  66.5692203  44.4742169 100.0548479  63.3688865  50.8266175
 100.5782881  63.6151162  51.5892484  99.8360812  64.2008900  50.4069312
  95.4515760  65.6392540  38.6937300  95.1228466  64.7589919  38.5112406
  95.8055131  65.5840208  39.5813689  98.5657583  65.9265509  39.0612778
  98.9053656  66.4551431  38.3391386  99.0129704  66.2645916  39.8371344
 101.2601024  64.3102560  48.5115846 100.9197845  63.5110373  48.9136526
 100.5540030  64.6104271  47.9392679 101.9117496  61.3951873  46.9643169
 102.7343565  60.9212351  46.8422059 102.1555560  62.1742356  47.4641855
 100.5525731  64.4240131  37.2606070 101.2734093  64.8021384  36.7569787
  99.9291035  65.1429008  37.3641048 104.6956853  65.1285280  38.1964403
 104.9120468  66.0109918  37.8953231 104.2150921  64.7371493  37.4670045
  99.4356075  68.0870993  44.7735147  99.2900656  68.4011296  45.6659429
  98.9581278  68.7055894  44.2206046 101.2952458  65.0773541  44.8216037
 101.2814026  64.1814635  44.4848335 102.0124886  65.0844205  45.4554323
 103.1478588  65.5110881  46.8669164 102.8896366  66.4327952  46.8653495
 102.6163629  65.1141316  47.5569628  93.9101737  70.6276338  47.7122808
  93.3655205  71.4036146  47.8443083  94.7881087  70.9747142  47.5541930
 100.6989354  63.9587921  40.0903607 100.8205265  63.0304568  40.2894494
 100.4091396  63.9726607  39.1781922 103.5680544  61.6442832  43.2270327
 103.5902241  61.7082165  42.2722306 103.9848603  60.8047341  43.4210833
 113.9464168  71.3798091  41.2649549 114.3895314  70.6305417  40.8668673
 113.0690679  71.3708228  40.8823281  95.1424372  77.6411663  42.6363360
  95.9682392  77.3415434  42.2562003  94.7918424  76.8719285  43.0853149
 100.1105906  76.9938131  44.7061034  99.4885915  76.3308836  44.4063261
 100.7810773  77.0199263  44.0234681  93.3432978  75.5597989  43.5952294
  92.5064886  75.1320163  43.4136295  93.3156623  75.7530432  44.5323085
 100.1830433  65.4719919  54.2993540 100.2318589  66.3482042  53.9171309
 100.7252947  64.9297312  53.7265183  99.6719413  75.5442054  38.1819494
  99.8207533  76.2277519  37.5286167 100.4785856  75.5247144  38.6968950
 102.4129722  66.2251291  51.0539898 101.5433031  66.5184857  50.7822487
 102.6489202  66.8091736  51.7747162 113.4897033  72.8503330  43.6571997
 114.3243924  73.2893134  43.8209557 113.6256162  72.3741983  42.8380243
  97.4272046  71.5707232  39.1880563  97.1818087  70.6669562  39.3860773
  97.5967960  71.5724382  38.2460041 105.1168755  62.4430908  48.5705319
 105.6350699  63.1791935  48.2451807 104.7623888  62.7494901  49.4052078
  96.6967693  67.3035589  36.6866724  96.0036938  67.3779944  36.0306760
  96.4519445  66.5395933  37.2088241 105.3681350  58.8631191  44.0906215
 105.6483103  58.1954380  44.7166642 106.1531957  59.0560286  43.5780879
 109.2390208  67.2848825  47.8377790 110.1907631  67.3846922  47.8590014
 109.0693658  66.4927093  48.3475875 107.2604587  64.3704408  48.0237191
 106.6654520  64.6509421  47.3283680 106.9754284  64.8598309  48.7953932
 109.0200095  77.6393205  33.7443771 108.9413726  77.3053069  34.6379529
 109.8409761  78.1314973  33.7435244 111.7178286  70.5054944  46.9520090
 111.6854606  69.5670945  47.1379774 112.3278909  70.5838981  46.2185915
 103.5561617  69.3750997  32.9947294 104.5020721  69.2457205  33.0635712
 103.1775862  68.6365659  33.4716722 111.8672774  67.2965988  46.9978373
 111.3511823  66.5124444  46.8108302 112.7512723  66.9684704  47.1624893
 109.5283501  61.0407003  42.9574186 109.3308322  60.7322092  43.8417518
 110.1383207  61.7668642  43.0872116 115.6170133  69.7078814  46.6900578
 114.8903296  69.5734779  46.0817070 115.2017420  70.0155642  47.4957296
 101.7404534  67.3000974  32.9302179 100.8335989  67.0034086  33.0064893
 102.0180515  67.0030792  32.0636465  92.6582474  68.6207337  43.3801226
  92.3385258  67.7672645  43.0875600  92.1115902  68.8355915  44.1359193
  96.4362382  71.3369778  47.0970732  96.6548391  72.2686886  47.1158766
  96.8488155  70.9777753  47.8825536 103.3566599  61.8437863  39.0846421
 102.5467328  61.4984948  39.4601667 104.0451016  61.5345407  39.6734032
 105.2857148  60.9215910  40.7070717 105.8388186  61.3411364  41.3660740
 105.5227234  59.9951658  40.7493673 100.5103318  64.1587909  33.0714158
 101.3722482  64.4842807  33.3309976 100.6953663  63.3719405  32.5587224
  92.5270734  72.2410249  45.3494347  91.8334206  71.8264201  44.8364302
  93.2743725  72.2830785  44.7527766 108.6635955  63.0316435  40.2149381
 108.0834624  63.6901239  39.8327434 108.3971888  62.2093780  39.8036799
 107.1139521  62.4321493  42.4170702 107.6139300  62.5438028  41.6085021
 107.7575129  62.1282546  43.0571510  94.4407477  72.1728502  43.2260362
  94.4178165  72.2716190  42.2742245  94.7508113  73.0193653  43.5477528
 107.4460833  65.1916526  39.2705730 106.5586688  65.4766176  39.0525924
 107.8614822  65.0310289  38.4233007 110.7975369  65.2163047  42.9860069
 111.5735759  65.7059499  43.2584686 110.0723503  65.6421101  43.4431938
 113.2347928  65.9290666  44.0434010 113.8292418  65.6886402  43.3327318
 113.3074511  65.2097797  44.6707546  95.4545083  79.7724277  44.3577174
  95.3199551  79.0124678  43.7915172  95.0377146  80.4965177  43.8905963
 106.5904046  74.9561200  33.3653750 107.2939896  75.1611203  33.9811405
 105.8666695  75.5237962  33.6302833 107.4201857  70.7071062  39.4856020
 107.3637058  71.1639613  38.6463652 107.9730199  69.9461746  39.3078863
 111.2306663  66.4960794  40.3106139 110.9743597  66.0957429  41.1414347
 110.6059531  67.2104588  40.1856279 115.5419000  69.2356867  42.8177431
 114.9818558  69.3050056  43.5908993 114.9362504  69.0597851  42.0976927
  98.6114209  80.6693594  44.5695617  98.4946593  81.6139026  44.4674307
  97.7906655  80.3667156  44.9581416 108.1536636  71.8975843  36.7808549
 108.0985440  71.7320114  35.8396993 107.5282691  72.6051876  36.9370739
 101.4632761  61.3983952  36.3593867 101.4511431  62.3425792  36.5162138
 102.3556183  61.2154097  36.0653329  99.6368723  81.3221856  47.7851545
 100.5395970  81.3545466  48.1018040  99.4106093  80.3922307  47.7997881
 101.3922325  80.0752842  44.4461624 100.4417956  80.0754704  44.3325996
 101.6954811  79.3285577  43.9297659 105.2784881  57.9926729  40.6139804
 104.5117277  57.4385215  40.7596487 105.6895586  58.0648597  41.4753956
 109.7951541  87.7176285  41.4365802 109.2316406  87.6266222  40.6682090
 109.6803936  86.8976190  41.9168295 107.3415973  89.2127477  44.2750023
 108.1337265  88.8718302  43.8596322 107.5812623  89.3222452  45.1952176
 115.3751100  91.3847253  36.7480267 114.7239079  91.9701333  36.3614281
 116.1695462  91.9153448  36.8075305 109.3006727  88.4736390  37.1467401
 110.0737603  87.9265377  37.0080277 109.6532126  89.3380639  37.3581863
 111.6373004  84.6329056  34.7785851 111.8898525  84.1110578  34.0169314
 110.6997564  84.4695202  34.8812535 116.6816287  83.6364835  42.5860595
 117.4679377  83.2184258  42.2351012 116.9454992  84.5410927  42.7542243
 116.8526365  89.0737685  37.2849251 116.2172198  89.1472311  37.9970156
 116.5223771  89.6631284  36.6068331 122.0824714  83.5740068  43.4893573
 122.8149886  83.0039285  43.7231403 121.3264070  83.1861668  43.9300079
 111.3569293  86.5357162  36.9810226 111.2405551  85.8602066  37.6491311
 111.4671553  86.0489536  36.1642379 113.7000834  85.9967309  40.6856915
 113.3359041  85.4697930  41.3969837 114.5567950  85.6065778  40.5123401
 113.3406321  81.0257209  35.6818264 113.5080723  81.8937445  36.0488735
 113.1503490  81.1884491  34.7579553 116.0981654  89.4874188  47.3484094
 115.7982377  90.3899227  47.2399902 115.7532714  89.2206371  48.2005247
 109.5494136  85.9387985  43.3820799 108.6244632  85.8064199  43.5898491
 109.7978549  86.7182204  43.8790741 113.3195542  83.4814867  36.6664931
 113.1995167  83.9271917  37.5050411 112.6248130  83.8300184  36.1078469
 106.9102947  85.5821258  44.2164588 107.0395328  85.8355737  45.1304000
 106.2300398  86.1748966  43.8969243 111.0802434  96.2518508  40.3155062
 111.0026464  97.2026333  40.3943543 110.4764078  95.9064381  40.9729988
 121.3640445  80.2073167  46.8059406 120.7214825  80.5005700  46.1599200
 120.8595373  80.0926087  47.6112602 119.0180608  83.9536340  37.4945265
 119.9298464  84.1863726  37.3192962 118.5090255  84.5373384  36.9320343
 117.6250190  88.9362158  44.8858846 116.9959053  89.1007872  44.1834914
 117.2375853  89.3503768  45.6569810 121.5039422  89.8716596  42.2403210
 120.8190461  90.2515497  41.6900243 121.5883272  90.4811923  42.9735158
 116.3616583  80.1294376  45.7435126 115.5001062  80.4275629  46.0351863
 116.3879018  80.3464775  44.8116158 113.1778152  88.6736566  42.1508931
 113.6416498  88.9524269  41.3613554 112.9134950  87.7720011  41.9682022
 110.0702233  88.2208048  45.0888695 110.6403590  88.6495316  44.4506179
 110.6610345  87.9390633  45.7872880 112.1147038  84.7959719  38.9598497
 112.8171082  85.2480762  39.4272423 111.7827667  84.1543537  39.5878390
 119.8736182  90.3948510  47.0120911 120.6953626  89.9928698  46.7303593
 119.8698585  90.2916745  47.9637027 127.9642175  86.7387259  43.3605882
 127.2105883  86.1694657  43.2049887 128.0989716  86.7049923  44.3076517
 113.3540803  91.6100661  39.0360602 113.2186478  92.4552197  39.4645450
 113.8950616  91.8119939  38.2726536 106.8070200  89.1276099  39.6088527
 107.3194721  89.9219350  39.7594092 107.4592913  88.4302390  39.5422128
 108.6165085  92.2441856  41.6911280 108.7931713  93.1659820  41.5032264
 109.4121919  91.9300275  42.1205660 109.7396401  93.7620029  47.6921622
 110.2903826  93.6337093  46.9198616 108.9007876  94.0614918  47.3416515
 117.0790517  92.5127028  51.1942345 117.0608993  93.3335909  50.7022614
 118.0010438  92.3881103  51.4192486 116.7033267  75.1331223  47.5659495
 116.3597536  76.0232865  47.4898606 117.0712229  74.9432881  46.7029080
 116.6683549  85.1239834  36.0731930 116.1530173  85.8944439  36.3120318
 116.3960858  84.4504970  36.6964992 114.2530660  79.9689535  41.1317169
 113.3972257  79.5796385  40.9522807 114.6657612  80.0481496  40.2716954
 115.7829807  77.5035878  45.5308729 115.2794603  77.4666013  44.7176534
 116.0760414  78.4128621  45.5905385 121.6417823  87.8772189  38.0085104
 120.8647266  87.5383348  37.5640266 122.3209304  87.8824812  37.3340069
 116.4569852  82.9966926  37.8991712 116.1519988  83.3113076  38.7501855
 117.4100295  83.0748346  37.9419045 114.9016284  89.1557150  39.5484666
 114.3737646  88.4209909  39.2357903 114.4003787  89.9331826  39.3024634
 119.8809130  87.3506170  44.6651712 119.2232805  88.0405432  44.7531840
 120.6849530  87.7402602  45.0085698 118.6914589  85.7050543  42.7155654
 119.2046471  86.3380535  43.2177363 119.3415813  85.1051738  42.3499014
 109.9604599  81.8481277  35.9287162 109.1241911  82.1855964  36.2496437
 109.8209369  81.7130257  34.9914299 113.0468885  86.9737360  32.5519639
 112.1395946  86.7426613  32.7510788 113.5439917  86.1774979  32.7393620
 115.9536963  95.6834867  35.4716325 115.2798662  95.9866564  36.0801283
 116.3402785  96.4863947  35.1221782 115.9530468  84.5791414  40.0916674
 116.7002287  85.0912811  39.7823796 116.2222057  84.2575467  40.9521068
 114.2257118  87.0749955  37.0743629 113.3168337  86.7908988  37.1716098
 114.2552202  87.4949033  36.2146936 119.4576385  90.6856544  40.8434796
 119.0038712  89.8447454  40.8999987 118.8270352  91.3217943  41.1809576
 118.4009305  81.6148530  42.0735464 117.6632062  81.1025917  42.4045706
 118.6536078  81.1748912  41.2618741 117.9009325  92.5233041  41.7784614
 118.1932299  93.0838098  41.0596980 118.4107945  92.8161602  42.5337773
 118.5020932  74.3924782  42.6677233 118.8079809  73.5322146  42.3803148
 119.2273537  74.9842403  42.4676227 112.7742012  84.6878575  43.1753424
 112.8290622  83.7352412  43.0995901 111.9633214  84.8438014  43.6594722
 113.9233206  88.6158698  34.4131707 113.4852636  87.8994557  33.9537345
 114.6643647  88.8434813  33.8516799 112.8642950  93.3013392  42.8678068
 112.8219129  93.5274238  41.9386600 113.7805649  93.0676767  43.0163869
 122.0406321  86.8915895  40.4708026 121.9024219  87.0817491  39.5429215
 121.6842539  87.6535278  40.9276077 122.0675700  88.9592422  45.4819297
 122.5012207  88.8667712  46.3302351 122.7807281  88.9349923  44.8439313
 110.9808751  90.1776421  42.6640030 111.7749349  89.6826741  42.4622605
 110.2700443  89.6494284  42.3007736 115.8003595  92.5594517  47.0152398
 115.8540617  93.1285453  47.7830114 114.9318376  92.7296402  46.6506435
 122.9291250  89.0016123  48.0152183 123.1227140  89.9061934  48.2611458
 122.8291868  88.5423542  48.8490768 114.1528179  95.8514540  37.6863404
 114.3279934  95.3802583  38.5009027 113.4660967  96.4780306  37.9144665
 115.1085242  90.1287046  43.7326705 114.7735074  90.0887816  44.6284355
 114.6089187  89.4631762  43.2597115 118.0444433  87.4743080  34.0063765
 117.4273604  86.7489908  33.9096817 117.5760922  88.2352440  33.6630839
 119.6998565  92.1841988  51.6669545 119.6411111  91.5001209  51.0000128
 120.1018083  92.9260978  51.2150171 108.7189264  99.0003902  44.4603264
 108.9585862  99.6322426  45.1382283 107.8758460  98.6491942  44.7468623
 109.8342979  81.6928504  33.1285069 108.9572446  81.5717305  32.7647316
 110.3100732  80.9014583  32.8763958 119.7015972  90.1481572  49.8983525
 118.8142751  89.8107494  50.0209924 120.2714523  89.4164604  50.1352290
 113.2317126  94.8083025  46.8644768 113.1587297  95.6137996  47.3764073
 112.7894519  95.0074991  46.0392789 113.0206905  94.0454795  40.3747590
 112.2374427  94.5876475  40.4685814 113.7199650  94.5628774  40.7741831
 116.3303555  79.8549424  43.0181795 116.8272255  79.1019387  42.6982865
 115.5590537  79.8913741  42.4525004 124.1833313  85.5589790  44.6600086
 124.1723189  86.4414505  44.2894020 123.3150692  85.2061341  44.4654624
 115.6915809  94.7069859  49.0202927 116.4043781  95.3417324  48.9478828
 115.2005838  94.8033725  48.2042929 117.4133336  88.6121111  40.5920218
 116.4789615  88.7322574  40.4224923 117.5910005  87.7093578  40.3280228
 120.8005887  84.4538431  41.1270253 121.2666340  85.2866422  41.0530555
 121.2513388  83.9883412  41.8315511 118.8682119  90.7982252  38.1256405
 119.1441962  90.6838847  39.0350279 117.9986617  90.3999737  38.0868578
 118.7722550  76.8219018  45.1661154 117.8585630  77.0523245  45.3343361
 119.2015652  76.9057462  46.0175186 115.5036183  95.0468603  41.7689218
 115.6858577  94.2290259  42.2316971 116.3269169  95.2636295  41.3314108
 115.8378348  93.9736788  39.0304267 116.3666115  93.4629243  38.4174429
 116.1006568  93.6579318  39.8949800 109.1934096  95.0251905  41.7902043
 108.5244471  95.5098032  41.3066083 109.0546966  95.2721125  42.7045421
 113.3339365  97.0595648  48.3884701 113.8857673  97.2227270  49.1533786
 113.6745558  97.6500086  47.7164726 118.1850239  91.8856906  54.2433355
 118.7290143  92.4986864  53.7488310 117.6037084  92.4436484  54.7600368
 116.4707752  95.0077624  45.3748383 116.3458891  94.2067364  44.8659329
 117.1286843  95.5023817  44.8862353 118.5342660  92.8086644  47.0027933
 117.5872996  92.6891995  46.9306260 118.8825433  91.9209142  47.0854195
 115.5389094  92.6039360  43.2032285 115.3914056  91.6756067  43.3839855
 116.3642587  92.6259451  42.7189361 119.1423215  93.4267919  44.2897158
 120.0669763  93.2210780  44.1521609 118.9738519  93.1784320  45.1986500
 112.7511251  76.7243790  46.9643169 113.5737320  76.2504268  46.8422059
 112.9949314  77.5034274  47.4641855 115.5350608  80.4577198  38.1964403
 115.7514222  81.3401836  37.8953231 115.0544675  80.0663411  37.4670045
 118.9318532  93.9453586  39.6459250 119.1055409  93.3800009  38.8933102
 119.4247423  94.7454481  39.4638740 114.4074298  76.9734750  43.2270327
 114.4295995  77.0374083  42.2722306 114.8242357  76.1339258  43.4210833
 124.7857923  86.7090009  41.2649549 125.2289069  85.9597334  40.8668673
 123.9084433  86.7000146  40.8823281 119.9193704  93.2620351  36.7456148
 120.6144609  93.8827043  36.9643463 120.2616854  92.4115702  37.0208526
 121.8185127  90.7120056  38.2743479 122.3436451  91.0507329  37.5492799
 121.7307480  89.7767071  38.0906613 113.4805176  94.6254130  50.4033355
 113.7892302  94.3803277  51.2756055 114.2780658  94.8300768  49.9152226
 113.5025788  96.7792039  42.6338732 113.0630778  96.2868418  43.3271589
 114.2533905  96.2365007  42.3930807 105.9818127  92.9703580  42.6363360
 106.8076147  92.6707352  42.2562003 105.6312179  92.2011203  43.0853149
 110.9499660  92.3230049  44.7061034 110.3279669  91.6600754  44.4063261
 111.6204527  92.3491180  44.0234681 104.1826732  90.8889907  43.5952294
 103.3458640  90.4612081  43.4136295 104.1550377  91.0822350  44.5323085
 121.5079033  91.3452960  53.5794677 120.7174577  91.3277099  53.0399176
 121.2712388  91.8841253  54.3343713 121.6276908  88.1945426  50.8927405
 121.6774913  88.0295434  51.8342928 121.5190832  87.3272685  50.5025286
 110.5113167  90.8733972  38.1819494 110.6601287  91.5569436  37.5286167
 111.3179611  90.8539062  38.6968950 123.1295105  90.6142368  51.1369427
 122.8379913  90.9772348  51.9732888 122.5167236  89.9009376  50.9582759
 124.3290788  88.1795247  43.6571997 125.1637679  88.6185052  43.8209557
 124.4649916  87.7033901  42.8380243 108.2665800  86.8999149  39.1880563
 108.0211842  85.9961479  39.3860773 108.4361715  86.9016300  38.2460041
 115.9562510  77.7722826  48.5705319 116.4744454  78.5083853  48.2451807
 115.6017643  78.0786819  49.4052078 116.2075104  74.1923108  44.0906215
 116.4876858  73.5246297  44.7166642 116.9925711  74.3852204  43.5780879
 114.0108573  93.3682102  35.6531242 113.4382540  93.9872289  35.2001713
 114.5841366  93.9181464  36.1871163 118.0998342  79.6996326  48.0237191
 117.5048274  79.9801338  47.3283680 117.8148039  80.1890227  48.7953932
 117.2305832  93.6519252  36.7839824 118.1636506  93.5864814  36.9872699
 117.1429045  94.4875519  36.3254356 119.8593849  92.9685123  33.7443771
 119.7807481  92.6344986  34.6379529 120.6803516  93.4606891  33.7435244
 122.5572040  85.8346862  46.9520090 122.5248360  84.8962863  47.1379774
 123.1672664  85.9130899  46.2185915 114.3955371  84.7042915  32.9947294
 115.3414476  84.5749123  33.0635712 114.0169616  83.9657577  33.4716722
 122.7066529  82.6257905  46.9978373 122.1905577  81.8416362  46.8108302
 123.5906477  82.2976622  47.1624893 120.3677256  76.3698921  42.9574186
 120.1702077  76.0614009  43.8417518 120.9776961  77.0960560  43.0872116
 128.3748590  86.8962869  46.0926127 129.1051979  86.6348157  46.6533830
 127.7655536  86.1591591  46.1328195 126.4563887  85.0370731  46.6900578
 125.7297051  84.9026696  46.0817070 126.0411174  85.3447560  47.4957296
 112.5798288  82.6292891  32.9302179 111.6729744  82.3326004  33.0064893
 112.8574269  82.3322710  32.0636465 107.2756136  86.6661696  47.0970732
 107.4942146  87.5978804  47.1158766 107.6881910  86.3069670  47.8825536
 114.1960354  77.1729781  39.0846421 113.3861082  76.8276866  39.4601667
 114.8844771  76.8637325  39.6734032 116.1250902  76.2507828  40.7070717
 116.6781941  76.6703281  41.3660740 116.3620989  75.3243576  40.7493673
 111.3497073  79.4879827  33.0714158 112.2116237  79.8134725  33.3309976
 111.5347417  78.7011323  32.5587224 119.5029709  78.3608353  40.2149381
 118.9228378  79.0193157  39.8327434 119.2365642  77.5385698  39.8036799
 117.9533276  77.7613411  42.4170702 118.4533054  77.8729945  41.6085021
 118.5968884  77.4574464  43.0571510 105.2801231  87.5020420  43.2260362
 105.2571919  87.6008107  42.2742245 105.5901868  88.3485571  43.5477528
 107.9388609  89.5596575  47.3406977 108.8931863  89.5280517  47.2736908
 107.7401133  89.0987199  48.1557202 118.2854587  80.5208443  39.2705730
 117.3980442  80.8058094  39.0525924 118.7008576  80.3602207  38.4233007
 121.6369123  80.5454964  42.9860069 122.4129514  81.0351417  43.2584686
 120.9117258  80.9713019  43.4431938 124.0741682  81.2582584  44.0434010
 124.6686173  81.0178320  43.3327318 124.1468266  80.5389714  44.6707546
 106.2938838  95.1016195  44.3577174 106.1593306  94.3416596  43.7915172
 105.8770900  95.8257094  43.8905963 117.4297801  90.2853118  33.3653750
 118.1333651  90.4903121  33.9811405 116.7060450  90.8529880  33.6302833
 118.2595611  86.0362979  39.4856020 118.2030812  86.4931531  38.6463652
 118.8123954  85.2753664  39.3078863 122.0700417  81.8252711  40.3106139
 121.8137351  81.4249347  41.1414347 121.4453285  82.5396505  40.1856279
 126.3812755  84.5648785  42.8177431 125.8212313  84.6341974  43.5908993
 125.7756258  84.3889769  42.0976927 109.4507964  95.9985512  44.5695617
 109.3340348  96.9430944  44.4674307 108.6300410  95.6959073  44.9581416
 119.3384498  90.7235647  35.4152210 120.1730102  90.2916846  35.2329685
 119.1768841  90.5517661  36.3429104 118.9930390  87.2267761  36.7808549
 118.9379194  87.0612032  35.8396993 118.3676446  87.9343794  36.9370739
 112.3026516  76.7275870  36.3593867 112.2905186  77.6717710  36.5162138
 113.1949938  76.5446015  36.0653329 110.4762478  96.6513774  47.7851545
 111.3789725  96.6837384  48.1018040 110.2499848  95.7214224  47.7997881
 112.2316080  95.4044760  44.4461624 111.2811711  95.4046622  44.3325996
 112.5348566  94.6577495  43.9297659 116.1178635  73.3218646  40.6139804
 115.3511031  72.7677133  40.7596487 116.5289340  73.3940515  41.4753956
 127.9668773 101.2405298  45.5107386 128.6047183 101.1212046  44.8070727
 127.8489616 102.1886142  45.5695339 124.7758480 101.1932727  45.4468911
 124.4376991 101.0773791  44.5589446 125.6448248 100.7923892  45.4269917
 120.6345295 103.0468203  41.4365802 120.0710160 102.9558140  40.6682090
 120.5197690 102.2268107  41.9168295 125.2578263 102.3467578  51.4055117
 125.2466903 101.9520377  50.5335620 125.4198902 101.6133651  51.9988888
 118.1809727 104.5419395  44.2750023 118.9731019 104.2010219  43.8596322
 118.4206377 104.6514370  45.1952176 126.2144854 106.7139171  36.7480267
 125.5632834 107.2993251  36.3614281 127.0089217 107.2445366  36.8075305
 120.1400481 103.8028308  37.1467401 120.9131357 103.2557295  37.0080277
 120.4925880 104.6672557  37.3581863 121.9785524 105.1304690  50.3534301
 121.6875390 106.0350321  50.2380967 122.6142508 105.1721218  51.0678370
 122.9041731 102.5081539  46.9435660 123.5005303 102.2837561  46.2292623
 122.9616702 101.7666284  47.5461108 122.4766759  99.9620974  34.7785851
 122.7292280  99.4402495  34.0169314 121.5391318  99.7987119  34.8812535
 127.5210042  98.9656752  42.5860595 128.3073131  98.5476175  42.2351012
 127.7848746  99.8702845  42.7542243 127.6920119 104.4029603  37.2849251
 127.0565952 104.4764229  37.9970156 127.3617526 104.9923201  36.6068331
 132.9218469  98.9031986  43.4893573 133.6543641  98.3331202  43.7231403
 132.1657825  98.5153586  43.9300079 122.1963048 101.8649080  36.9810226
 122.0799306 101.1893983  37.6491311 122.3065308 101.3781454  36.1642379
 124.5394589 101.3259227  40.6856915 124.1752796 100.7989848  41.3969837
 125.3961705 100.9357696  40.5123401 130.4443889  92.6153560  47.9488182
 130.1127214  93.4848971  47.7249397 129.8489503  92.2989844  48.6282212
 124.1800076  96.3549127  35.6818264 124.3474478  97.2229363  36.0488735
 123.9897245  96.5176408  34.7579553 126.9375409 104.8166106  47.3484094
 126.6376132 105.7191144  47.2399902 126.5926468 104.5498289  48.2005247
 120.3887890 101.2679902  43.3820799 119.4638387 101.1356117  43.5898491
 120.6372303 102.0474122  43.8790741 130.3372553  97.3348646  45.0281532
 129.4289430  97.2664054  44.7340293 130.2860148  97.8120591  45.8563357
 124.1589297  98.8106784  36.6664931 124.0388922  99.2563835  37.5050411
 123.4641885  99.1592102  36.1078469 117.7496701 100.9113176  44.2164588
 117.8789082 101.1647655  45.1304000 117.0694153 101.5040884  43.8969243
 121.9196189 111.5810426  40.3155062 121.8420218 112.5318251  40.3943543
 121.3157832 111.2356298  40.9729988 124.4113418  98.7538291  52.9716429
 123.6346752  99.3132212  52.9619294 125.0503981  99.2395074  53.4931299
 132.2034199  95.5365084  46.8059406 131.5608579  95.8297617  46.1599200
 131.6989128  95.4218005  47.6112602 129.8574363  99.2828257  37.4945265
 130.7692219  99.5155644  37.3192962 129.3484010  99.8665302  36.9320343
 122.6659791 101.5623745  52.5334396 123.4074475 102.1008789  52.2569220
 121.9596776 102.1890034  52.6905948 128.1415130 103.7052885  51.1306557
 128.5498486 103.2635296  50.3861190 127.4192392 103.1305513  51.3840750
 124.4946200  98.6425492  48.5040114 125.3407396  99.0664906  48.6474763
 124.4344838  97.9859116  49.1978678 128.4643945 104.2654076  44.8858846
 127.8352807 104.4299790  44.1834914 128.0769607 104.6795685  45.6569810
 132.3433177 105.2008514  42.2403210 131.6584215 105.5807415  41.6900243
 132.4277026 105.8103840  42.9735158 127.6445646  96.3029860  50.1621288
 127.4006578  97.0571921  49.6255564 127.9205576  96.6815208  50.9968535
 129.5984108 102.8468473  48.8398554 129.8101004 103.4900233  48.1632935
 129.5513857 102.0130789  48.3720484 127.2010337  95.4586293  45.7435126
 126.3394816  95.7567547  46.0351863 127.2272772  95.6756692  44.8116158
 124.0171907 104.0028484  42.1508931 124.4810252 104.2816187  41.3613554
 123.7528705 103.1011929  41.9682022 120.9095988 103.5499965  45.0888695
 121.4797345 103.9787234  44.4506179 121.5004100 103.2682550  45.7872880
 122.9540793 100.1251636  38.9598497 123.6564836 100.5772680  39.4272423
 122.6221421  99.4835455  39.5878390 121.4021154  98.7163393  53.3349706
 120.7719815  99.3979674  53.5685103 121.2957242  98.6046475  52.3902844
 116.6966127  98.3835189  44.2615630 115.9065181  98.6392718  43.7855741
 117.1877374  99.1983527  44.3667671 130.7129936 105.7240428  47.0120911
 131.5347380 105.3220615  46.7303593 130.7092339 105.6208662  47.9637027
 118.6480872  98.7479768  41.2199107 117.8512036  98.8598462  41.7382603
 118.4206464  99.0866420  40.3539997 124.4786540 105.2724471  49.1681621
 124.5430972 105.7344879  50.0039793 123.7697464 104.6421836  49.2963931
 114.9803830  98.6365679  46.6930621 115.2311868  99.5212689  46.9588197
 115.5163378  98.4570281  45.9205713 138.8035929 102.0679177  43.3605882
 138.0499638 101.4986575  43.2049887 138.9383471 102.0341841  44.3076517
 124.1934558 106.9392579  39.0360602 124.0580232 107.7844115  39.4645450
 124.7344370 107.1411857  38.2726536 120.6801897  93.0184159  55.6974957
 120.2868843  92.4650357  56.3722601 121.4968037  93.3294737  56.0881475
 117.6463955 104.4568017  39.6088527 118.1588475 105.2511267  39.7594092
 118.2986668 103.7594307  39.5422128 119.4558840 107.5733773  41.6911280
 119.6325468 108.4951738  41.5032264 120.2515673 107.2592192  42.1205660
 123.5969858  94.4342038  53.2895214 124.3379572  95.0349191  53.2099676
 123.8287781  93.6919676  52.7313256 118.7411196  99.6198405  51.5673443
 118.6264711  98.7183662  51.8680542 117.8855714  99.8662102  51.2158260
 125.8203034 107.5616145  53.1660944 125.3766888 106.7752524  52.8481848
 126.4820247 107.7495296  52.5004835 120.5790155 109.0911947  47.6921622
 121.1297580 108.9629010  46.9198616 119.7401631 109.3906836  47.3416515
 127.9184272 107.8418945  51.1942345 127.9002747 108.6627826  50.7022614
 128.8404192 107.7173021  51.4192486 124.3757326 105.3563075  52.0365854
 124.9085663 104.5951363  51.8065161 123.8471407 105.0636727  52.7790008
 127.5427021  90.4623141  47.5659495 127.1991290  91.3524782  47.4898606
 127.9105984  90.2724798  46.7029080 115.6112872 102.7856671  40.3848097
 116.4488094 103.1953680  40.1681805 115.7891139 101.8456113  40.3548291
 127.5077304 100.4531752  36.0731930 126.9923927 101.2236357  36.3120318
 127.2354612  99.7796888  36.6964992 125.0924415  95.2981453  41.1317169
 124.2366011  94.9088303  40.9522807 125.5051367  95.3773413  40.2716954
 126.6223561  92.8327796  45.5308729 126.1188357  92.7957931  44.7176534
 126.9154168  93.7420539  45.5905385 122.8666447  92.9166526  44.5374910
 123.7319444  92.7209334  44.1780800 122.9343956  92.6876877  45.4644267
 132.4811578 103.2064107  38.0085104 131.7041021 102.8675266  37.5640266
 133.1603059 103.2116730  37.3340069 127.2963607  98.3258844  37.8991712
 126.9913743  98.6404993  38.7501855 128.2494049  98.4040264  37.9419045
 125.7410039 104.4849067  39.5484666 125.2131400 103.7501827  39.2357903
 125.2397542 105.2623744  39.3024634 130.7202885 102.6798088  44.6651712
 130.0626559 103.3697349  44.7531840 131.5243284 103.0694520  45.0085698
 120.4728766  95.1468734  41.9091277 121.0472518  94.9243915  41.1764470
 121.0599749  95.2157428  42.6619878 129.5308344 101.0342461  42.7155654
 130.0440225 101.6672452  43.2177363 130.1809568 100.4343656  42.3499014
 120.7998354  97.1773195  35.9287162 119.9635666  97.5147881  36.2496437
 120.6603123  97.0422174  34.9914299 122.7751434  92.0209983  40.6366346
 122.1215846  91.7059000  40.0122961 122.7331908  91.3985723  41.3626169
 123.8862639 102.3029278  32.5519639 122.9789701 102.0718531  32.7510788
 124.3833671 101.5066897  32.7393620 126.7930718 111.0126785  35.4716325
 126.1192417 111.3158482  36.0801283 127.1796540 111.8155865  35.1221782
 126.0089175  98.5091916  44.9613994 125.0911736  98.7306863  44.8035682
 126.4249318  98.5838227  44.1025701 126.7924222  99.9083332  40.0916674
 127.5396041 100.4204729  39.7823796 127.0615812  99.5867384  40.9521068
 125.0650872 102.4041872  37.0743629 124.1562092 102.1200905  37.1716098
 125.0945956 102.8240951  36.2146936 130.2970140 106.0148462  40.8434796
 129.8432467 105.1739372  40.8999987 129.6664107 106.6509860  41.1809576
 129.2403059  96.9440448  42.0735464 128.5025816  96.4317834  42.4045706
 129.4929833  96.5040830  41.2618741 128.7403079 107.8524959  41.7784614
 129.0326053 108.4130016  41.0596980 129.2501700 108.1453520  42.5337773
 129.3414687  89.7216700  42.6677233 129.6473564  88.8614063  42.3803148
 130.0667292  90.3134320  42.4676227 115.6339043 100.1247387  41.0558831
 115.4363443  99.5316747  40.3309897 115.0785707  99.8199597  41.7734770
 123.6135766 100.0170493  43.1753424 123.6684376  99.0644329  43.0995901
 122.8026969 100.1729932  43.6594722 124.7626960 103.9450616  34.4131707
 124.3246390 103.2286475  33.9537345 125.5037401 104.1726731  33.8516799
 121.5528126  98.6347553  40.9343803 120.7395992  98.9341723  41.3408995
 122.0487121  98.2403242  41.6518285 123.7036704 108.6305310  42.8678068
 123.6612883 108.8566156  41.9386600 124.6199403 108.3968684  43.0163869
 127.1502338  99.0989377  49.7658697 127.5051726  99.3260850  50.6253163
 127.7974469  99.4307754  49.1435952 132.8800075 102.2207813  40.4708026
 132.7417974 102.4109409  39.5429215 132.5236294 102.9827196  40.9276077
 121.0442201  96.2065908  46.5505038 121.6841580  96.0654667  45.8528001
 120.2119732  95.9200422  46.1743640 132.9069455 104.2884340  45.4819297
 133.3405961 104.1959629  46.3302351 133.6201035 104.2641841  44.8439313
 121.8202505 105.5068339  42.6640030 122.6143104 105.0118659  42.4622605
 121.1094197 104.9786202  42.3007736 126.6397350 107.8886434  47.0152398
 126.6934372 108.4577371  47.7830114 125.7712131 108.0588319  46.6506435
 118.1285269  99.6511420  38.7399783 117.1982857  99.5895876  38.9569745
 118.2242741  99.1287373  37.9436424 118.0470818  96.1766233  41.3278025
 118.3077635  97.0911567  41.2187185 118.8687990  95.7090676  41.4774637
 119.5195743  97.5903990  48.4976849 120.1918796  97.3821353  47.8489498
 118.6925529  97.3926076  48.0582081 133.7685004 104.3308041  48.0152183
 133.9620894 105.2353851  48.2611458 133.6685622 103.8715460  48.8490768
 125.4221315  94.2165931  50.5142510 124.7749230  94.9155881  50.4206986
 126.1922330  94.6502075  50.8818758 128.8300113 104.4814784  53.5893063
 128.6785619 104.2525335  52.6723147 128.8204792 105.4385385  53.6024408
 125.5985449 102.0546696  48.5739330 126.5277509 102.2057856  48.4008297
 125.1776479 102.1430717  47.7187976 124.3973781 106.0797361  46.3437867
 124.2584867 105.7116145  47.2163805 123.6088377 106.5945000  46.1721825
 124.9921933 111.1806457  37.6863404 125.1673689 110.7094500  38.5009027
 124.3054721 111.8072223  37.9144665 125.9478996 105.4578963  43.7326705
 125.6128829 105.4179733  44.6284355 125.4482942 104.7923679  43.2597115
 119.9223240 100.8646593  49.2579286 119.7843038 100.1326832  49.8590825
 120.8328164 100.7755494  48.9763474 128.8838188 102.8034998  34.0063765
 128.2667359 102.0781826  33.9096817 128.4154676 103.5644358  33.6630839
 122.5505541 100.5766553  48.7462966 123.2605159  99.9359745  48.7049584
 122.5074849 100.8279448  49.6689147 130.5392320 107.5133906  51.6669545
 130.4804866 106.8293126  51.0000128 130.9411838 108.2552896  51.2150171
 121.2634475  97.5631771  50.5658605 120.7271832  97.1122509  51.2180202
 120.6751183  97.6977680  49.8229070 119.5583018 114.3295820  44.4603264
 119.7979617 114.9614344  45.1382283 118.7152215 113.9783860  44.7468623
 120.6736734  97.0220422  33.1285069 119.7966200  96.9009223  32.7647316
 121.1494487  96.2306500  32.8763958 130.5409727 105.4773490  49.8983525
 129.6536506 105.1399412  50.0209924 131.1108278 104.7456521  50.1352290
 112.1938874 101.8097582  43.2226576 112.8809914 101.4959312  42.6347592
 112.0387003 102.7138946  42.9493828 116.9973596  96.6987778  47.6511600
 116.9131785  96.0913448  46.9162010 116.1756302  97.1896797  47.6521096
 124.0710880 110.1374942  46.8644768 123.9981052 110.9429914  47.3764073
 123.6288273 110.3366908  46.0392789 123.8600660 109.3746712  40.3747590
 123.0768182 109.9168393  40.4685814 124.5593405 109.8920692  40.7741831
 127.1697310  95.1841342  43.0181795 127.6666009  94.4311304  42.6982865
 126.3984291  95.2205659  42.4525004 135.0227067 100.8881707  44.6600086
 135.0116944 101.7706423  44.2894020 134.1544447 100.5353258  44.4654624
 126.5309564 110.0361776  49.0202927 127.2437536 110.6709241  48.9478828
 126.0399592 110.1325642  48.2042929 128.2527091 103.9413029  40.5920218
 127.3183369 104.0614492  40.4224923 128.4303759 103.0385496  40.3280228
 123.7532279  97.3258725  42.7453480 123.3830066  96.7729765  43.4334385
 124.2491371  96.7216858  42.1928480 131.6399642  99.7830348  41.1270253
 132.1060094 100.6158340  41.0530555 132.0907142  99.3175330  41.8315511
 121.5821477 107.7856220  49.8408498 122.2830937 108.4192703  49.9937892
 121.1116592 108.1270951  49.0804137 129.7075873 106.1274170  38.1256405
 129.9835717 106.0130764  39.0350279 128.8380372 105.7291655  38.0868578
 129.6116305  92.1510935  45.1661154 128.6979385  92.3815162  45.3343361
 130.0409406  92.2349379  46.0175186 129.3822763 100.3400827  47.6661048
 128.7294213 100.5876735  47.0113501 129.7603143  99.5264966  47.3323525
 126.3429937 110.3760521  41.7689218 126.5252332 109.5582176  42.2316971
 127.1662923 110.5928213  41.3314108 126.6772103 109.3028706  39.0304267
 127.2059869 108.7921160  38.4174429 126.9400322 108.9871236  39.8949800
 125.4310336 101.0820638  54.1527085 124.7550973 100.9814768  54.8229460
 126.2537970 100.9259852  54.6163082 117.1789195 107.3192575  46.7739600
 117.7642632 106.5736263  46.9067504 116.9814034 107.6296532  47.6576264
 120.0327851 110.3543822  41.7902043 119.3638226 110.8389950  41.3066083
 119.8940720 110.6013043  42.7045421 111.7706850  99.8898175  45.4944043
 111.8090950  99.3561766  46.2881161 111.2647143  99.3633381  44.8755021
 124.1733119 112.3887566  48.3884701 124.7251427 112.5519187  49.1533786
 124.5139313 112.9792004  47.7164726 119.1497612  94.7362716  48.9906586
 119.2138939  95.5977547  48.5783983 119.0864733  94.1236717  48.2578944
 118.6249885  96.8085848  52.6379620 119.2521924  96.4262926  53.2517144
 117.7677804  96.5900050  53.0035312 129.0243993 107.2148823  54.2433355
 129.5683897 107.8278782  53.7488310 128.4430838 107.7728402  54.7600368
 115.4015428  98.6162277  38.5697975 115.6968869  97.7072956  38.5165028
 114.5003463  98.5950017  38.2478977 127.3101506 110.3369541  45.3748383
 127.1852646 109.5359281  44.8659329 127.9680598 110.8315735  44.8862353
 118.9309675  96.6918274  44.5525523 118.2096260  97.3054242  44.4132997
 119.7202930  97.2276039  44.4742169 129.3736415 108.1378561  47.0027933
 128.4266750 108.0183913  46.9306260 129.7219188 107.2501060  47.0854195
 121.7335988  94.0272700  50.8266175 122.2570390  94.2734997  51.5892484
 121.5148321  94.8592735  50.4069312 117.1303269  96.2976375  38.6937300
 116.8015975  95.4173754  38.5112406 117.4842640  96.2424044  39.5813689
 126.3782848 107.9331278  43.2032285 126.2307811 107.0047985  43.3839855
 127.2036342 107.9551368  42.7189361 120.2445092  96.5849345  39.0612778
 120.5841165  97.1135266  38.3391386 120.6917213  96.9229751  39.8371344
 129.9816970 108.7559836  44.2897158 130.9063517 108.5502698  44.1521609
 129.8132273 108.5076238  45.1986500 122.9388533  94.9686396  48.5115846
 122.5985354  94.1694209  48.9136526 122.2327539  95.2688106  47.9392679
 123.5905005  92.0535708  46.9643169 124.4131074  91.5796186  46.8422059
 123.8343069  92.8326192  47.4641855 122.2313240  95.0823966  37.2606070
 122.9521602  95.4605219  36.7569787 121.6078544  95.8012843  37.3641048
 126.3744362  95.7869115  38.1964403 126.5907977  96.6693753  37.8953231
 125.8938430  95.3955329  37.4670045 121.1143584  98.7454829  44.7735147
 120.9688164  99.0595132  45.6659429 120.6368787  99.3639729  44.2206046
 122.9739967  95.7357377  44.8216037 122.9601535  94.8398470  44.4848335
 123.6912395  95.7428040  45.4554323 124.8266097  96.1694717  46.8669164
 124.5683875  97.0911787  46.8653495 124.2951138  95.7725151  47.5569628
 129.7712286 109.2745504  39.6459250 129.9449164 108.7091926  38.8933102
 130.2641177 110.0746399  39.4638740 115.5889246 101.2860173  47.7122808
 115.0442714 102.0619981  47.8443083 116.4668596 101.6330977  47.5541930
 122.3776863  94.6171757  40.0903607 122.4992774  93.6888403  40.2894494
 122.0878905  94.6310443  39.1781922 125.2468053  92.3026667  43.2270327
 125.2689750  92.3666000  42.2722306 125.6636112  91.4631176  43.4210833
 135.6251677 102.0381927  41.2649549 136.0682823 101.2889252  40.8668673
 134.7478188 102.0292063  40.8823281 130.7587459 108.5912268  36.7456148
 131.4538363 109.2118961  36.9643463 131.1010609 107.7407620  37.0208526
 116.3755268 100.4130069  50.6052965 115.6337004 100.5612705  51.1917596
 116.0548012 100.6738335  49.7419715 132.6578882 106.0411974  38.2743479
 133.1830206 106.3799247  37.5492799 132.5701234 105.1058989  38.0906613
 124.3198930 109.9546047  50.4033355 124.6286057 109.7095194  51.2756055
 125.1174412 110.1592686  49.9152226 124.3419542 112.1083957  42.6338732
 123.9024533 111.6160336  43.3271589 125.0927659 111.5656925  42.3930807
 116.8211881 108.2995498  42.6363360 117.6469901 107.9999270  42.2562003
 116.4705933 107.5303120  43.0853149 121.7893415 107.6521966  44.7061034
 121.1673424 106.9892671  44.4063261 122.4598282 107.6783098  44.0234681
 115.0220487 106.2181824  43.5952294 114.1852395 105.7903999  43.4136295
 114.9944132 106.4114268  44.5323085 121.8617942  96.1303754  54.2993540
 121.9106098  97.0065877  53.9171309 122.4040456  95.5881147  53.7265183
 132.3472788 106.6744877  53.5794677 131.5568332 106.6569016  53.0399176
 132.1106142 107.2133171  54.3343713 132.4670663 103.5237344  50.8927405
 132.5168668 103.3587351  51.8342928 132.3584586 102.6564603  50.5025286
 121.3506922 106.2025890  38.1819494 121.4995042 106.8861354  37.5286167
 122.1573365 106.1830980  38.6968950 129.7574425  99.5068272  52.2086712
 130.6584288  99.3674737  51.9170710 129.8322400  99.6722727  53.1484889
 124.0917231  96.8835127  51.0539898 123.2220540  97.1768693  50.7822487
 124.3276711  97.4675572  51.7747162 133.9688860 105.9434285  51.1369427
 133.6773668 106.3064266  51.9732888 133.3560991 105.2301294  50.9582759
 135.1684542 103.5087165  43.6571997 136.0031433 103.9476969  43.8209557
 135.3043671 103.0325818  42.8380243 132.2176048 101.0666900  49.6049485
 132.6930170 101.2594546  48.7968336 131.2941613 101.1226086  49.3592868
 119.1059555 102.2291067  39.1880563 118.8605596 101.3253397  39.3860773
 119.2755469 102.2308218  38.2460041 126.7956264  93.1014744  48.5705319
 127.3138208  93.8375770  48.2451807 126.4411397  93.4078737  49.4052078
 118.3755202  97.9619425  36.6866724 117.6824447  98.0363780  36.0306760
 118.1306954  97.1979768  37.2088241 127.0468859  89.5215026  44.0906215
 127.3270612  88.8538215  44.7166642 127.8319465  89.7144122  43.5780879
 124.8502327 108.6974020  35.6531242 124.2776294 109.3164207  35.2001713
 125.4235121 109.2473382  36.1871163 130.9177717  97.9432660  47.8377790
 131.8695140  98.0430758  47.8590014 130.7481167  97.1510929  48.3475875
 128.9392096  95.0288243  48.0237191 128.3442028  95.3093256  47.3283680
 128.6541793  95.5182144  48.7953932 128.0699587 108.9811170  36.7839824
 129.0030260 108.9156732  36.9872699 127.9822800 109.8167437  36.3254356
 130.6987604 108.2977040  33.7443771 130.6201235 107.9636904  34.6379529
 131.5197270 108.7898808  33.7435244 133.3965795 101.1638780  46.9520090
 133.3642115 100.2254780  47.1379774 134.0066418 101.2422816  46.2185915
 125.2349126 100.0334833  32.9947294 126.1808230  99.9041041  33.0635712
 124.8563371  99.2949495  33.4716722 133.5460283  97.9549823  46.9978373
 133.0299332  97.1708280  46.8108302 134.4300232  97.6268540  47.1624893
 131.2071010  91.6990839  42.9574186 131.0095831  91.3905927  43.8417518
 131.8170716  92.4252478  43.0872116 139.2142345 102.2254787  46.0926127
 139.9445733 101.9640075  46.6533830 138.6049290 101.4883509  46.1328195
 137.2957642 100.3662649  46.6900578 136.5690805 100.2318614  46.0817070
 136.8804929 100.6739478  47.4957296 125.1187818 104.0852579  54.4547951
 126.0390828 104.2631178  54.6487998 125.0837401 103.1408624  54.3027650
 123.4192043  97.9584809  32.9302179 122.5123498  97.6617922  33.0064893
 123.6968024  97.6614627  32.0636465 114.3369983  99.2791173  43.3801226
 114.0172767  98.4256481  43.0875600 113.7903411  99.4939751  44.1359193
 118.1149891 101.9953614  47.0970732 118.3335900 102.9270721  47.1158766
 118.5275664 101.6361588  47.8825536 125.0354108  92.5021699  39.0846421
 124.2254837  92.1568784  39.4601667 125.7238525  92.1929243  39.6734032
 126.9644657  91.5799746  40.7070717 127.5175695  91.9995199  41.3660740
 127.2014743  90.6535494  40.7493673 122.9877756  97.5686819  56.4873481
 122.8874483  98.5181176  56.4185572 122.7699298  97.2405058  55.6149551
 122.1890827  94.8171744  33.0714158 123.0509991  95.1426643  33.3309976
 122.3741172  94.0303240  32.5587224 114.2058243 102.8994084  45.3494347
 113.5121715 102.4848037  44.8364302 114.9531234 102.9414621  44.7527766
 130.3423464  93.6900271  40.2149381 129.7622133  94.3485075  39.8327434
 130.0759397  92.8677615  39.8036799 128.7927030  93.0905328  42.4170702
 129.2926809  93.2021863  41.6085021 129.4362638  92.7866381  43.0571510
 122.8509026 100.9983958  55.3038543 122.3676108 101.7984318  55.5102432
 122.9369965 101.0091903  54.3505987 116.1194986 102.8312338  43.2260362
 116.0965674 102.9300025  42.2742245 116.4295622 103.6777489  43.5477528
 118.7782364 104.8888493  47.3406977 119.7325617 104.8572435  47.2736908
 118.5794887 104.4279117  48.1557202 119.3681746 103.4589609  49.9077774
 120.1874635 103.9533688  49.9312611 119.6418553 102.5421577  49.8795342
 129.1248342  95.8500361  39.2705730 128.2374197  96.1350012  39.0525924
 129.5402331  95.6894125  38.4233007 132.4762878  95.8746882  42.9860069
 133.2523268  96.3643335  43.2584686 131.7511012  96.3004936  43.4431938
 134.9135437  96.5874501  44.0434010 135.5079927  96.3470237  43.3327318
 134.9862020  95.8681632  44.6707546 117.1332592 110.4308112  44.3577174
 116.9987060 109.6708513  43.7915172 116.7164655 111.1549012  43.8905963
 128.2691555 105.6145036  33.3653750 128.9727405 105.8195038  33.9811405
 127.5454204 106.1821798  33.6302833 129.0989366 101.3654897  39.4856020
 129.0424567 101.8223449  38.6463652 129.6517708 100.6045582  39.3078863
 132.9094172  97.1544629  40.3106139 132.6531106  96.7541265  41.1414347
 132.2847040  97.8688423  40.1856279 137.2206509  99.8940702  42.8177431
 136.6606067  99.9633892  43.5908993 136.6150013  99.7181687  42.0976927
 120.2901718 111.3277429  44.5695617 120.1734102 112.2722862  44.4674307
 119.4694164 111.0250991  44.9581416 130.1778253 106.0527565  35.4152210
 131.0123857 105.6208764  35.2329685 130.0162596 105.8809579  36.3429104
 129.8324145 102.5559678  36.7808549 129.7772949 102.3903950  35.8396993
 129.2070200 103.2635711  36.9370739 114.6216660  97.7927743  50.6069971
 115.2675523  97.2826697  51.0957196 114.4133811  98.5296424  51.1813397
 127.1470052 104.8608590  56.1062112 128.0161212 105.0349243  55.7448747
 126.6676804 105.6803007  55.9837841 123.1420270  92.0567787  36.3593867
 123.1298940  93.0009627  36.5162138 124.0343692  91.8737933  36.0653329
 121.3156232 111.9805691  47.7851545 122.2183479 112.0129301  48.1018040
 121.0893602 111.0506142  47.7997881 123.0709834 110.7336678  44.4461624
 122.1205465 110.7338539  44.3325996 123.3742320 109.9869412  43.9297659
 126.9572390  88.6510564  40.6139804 126.1904786  88.0969051  40.7596487
 127.3683095  88.7232433  41.4753956 118.9614151  94.9395360  54.7044985
 119.8245612  94.5832165  54.9148310 118.3879562  94.6009255  55.3920390
 138.8062528 116.5697216  45.5107386 139.4440938 116.4503964  44.8070727
 138.6883371 117.5178060  45.5695339 135.6152234 116.5224644  45.4468911
 135.2770746 116.4065709  44.5589446 136.4842002 116.1215809  45.4269917
 131.4739050 118.3760121  41.4365802 130.9103915 118.2850058  40.6682090
 131.3591445 117.5560025  41.9168295 136.0972017 117.6759496  51.4055117
 136.0860658 117.2812294  50.5335620 136.2592657 116.9425569  51.9988888
 129.0203482 119.8711312  44.2750023 129.8124774 119.5302137  43.8596322
 129.2600132 119.9806287  45.1952176 132.8179278 120.4596608  50.3534301
 132.5269144 121.3642239  50.2380967 133.4536263 120.5013135  51.0678370
 133.7435485 117.8373456  46.9435660 134.3399057 117.6129479  46.2292623
 133.8010457 117.0958202  47.5461108 138.3603796 114.2948670  42.5860595
 139.1466886 113.8768093  42.2351012 138.6242501 115.1994762  42.7542243
 135.3788343 116.6551145  40.6856915 135.0146550 116.1281766  41.3969837
 136.2355459 116.2649614  40.5123401 135.0193830 111.6841044  35.6818264
 135.1868232 112.5521281  36.0488735 134.8290999 111.8468326  34.7579553
 137.7769163 120.1458023  47.3484094 137.4769886 121.0483062  47.2399902
 137.4320223 119.8790207  48.2005247 131.2281645 116.5971820  43.3820799
 130.3032141 116.4648034  43.5898491 131.4766058 117.3766039  43.8790741
 141.1766307 112.6640563  45.0281532 140.2683184 112.5955972  44.7340293
 141.1253903 113.1412508  45.8563357 134.9983051 114.1398702  36.6664931
 134.8782676 114.5855753  37.5050411 134.3035639 114.4884020  36.1078469
 128.5890456 116.2405094  44.2164588 128.7182837 116.4939573  45.1304000
 127.9087907 116.8332802  43.8969243 135.2507173 114.0830209  52.9716429
 134.4740507 114.6424129  52.9619294 135.8897736 114.5686992  53.4931299
 133.5053545 116.8915662  52.5334396 134.2468230 117.4300706  52.2569220
 132.7990531 117.5181951  52.6905948 138.9808885 119.0344803  51.1306557
 139.3892241 118.5927213  50.3861190 138.2586146 118.4597430  51.3840750
 135.3339955 113.9717410  48.5040114 136.1801150 114.3956823  48.6474763
 135.2738593 113.3151034  49.1978678 139.3037699 119.5945994  44.8858846
 138.6746562 119.7591708  44.1834914 138.9163362 120.0087603  45.6569810
 138.4839400 111.6321778  50.1621288 138.2400332 112.3863839  49.6255564
 138.7599331 112.0107126  50.9968535 140.4377863 118.1760390  48.8398554
 140.6494758 118.8192150  48.1632935 140.3907611 117.3422707  48.3720484
 138.0404092 110.7878211  45.7435126 137.1788571 111.0859465  46.0351863
 138.0666527 111.0048610  44.8116158 134.8565661 119.3320402  42.1508931
 135.3204007 119.6108105  41.3613554 134.5922459 118.4303846  41.9682022
 131.7489742 118.8791883  45.0888695 132.3191099 119.3079152  44.4506179
 132.3397854 118.5974468  45.7872880 133.7934547 115.4543554  38.9598497
 134.4958591 115.9064598  39.4272423 133.4615176 114.8127373  39.5878390
 132.2414909 114.0455311  53.3349706 131.6113570 114.7271591  53.5685103
 132.1350997 113.9338392  52.3902844 127.5359881 113.7127107  44.2615630
 126.7458935 113.9684635  43.7855741 128.0271129 114.5275445  44.3667671
 129.4874627 114.0771686  41.2199107 128.6905790 114.1890380  41.7382603
 129.2600219 114.4158338  40.3539997 135.3180294 120.6016389  49.1681621
 135.3824727 121.0636796  50.0039793 134.6091218 119.9713754  49.2963931
 125.8197584 113.9657597  46.6930621 126.0705623 114.8504607  46.9588197
 126.3557133 113.7862199  45.9205713 131.5195652 108.3476076  55.6974957
 131.1262597 107.7942275  56.3722601 132.3361792 108.6586655  56.0881475
 128.4857709 119.7859935  39.6088527 128.9982230 120.5803185  39.7594092
 129.1380422 119.0886225  39.5422128 130.2952594 122.9025691  41.6911280
 130.4719222 123.8243656  41.5032264 131.0909428 122.5884110  42.1205660
 134.4363613 109.7633956  53.2895214 135.1773326 110.3641109  53.2099676
 134.6681535 109.0211593  52.7313256 129.5804951 114.9490323  51.5673443
 129.4658466 114.0475580  51.8680542 128.7249468 115.1954020  51.2158260
 136.6596788 122.8908063  53.1660944 136.2160643 122.1044442  52.8481848
 137.3214002 123.0787214  52.5004835 131.4183910 124.4203865  47.6921622
 131.9691335 124.2920928  46.9198616 130.5795385 124.7198754  47.3416515
 135.2151081 120.6854993  52.0365854 135.7479417 119.9243281  51.8065161
 134.6865162 120.3928644  52.7790008 138.3820776 105.7915058  47.5659495
 138.0385045 106.6816700  47.4898606 138.7499738 105.6016716  46.7029080
 126.4506626 118.1148589  40.3848097 127.2881848 118.5245597  40.1681805
 126.6284894 117.1748031  40.3548291 135.9318169 110.6273370  41.1317169
 135.0759766 110.2380221  40.9522807 136.3445121 110.7065331  40.2716954
 137.4617316 108.1619714  45.5308729 136.9582112 108.1249849  44.7176534
 137.7547923 109.0712456  45.5905385 133.7060202 108.2458443  44.5374910
 134.5713199 108.0501252  44.1780800 133.7737711 108.0168795  45.4644267
 138.1357361 113.6550762  37.8991712 137.8307497 113.9696911  38.7501855
 139.0887804 113.7332182  37.9419045 131.3122521 110.4760651  41.9091277
 131.8866273 110.2535833  41.1764470 131.8993503 110.5449346  42.6619878
 140.3702098 116.3634378  42.7155654 140.8833980 116.9964370  43.2177363
 141.0203322 115.7635574  42.3499014 131.6392108 112.5065112  35.9287162
 130.8029420 112.8439799  36.2496437 131.4996878 112.3714092  34.9914299
 133.6145189 107.3501900  40.6366346 132.9609601 107.0350917  40.0122961
 133.5725663 106.7277641  41.3626169 136.8482929 113.8383834  44.9613994
 135.9305490 114.0598781  44.8035682 137.2643073 113.9130144  44.1025701
 137.6317977 115.2375249  40.0916674 138.3789796 115.7496647  39.7823796
 137.9009566 114.9159302  40.9521068 140.0796814 112.2732366  42.0735464
 139.3419571 111.7609752  42.4045706 140.3323587 111.8332747  41.2618741
 140.1808441 105.0508618  42.6677233 140.4867318 104.1905981  42.3803148
 140.9061046 105.6426238  42.4676227 126.4732797 115.4539304  41.0558831
 126.2757197 114.8608665  40.3309897 125.9179461 115.1491514  41.7734770
 134.4529521 115.3462411  43.1753424 134.5078131 114.3936247  43.0995901
 133.6420723 115.5021850  43.6594722 132.3921881 113.9639470  40.9343803
 131.5789746 114.2633641  41.3408995 132.8880875 113.5695159  41.6518285
 134.5430459 123.9597227  42.8678068 134.5006638 124.1858074  41.9386600
 135.4593158 123.7260602  43.0163869 137.9896093 114.4281295  49.7658697
 138.3445480 114.6552768  50.6253163 138.6368224 114.7599672  49.1435952
 131.8835956 111.5357826  46.5505038 132.5235335 111.3946585  45.8528001
 131.0513486 111.2492339  46.1743640 132.6596260 120.8360256  42.6640030
 133.4536858 120.3410577  42.4622605 131.9487952 120.3078120  42.3007736
 128.9679023 114.9803338  38.7399783 128.0376611 114.9187794  38.9569745
 129.0636495 114.4579291  37.9436424 128.8864572 111.5058151  41.3278025
 129.1471389 112.4203484  41.2187185 129.7081744 111.0382594  41.4774637
 130.3589497 112.9195908  48.4976849 131.0312551 112.7113270  47.8489498
 129.5319284 112.7217994  48.0582081 136.2615069 109.5457849  50.5142510
 135.6142984 110.2447799  50.4206986 137.0316085 109.9793993  50.8818758
 139.6693867 119.8106701  53.5893063 139.5179374 119.5817253  52.6723147
 139.6598547 120.7677303  53.6024408 136.4379204 117.3838614  48.5739330
 137.3671264 117.5349774  48.4008297 136.0170234 117.4722635  47.7187976
 135.2367536 121.4089278  46.3437867 135.0978621 121.0408063  47.2163805
 134.4482132 121.9236918  46.1721825 136.7872751 120.7870881  43.7326705
 136.4522583 120.7471651  44.6284355 136.2876696 120.1215597  43.2597115
 130.7616995 116.1938511  49.2579286 130.6236793 115.4618750  49.8590825
 131.6721918 116.1047411  48.9763474 133.3899295 115.9058470  48.7462966
 134.0998914 115.2651663  48.7049584 133.3468603 116.1571365  49.6689147
 132.1028229 112.8923688  50.5658605 131.5665586 112.4414427  51.2180202
 131.5144938 113.0269597  49.8229070 123.0332628 117.1389499  43.2226576
 123.7203668 116.8251230  42.6347592 122.8780757 118.0430864  42.9493828
 127.8367351 112.0279696  47.6511600 127.7525539 111.4205366  46.9162010
 127.0150057 112.5188714  47.6521096 138.0091064 110.5133260  43.0181795
 138.5059764 109.7603222  42.6982865 137.2378046 110.5497576  42.4525004
 139.0920845 119.2704947  40.5920218 138.1577124 119.3906409  40.4224923
 139.2697514 118.3677414  40.3280228 134.5926033 112.6550643  42.7453480
 134.2223821 112.1021683  43.4334385 135.0885126 112.0508776  42.1928480
 132.4215232 123.1148138  49.8408498 133.1224691 123.7484621  49.9937892
 131.9510347 123.4562869  49.0804137 140.4510059 107.4802853  45.1661154
 139.5373139 107.7107080  45.3343361 140.8803161 107.5641297  46.0175186
 140.2216518 115.6692745  47.6661048 139.5687968 115.9168652  47.0113501
 140.5996898 114.8556883  47.3323525 136.2704091 116.4112556  54.1527085
 135.5944728 116.3106685  54.8229460 137.0931725 116.2551770  54.6163082
 128.0182950 122.6484493  46.7739600 128.6036387 121.9028181  46.9067504
 127.8207788 122.9588449  47.6576264 130.8721605 125.6835740  41.7902043
 130.2031980 126.1681868  41.3066083 130.7334475 125.9304960  42.7045421
 122.6100605 115.2190093  45.4944043 122.6484704 114.6853684  46.2881161
 122.1040897 114.6925298  44.8755021 129.9891367 110.0654633  48.9906586
 130.0532693 110.9269464  48.5783983 129.9258487 109.4528635  48.2578944
 129.4643639 112.1377766  52.6379620 130.0915678 111.7554843  53.2517144
 128.6071558 111.9191968  53.0035312 126.2409182 113.9454195  38.5697975
 126.5362623 113.0364873  38.5165028 125.3397218 113.9241934  38.2478977
 129.7703429 112.0210192  44.5525523 129.0490015 112.6346159  44.4132997
 130.5596685 112.5567956  44.4742169 132.5729743 109.3564618  50.8266175
 133.0964144 109.6026915  51.5892484 132.3542076 110.1884653  50.4069312
 127.9697024 111.6268293  38.6937300 127.6409730 110.7465672  38.5112406
 128.3236394 111.5715961  39.5813689 131.0838847 111.9141262  39.0612778
 131.4234919 112.4427184  38.3391386 131.5310967 112.2521669  39.8371344
 133.7782288 110.2978313  48.5115846 133.4379108 109.4986126  48.9136526
 133.0721294 110.5980024  47.9392679 134.4298759 107.3827626  46.9643169
 135.2524829 106.9088104  46.8422059 134.6736823 108.1618109  47.4641855
 133.0706994 110.4115884  37.2606070 133.7915356 110.7897137  36.7569787
 132.4472298 111.1304761  37.3641048 137.2138117 111.1161033  38.1964403
 137.4301731 111.9985671  37.8953231 136.7332184 110.7247246  37.4670045
 131.9537338 114.0746746  44.7735147 131.8081919 114.3887049  45.6659429
 131.4762542 114.6931647  44.2206046 133.8133721 111.0649294  44.8216037
 133.7995290 110.1690388  44.4848335 134.5306149 111.0719958  45.4554323
 135.6659852 111.4986634  46.8669164 135.4077630 112.4203705  46.8653495
 135.1344892 111.1017069  47.5569628 126.4283000 116.6152091  47.7122808
 125.8836468 117.3911899  47.8443083 127.3062350 116.9622895  47.5541930
 133.2170617 109.9463675  40.0903607 133.3386528 109.0180321  40.2894494
 132.9272659 109.9602360  39.1781922 136.0861807 107.6318585  43.2270327
 136.1083504 107.6957918  42.2722306 136.5029866 106.7923094  43.4210833
 127.2149022 115.7421987  50.6052965 126.4730758 115.8904622  51.1917596
 126.8941767 116.0030253  49.7419715 127.6605636 123.6287416  42.6363360
 128.4863656 123.3291187  42.2562003 127.3099688 122.8595038  43.0853149
 132.6287169 122.9813884  44.7061034 132.0067178 122.3184589  44.4063261
 133.2992036 123.0075016  44.0234681 125.8614241 121.5473742  43.5952294
 125.0246149 121.1195916  43.4136295 125.8337886 121.7406185  44.5323085
 132.7011697 111.4595672  54.2993540 132.7499852 112.3357795  53.9171309
 133.2434211 110.9173065  53.7265183 134.9310985 112.2127044  51.0539898
 134.0614294 112.5060610  50.7822487 135.1670465 112.7967489  51.7747162
 129.9453309 117.5582985  39.1880563 129.6999351 116.6545315  39.3860773
 130.1149224 117.5600135  38.2460041 137.6350019 108.4306661  48.5705319
 138.1531963 109.1667688  48.2451807 137.2805152 108.7370655  49.4052078
 129.2148957 113.2911342  36.6866724 128.5218201 113.3655697  36.0306760
 128.9700708 112.5271686  37.2088241 137.8862613 104.8506944  44.0906215
 138.1664367 104.1830133  44.7166642 138.6713220 105.0436039  43.5780879
 139.7785851 110.3580161  48.0237191 139.1835783 110.6385174  47.3283680
 139.4935548 110.8474062  48.7953932 135.9581573 119.4144497  54.4547951
 136.8784582 119.5923096  54.6487998 135.9231156 118.4700542  54.3027650
 125.1763738 114.6083090  43.3801226 124.8566522 113.7548398  43.0875600
 124.6297166 114.8231668  44.1359193 128.9543645 117.3245531  47.0970732
 129.1729655 118.2562639  47.1158766 129.3669419 116.9653506  47.8825536
 135.8747863 107.8313616  39.0846421 135.0648591 107.4860701  39.4601667
 136.5632280 107.5221160  39.6734032 137.8038411 106.9091663  40.7070717
 138.3569450 107.3287117  41.3660740 138.0408498 105.9827411  40.7493673
 133.8271510 112.8978737  56.4873481 133.7268237 113.8473094  56.4185572
 133.6093053 112.5696976  55.6149551 133.0284582 110.1463662  33.0714158
 133.8903746 110.4718560  33.3309976 133.2134926 109.3595158  32.5587224
 125.0451998 118.2286002  45.3494347 124.3515469 117.8139954  44.8364302
 125.7924989 118.2706538  44.7527766 141.1817218 109.0192188  40.2149381
 140.6015887 109.6776992  39.8327434 140.9153151 108.1969533  39.8036799
 139.6320785 108.4197246  42.4170702 140.1320563 108.5313781  41.6085021
 140.2756393 108.1158299  43.0571510 133.6902781 116.3275876  55.3038543
 133.2069862 117.1276236  55.5102432 133.7763720 116.3383821  54.3505987
 126.9588740 118.1604255  43.2260362 126.9359428 118.2591943  42.2742245
 127.2689377 119.0069406  43.5477528 129.6176118 120.2180410  47.3406977
 130.5719372 120.1864353  47.2736908 129.4188642 119.7571034  48.1557202
 130.2075500 118.7881527  49.9077774 131.0268389 119.2825605  49.9312611
 130.4812308 117.8713495  49.8795342 139.9642096 111.1792279  39.2705730
 139.0767951 111.4641929  39.0525924 140.3796085 111.0186042  38.4233007
 127.9726347 125.7600030  44.3577174 127.8380815 125.0000431  43.7915172
 127.5558409 126.4840930  43.8905963 131.1295473 126.6569347  44.5695617
 131.0127857 127.6014779  44.4674307 130.3087919 126.3542909  44.9581416
 125.4610414 113.1219660  50.6069971 126.1069278 112.6118614  51.0957196
 125.2527565 113.8588342  51.1813397 137.9863807 120.1900508  56.1062112
 138.8554966 120.3641160  55.7448747 137.5070558 121.0094925  55.9837841
 133.9814025 107.3859705  36.3593867 133.9692695 108.3301545  36.5162138
 134.8737447 107.2029850  36.0653329 137.7966144 103.9802482  40.6139804
 137.0298540 103.4260968  40.7596487 138.2076849 104.0524350  41.4753956
 129.8007905 110.2687277  54.7044985 130.6639367 109.9124082  54.9148310
 129.2273316 109.9301172  55.3920390  61.4947038  -4.9327607  35.7448233
  62.2075010  -4.2980142  35.6724135  61.0037067  -4.8363741  34.9288235
  56.5458952  -7.1833164  36.5653804  57.2468411  -6.5496681  36.7183198
  56.0754067  -6.8418432  35.8049443  59.1370593  -2.5801818  35.1130008
  59.6888901  -2.4170196  35.8779093  59.4776787  -1.9897380  34.4410032
  59.2836405  -5.0143336  37.1278662  59.5923531  -5.2594189  38.0001362
  60.0811887  -4.8096698  36.6397532  56.2793707  -2.9883692  34.5096852
  57.1820953  -2.9560082  34.8263347  56.0531077  -3.9183241  34.5243188
  73.7700002   1.6007833  32.2352693  74.4078412   1.4814580  31.5316033
  73.6520845   2.5488677  32.2940645  70.5789708   1.5535261  32.1714218
  70.2408220   1.4376325  31.2834753  71.4479477   1.1526426  32.1515224
  66.4376524   3.4070737  28.1611109  65.8741389   3.3160674  27.3927397
  66.3228919   2.5870642  28.6413601  71.0609491   2.7070113  38.1300423
  71.0498132   2.3122911  37.2580927  71.2230131   1.9736185  38.7234195
  63.9840956   4.9021929  30.9995329  64.7762248   4.5612753  30.5841629
  64.2237606   5.0116904  31.9197483  72.0176083   7.0741705  23.4725574
  71.3664063   7.6595785  23.0859587  72.8120446   7.6047900  23.5320611
  67.7816753   5.4907224  37.0779607  67.4906619   6.3952855  36.9626274
  68.4173737   5.5323752  37.7923677  68.7072959   2.8684073  33.6680967
  69.3036532   2.6440095  32.9537930  68.7647931   2.1268818  34.2706415
  73.3241271  -0.6740713  29.3105901  74.1104360  -1.0921290  28.9596318
  73.5879975   0.2305379  29.4787550  73.4951348   4.7632137  24.0094558
  72.8597181   4.8366763  24.7215463  73.1648754   5.3525736  23.3313637
  70.3425817   1.6861761  27.4102222  69.9784025   1.1592382  28.1215144
  71.1992933   1.2960230  27.2368708  72.7406638   5.1768640  34.0729401
  72.4407361   6.0793679  33.9645208  72.3957697   4.9100823  34.9250554
  66.1919119   1.6282437  30.1066105  65.2669616   1.4958651  30.3143797
  66.4403532   2.4076656  30.6036048  63.5527930   1.2715710  30.9409895
  63.6820311   1.5250189  31.8549306  62.8725381   1.8643418  30.6214550
  67.7227417  11.9412960  27.0400369  67.6451447  12.8920785  27.1188849
  67.1189061  11.5958833  27.6975295  70.2144647  -0.8859174  39.6961736
  69.4377981  -0.3265254  39.6864600  70.8535210  -0.4002391  40.2176606
  75.6605591  -0.3569208  24.2190572  76.5723448  -0.1241822  24.0438269
  75.1515239   0.2267836  23.6565650  68.4691019   1.9226279  39.2579703
  69.2105704   2.4611323  38.9814526  67.7628005   2.5492568  39.4151254
  73.9446359   4.0655419  37.8551864  74.3529715   3.6237830  37.1106496
  73.2223621   3.4908047  38.1086057  70.2977429  -0.9971974  35.2285421
  71.1438624  -0.5732560  35.3720070  70.2376067  -1.6538349  35.9223984
  74.2675174   4.6256610  31.6104153  73.6384036   4.7902324  30.9080221
  73.8800836   5.0398220  32.3815117  78.1464406   5.5611048  28.9648517
  77.4615444   5.9409949  28.4145550  78.2308255   6.1706375  29.6980464
  75.4015337   3.2071007  35.5643860  75.6132233   3.8502767  34.8878241
  75.3545086   2.3733323  35.0965790  69.8203136   4.3631018  28.8754238
  70.2841481   4.6418721  28.0858861  69.5559934   3.4614463  28.6927329
  66.7127217   3.9102500  31.8134001  67.2828574   4.3389768  31.1751486
  67.3035329   3.6285084  32.5118187  67.2052383  -0.9234073  40.0595013
  66.5751044  -0.2417792  40.2930409  67.0988471  -1.0350991  39.1148151
  62.4997356  -1.2562277  30.9860937  61.7096410  -1.0004748  30.5101047
  62.9908603  -0.4413939  31.0912977  76.5161165   6.0842962  33.7366218
  77.3378609   5.6823150  33.4548899  76.5123568   5.9811197  34.6882333
  70.2817769   5.6327006  35.8926928  70.3462201   6.0947413  36.7285100
  69.5728693   5.0024371  36.0209238  60.7835059  -1.0031786  33.4175928
  61.0343097  -0.1184776  33.6833504  61.3194607  -1.1827185  32.6451019
  84.6067158   2.4281711  30.0851189  83.8530867   1.8589109  29.9295194
  84.7414699   2.3944375  31.0321824  69.9965786   7.2995113  25.7605908
  69.8611461   8.1446649  26.1890756  70.5375599   7.5014391  24.9971842
  63.4495184   4.8170551  26.3333834  63.9619704   5.6113801  26.4839398
  64.1017897   4.1196842  26.2667435  65.2590068   7.9336307  28.4156587
  65.4356697   8.8554272  28.2277571  66.0546902   7.6194727  28.8450966
  64.5442425  -0.0199061  38.2918750  64.4295940  -0.9213803  38.5925849
  63.6886943   0.2264636  37.9403566  71.6234263   7.9218680  39.8906251
  71.1798117   7.1355058  39.5727155  72.2851476   8.1097830  39.2250141
  66.3821384   9.4514481  34.4166929  66.9328809   9.3231545  33.6443923
  65.5432860   9.7509370  34.0661822  73.7215501   8.2021480  37.9187652
  73.7033976   9.0230361  37.4267921  74.6435421   8.0775555  38.1437793
  70.1788555   5.7165609  38.7611160  70.7116892   4.9553897  38.5310468
  69.6502636   5.4239261  39.5035315  78.2842807   3.5666641  24.7330410
  77.5072250   3.2277800  24.2885573  78.9634288   3.5719264  24.0585376
  71.5441268   4.8451602  26.2729972  71.0162629   4.1104361  25.9603210
  71.0428770   5.6226278  26.0269940  76.5234114   3.0400622  31.3897018
  75.8657788   3.7299883  31.4777147  77.3274513   3.4297054  31.7331005
  75.3339572   1.3944995  29.4400960  75.8471454   2.0274987  29.9422670
  75.9840796   0.7946190  29.0744320  72.5961947  11.3729319  22.1961631
  71.9223645  11.6761016  22.8046589  72.9827769  12.1758399  21.8467088
  71.8120403  -1.1305550  31.6859301  70.8942965  -0.9090603  31.5280989
  72.2280547  -1.0559239  30.8271008  72.5955451   0.2685866  26.8161981
  73.3427270   0.7807263  26.5069103  72.8647041  -0.0530081  27.6766375
  76.1001369   6.3750996  27.5680103  75.6463696   5.5341906  27.6245293
  75.4695335   7.0112395  27.9054883  74.5434308   8.2127493  28.5029921
  74.8357282   8.7732550  27.7842287  75.0532928   8.5056054  29.2583080
  69.4166995   0.3773027  29.8998731  69.4715605  -0.5753136  29.8241207
  68.6058197   0.5332466  30.3840029  67.3559355  -1.0049913  27.6589110
  66.5427221  -0.7055742  28.0654302  67.8518349  -1.3994224  28.3763592
  69.5067933   8.9907844  29.5923374  69.4644112   9.2168690  28.6631906
  70.4230632   8.7571219  29.7409175  72.9533567  -0.5408089  36.4904003
  73.3082955  -0.3136615  37.3498469  73.6005698  -0.2089712  35.8681259
  78.6831304   2.5810347  27.1953332  78.5449202   2.7711943  26.2674522
  78.3267523   3.3429730  27.6521384  66.8473430  -3.4331557  33.2750344
  67.4872809  -3.5742798  32.5773308  66.0150961  -3.7197044  32.8988946
  78.7100683   4.6486874  32.2064604  79.1437190   4.5562163  33.0547658
  79.4232264   4.6244375  31.5684620  67.6233734   5.8670873  29.3885337
  68.4174332   5.3721193  29.1867912  66.9125426   5.3388736  29.0253042
  72.4428578   8.2488969  33.7397705  72.4965601   8.8179905  34.5075420
  71.5743360   8.4190854  33.3751742  65.3226972  -2.0493475  35.2222156
  65.9950025  -2.2576113  34.5734805  64.4956758  -2.2471389  34.7827388
  79.5716233   4.6910575  34.7397489  79.7652123   5.5956386  34.9856764
  79.4716851   4.2317994  35.5736074  74.6331342   4.8417318  40.3138370
  74.4816848   4.6127869  39.3968454  74.6236021   5.7987919  40.3269715
  71.4016678   2.4149231  35.2984636  72.3308738   2.5660390  35.1253604
  70.9807708   2.5033251  34.4433283  70.2005010   6.4399895  33.0683174
  70.0616096   6.0718679  33.9409112  69.4119606   6.9547534  32.8967132
  70.7953162  11.5408991  24.4108711  70.9704918  11.0697035  25.2254333
  70.1085950  12.1674758  24.6389971  71.7510225   5.8181498  30.4572012
  71.4160058   5.7782268  31.3529662  71.2514171   5.1526214  29.9842422
  65.7254469   1.2249128  35.9824593  65.5874267   0.4929367  36.5836132
  66.6359392   1.1358028  35.7008781  68.3536770   0.9369087  35.4708273
  69.0636388   0.2962279  35.4294891  68.3106078   1.1881982  36.3934453
  76.3423548   7.8736440  38.3914852  76.2836094   7.1895660  37.7245435
  76.7443067   8.6155430  37.9395478  67.0665704  -2.0765695  37.2903912
  66.5303061  -2.5274957  37.9425508  66.4782412  -1.9419786  36.5474376
  65.3614247  14.6898354  31.1848571  65.6010845  15.3216878  31.8627589
  64.5183444  14.3386394  31.4713930  76.3440956   5.8376024  36.6228831
  75.4567734   5.5001946  36.7455230  76.9139507   5.1059056  36.8597597
  57.9970103   2.1700116  29.9471883  58.6841143   1.8561846  29.3592898
  57.8418231   3.0741481  29.6739134  62.8004825  -2.9409687  34.3756907
  62.7163014  -3.5484018  33.6407317  61.9787531  -2.4500669  34.3766403
  69.8742109  10.4977477  33.5890075  69.8012280  11.3032448  34.1009379
  69.4319502  10.6969442  32.7638096  69.6631889   9.7349247  27.0992896
  68.8799411  10.2770927  27.1931121  70.3624634  10.2523226  27.4987137
  80.8258296   1.2484242  31.3845393  80.8148172   2.1308957  31.0139326
  79.9575676   0.8955792  31.1899930  72.3340793  10.3964311  35.7448233
  73.0468765  11.0311775  35.6724135  71.8430821  10.4928177  34.9288235
  74.0558319   4.3015563  27.3165525  73.1214598   4.4217026  27.1470229
  74.2334988   3.3988030  27.0525535  69.5563507  -2.3138741  29.4698786
  69.1861295  -2.8667701  30.1579692  70.0522600  -2.9180607  28.9173786
  77.4430871   0.1432883  27.8515559  77.9091323   0.9760874  27.7775862
  77.8938371  -0.3222136  28.5560818  67.3852706   8.1458754  36.5653804
  68.0862166   8.7795237  36.7183198  66.9147821   8.4873486  35.8049443
  75.5107102   6.4876704  24.8501711  75.7866946   6.3733298  25.7595585
  74.6411601   6.0894189  24.8113884  75.1853992   0.7003362  34.3906355
  74.5325442   0.9479269  33.7358807  75.5634372  -0.1132500  34.0568832
  72.1461166  10.7363055  28.4934525  72.3283560   9.9184711  28.9562277
  72.9694152  10.9530747  28.0559415  72.4803331   9.6631240  25.7549573
  73.0091098   9.1523694  25.1419735  72.7431551   9.3473770  26.6195106
  71.2341565   1.4423173  40.8772392  70.5582202   1.3417302  41.5474767
  72.0569199   1.2862386  41.3408389  62.9820424   7.6795109  33.4984907
  63.5673861   6.9338797  33.6312811  62.7845263   7.9899066  34.3821571
  65.8359079  10.7146357  28.5147349  65.1669455  11.1992484  28.0311389
  65.6971949  10.9615577  29.4290728  57.5738079   0.2500709  32.2189350
  57.6122178  -0.2835700  33.0126468  57.0678372  -0.2764085  31.6000327
  69.9764348  12.7490100  35.1130008  70.5282656  12.9121722  35.8779093
  70.3170541  13.3394538  34.4410032  64.9528841  -4.9034750  35.7151892
  65.0170168  -4.0419919  35.3029290  64.8895961  -5.5160748  34.9824251
  64.4281114  -2.8311618  39.3624927  65.0553152  -3.2134540  39.9762451
  63.5709033  -3.0497416  39.7280619  74.8275222   7.5751358  40.9678662
  75.3715126   8.1881316  40.4733617  74.2462067   8.1330936  41.4845675
  73.1132735  10.6972076  32.0993690  72.9883875   9.8961815  31.5904635
  73.7711826  11.1918269  31.6107660  64.7340903  -2.9479192  31.2770830
  64.0127489  -2.3343224  31.1378303  65.5234159  -2.4121427  31.1987476
  75.1767644   8.4981096  33.7273240  74.2297979   8.3786447  33.6551567
  75.5250417   7.6103594  33.8099501  72.1814077   8.2933812  29.9277592
  72.0339039   7.3650519  30.1085162  73.0067570   8.3153903  29.4434667
  75.7848199   9.1162371  31.0142465  76.7094746   8.9105232  30.8766916
  75.6163502   8.8678772  31.9231806  66.9174813  -0.8942637  31.4980454
  66.7719393  -0.5802334  32.3904735  66.4400016  -0.2757737  30.9451353
  70.6297326  -3.4702749  33.5914471  70.3715104  -2.5485678  33.5898801
  70.0982367  -3.8672314  34.2814935  75.5743515   9.6348038  26.3704556
  75.7480392   9.0694461  25.6178409  76.0672406  10.4348933  26.1884046
  61.3920475   1.6462707  34.4368115  60.8473943   2.4222515  34.5688389
  62.2699825   1.9933512  34.2787237  81.4282906   2.3984461  27.9894856
  81.8714052   1.6491786  27.5913979  80.5509416   2.3894597  27.6068588
  76.5618687   8.9514802  23.4701455  77.2569592   9.5721495  23.6888769
  76.9041838   8.1010154  23.7453832  62.1786497   0.7732603  37.3298272
  61.4368233   0.9215239  37.9162902  61.8579241   1.0340869  36.4665021
  78.4610111   6.4014508  24.9988785  78.9861435   6.7401781  24.2738105
  78.3732463   5.4661523  24.8151920  70.1230159  10.3148582  37.1278662
  70.4317286  10.0697728  38.0001362  70.9205641  10.5195220  36.6397532
  70.1450771  12.4686491  29.3584039  69.7055762  11.9762870  30.0516895
  70.8958888  11.9259459  29.1176114  62.6243110   8.6598032  29.3608667
  63.4501130   8.3601804  28.9807310  62.2737162   7.8905655  29.8098455
  67.5924643   8.0124500  31.4306340  66.9704653   7.3495205  31.1308568
  68.2629510   8.0385632  30.7479988  60.8251715   6.5784359  30.3197600
  59.9883624   6.1506533  30.1381601  60.7975361   6.7716802  31.2568391
  67.6649171  -3.5093712  41.0238846  67.7137326  -2.6331589  40.6416616
  68.2071685  -4.0516319  40.4510489  78.1504017   7.0347412  40.3039983
  77.3599560   7.0171551  39.7644483  77.9137371   7.5735705  41.0589020
  78.2701892   3.8839878  37.6172712  78.3199897   3.7189885  38.5588235
  78.1615815   3.0167137  37.2270593  67.1538150   6.5628424  24.9064801
  67.3026271   7.2463888  24.2531473  67.9604594   6.5433514  25.4214256
  75.5605654  -0.1329194  38.9332019  76.4615517  -0.2722729  38.6416016
  75.6353629   0.0325261  39.8730196  69.8948459  -2.7562339  37.7785205
  69.0251769  -2.4628773  37.5067793  70.1307940  -2.1721894  38.4992468
  79.7720088   6.3036820  37.8614733  79.4804897   6.6666800  38.6978194
  79.1592220   5.5903828  37.6828065  80.9715771   3.8689699  30.3817304
  81.8062662   4.3079503  30.5454864  81.1074900   3.3928353  29.5625549
  78.0207277   1.4269434  36.3294791  78.4961398   1.6197080  35.5213643
  77.0972842   1.4828620  36.0838175  70.6533556   9.0576554  22.3776548
  70.0807523   9.6766741  21.9247020  71.2266350   9.6075916  22.9116470
  73.8730816   9.3413704  23.5085130  74.8061489   9.2759266  23.7118006
  73.7854028  10.1769971  23.0499663  76.5018832   8.6579575  20.4689078
  76.4232464   8.3239438  21.3624836  77.3228499   9.1501343  20.4680550
  79.1997024   1.5241314  33.6765397  79.1673344   0.5857315  33.8625080
  79.8097647   1.6025351  32.9431221  85.0173573   2.5857321  32.8171433
  85.7476962   2.3242609  33.3779137  84.4080519   1.8486043  32.8573501
  83.0988870   0.7265183  33.4145885  82.3722034   0.5921148  32.8062376
  82.6836157   1.0342012  34.2202603  70.9219047   4.4455113  41.1793258
  71.8422056   4.6233712  41.3733304  70.8868630   3.5011158  41.0272957
  63.9181119   2.3556148  33.8216039  64.1367129   3.2873256  33.8404073
  64.3306893   1.9964122  34.6070843  68.7908985  -2.0710647  43.2118788
  68.6905712  -1.1216290  43.1430879  68.5730527  -2.3992408  42.3394858
  60.0089472   3.2596618  32.0739654  59.3152943   2.8450571  31.5609608
  60.7562463   3.3017155  31.4773073  68.6540255   1.3586492  42.0283849
  68.1707337   2.1586852  42.2347738  68.7401194   1.3694437  41.0751293
  61.9226214   3.1914872  29.9505669  61.8996903   3.2902559  28.9987552
  62.2326851   4.0380023  30.2722835  64.5813592   5.2491027  34.0652283
  65.5356846   5.2174969  33.9982215  64.3826116   4.7881651  34.8802509
  65.1712974   3.8192143  36.6323081  65.9905863   4.3136222  36.6557918
  65.4449782   2.9024111  36.6040648  62.9363821  10.7910647  31.0822481
  62.8018289  10.0311047  30.5160479  62.5195883  11.5151546  30.6151270
  74.9020594   1.7257431  26.2101326  74.8455796   2.1825983  25.3708959
  75.4548937   0.9648116  26.0324169  66.0932947  11.6879964  31.2940924
  65.9765331  12.6325396  31.1919614  65.2725393  11.3853525  31.6826723
  75.9809482   6.4130099  22.1397516  76.8155085   5.9811298  21.9574991
  75.8193824   6.2412113  23.0674411  75.6355374   2.9162213  23.5053856
  75.5804177   2.7506484  22.5642300  75.0101429   3.6238245  23.6616045
  60.4247889  -1.8469723  37.3315278  61.0706752  -2.3570769  37.8202503
  60.2165040  -1.1101041  37.9058703  72.9501281   5.2211124  42.8307418
  73.8192441   5.3951777  42.4694053  72.4708032   6.0405541  42.7083148
  67.1187461  12.3408225  34.5096852  68.0214708  12.3731836  34.8263347
  66.8924831  11.4108676  34.5243188  68.8741063  11.0939212  31.1706931
  67.9236694  11.0941074  31.0571303  69.1773549  10.3471947  30.6542965
  64.7645380  -4.7002106  41.4290292  65.6276841  -5.0565301  41.6393617
  64.1910790  -5.0388211  42.1165696  84.6093757  16.9299750  32.2352693
  85.2472167  16.8106498  31.5316033  84.4914600  17.8780594  32.2940645
  81.4183463  16.8827178  32.1714218  81.0801974  16.7668243  31.2834753
  82.2873231  16.4818344  32.1515224  77.2770279  18.7362655  28.1611109
  76.7135144  18.6452592  27.3927397  77.1622674  17.9162559  28.6413601
  81.9003246  18.0362030  38.1300423  81.8891887  17.6414828  37.2580927
  82.0623885  17.3028103  38.7234195  74.8234711  20.2313846  30.9995329
  75.6156002  19.8904671  30.5841629  75.0631361  20.3408822  31.9197483
  82.8569837  22.4033623  23.4725574  82.2057817  22.9887703  23.0859587
  83.6514200  22.9339817  23.5320611  76.7825464  19.4922760  23.8712708
  77.5556340  18.9451747  23.7325584  77.1350863  20.3567009  24.0827169
  78.6210507  20.8199142  37.0779607  78.3300373  21.7244773  36.9626274
  79.2567491  20.8615670  37.7923677  79.5466714  18.1975991  33.6680967
  80.1430286  17.9732013  32.9537930  79.6041685  17.4560736  34.2706415
  79.1191742  15.6515426  21.5031158  79.3717263  15.1296947  20.7414621
  78.1816301  15.4881571  21.6057842  84.1635025  14.6551204  29.3105901
  84.9498114  14.2370627  28.9596318  84.4273729  15.5597296  29.4787550
  84.3345102  20.0924055  24.0094558  83.6990935  20.1658681  24.7215463
  84.0042509  20.6817653  23.3313637  89.5643452  14.5926437  30.2138880
  90.2968624  14.0225654  30.4476709  88.8082808  14.2048038  30.6545385
  78.8388031  17.5543532  23.7055533  78.7224289  16.8788435  24.3736617
  78.9490291  17.0675906  22.8887686  81.1819572  17.0153679  27.4102222
  80.8177779  16.4884300  28.1215144  82.0386688  16.6252148  27.2368708
  87.0868873   8.3048012  34.6733488  86.7552197   9.1743422  34.4494703
  86.4914486   7.9884296  35.3527519  80.8225059  12.0443579  22.4063571
  80.9899461  12.9123815  22.7734042  80.6322228  12.2070860  21.4824860
  83.5800392  20.5060558  34.0729401  83.2801115  21.4085596  33.9645208
  83.2351452  20.2392741  34.9250554  77.0312874  16.9574354  30.1066105
  76.1063370  16.8250568  30.3143797  77.2797287  17.7368574  30.6036048
  86.9797536  13.0243098  31.7526838  86.0714413  12.9558506  31.4585599
  86.9285132  13.5015043  32.5808664  80.8014280  14.5001236  23.3910237
  80.6813905  14.9458287  24.2295718  80.1066868  14.8486554  22.8323776
  74.3921685  16.6007628  30.9409895  74.5214066  16.8542107  31.8549306
  73.7119136  17.1935336  30.6214550  78.5621172  27.2704878  27.0400369
  78.4845202  28.2212703  27.1188849  77.9582815  26.9250750  27.6975295
  81.0538402  14.4432743  39.6961736  80.2771736  15.0026663  39.6864600
  81.6928965  14.9289526  40.2176606  88.8459182  11.2259536  33.5304712
  88.2033563  11.5192069  32.8844507  88.3414111  11.1112456  34.3357909
  86.4999346  14.9722709  24.2190572  87.4117202  15.2050096  24.0438269
  85.9908993  15.5559753  23.6565650  79.3084774  17.2518197  39.2579703
  80.0499458  17.7903241  38.9814526  78.6021759  17.8784485  39.4151254
  84.7840114  19.3947337  37.8551864  85.1923470  18.9529748  37.1106496
  84.0617375  18.8199965  38.1086057  81.1371184  14.3319944  35.2285421
  81.9832379  14.7559357  35.3720070  81.0769821  13.6753568  35.9223984
  85.1068928  19.9548528  31.6104153  84.4777791  20.1194242  30.9080221
  84.7194590  20.3690137  32.3815117  88.9858160  20.8902966  28.9648517
  88.3009198  21.2701867  28.4145550  89.0702009  21.4998292  29.6980464
  84.2870629  11.9924312  36.8866595  84.0431561  12.7466373  36.3500870
  84.5630560  12.3709660  37.7213842  86.2409092  18.5362925  35.5643860
  86.4525987  19.1794685  34.8878241  86.1938840  17.7025241  35.0965790
  83.8435321  11.1480745  32.4680432  82.9819800  11.4461999  32.7597170
  83.8697755  11.3651144  31.5361465  80.6596890  19.6922936  28.8754238
  81.1235236  19.9710639  28.0858861  80.3953688  18.7906380  28.6927329
  77.5520971  19.2394417  31.8134001  78.1222328  19.6681686  31.1751486
  78.1429083  18.9577002  32.5118187  79.5965776  15.8146088  25.6843803
  80.2989820  16.2667132  26.1517730  79.2646405  15.1729907  26.3123696
  78.0446138  14.4057845  40.0595013  77.4144798  15.0874126  40.2930409
  77.9382226  14.2940926  39.1148151  73.3391110  14.0729641  30.9860937
  72.5490164  14.3287169  30.5101047  73.8302358  14.8877979  31.0912977
  87.3554920  21.4134880  33.7366218  88.1772363  21.0115067  33.4548899
  87.3517323  21.3103114  34.6882333  75.2905856  14.4374220  27.9444413
  74.4937019  14.5492914  28.4627909  75.0631448  14.7760872  27.0785304
  81.1211523  20.9618923  35.8926928  81.1855956  21.4239331  36.7285100
  80.4122447  20.3316288  36.0209238  71.6228813  14.3260131  33.4175928
  71.8736852  15.2107141  33.6833504  72.1588362  14.1464733  32.6451019
  95.4460913  17.7573629  30.0851189  94.6924621  17.1881027  29.9295194
  95.5808454  17.7236293  31.0321824  80.8359541  22.6287031  25.7605908
  80.7005216  23.4738567  26.1890756  81.3769353  22.8306308  24.9971842
  77.3226880   8.7078611  42.4220264  76.9293826   8.1544809  43.0967908
  78.1393021   9.0189189  42.8126781  74.2888938  20.1462469  26.3333834
  74.8013459  20.9405719  26.4839398  74.9411651  19.4488759  26.2667435
  76.0983823  23.2628225  28.4156587  76.2750451  24.1846190  28.2277571
  76.8940656  22.9486644  28.8450966  80.2394841  10.1236490  40.0140520
  80.9804555  10.7243643  39.9344983  80.4712764   9.3814128  39.4558563
  75.3836179  15.3092857  38.2918750  75.2689695  14.4078114  38.5925849
  74.5280697  15.5556554  37.9403566  82.4628017  23.2510597  39.8906251
  82.0191871  22.4646976  39.5727155  83.1245231  23.4389748  39.2250141
  77.2215138  24.7806399  34.4166929  77.7722564  24.6523462  33.6443923
  76.3826614  25.0801288  34.0661822  84.5609255  23.5313397  37.9187652
  84.5427731  24.3522278  37.4267921  85.4829175  23.4067472  38.1437793
  81.0182309  21.0457527  38.7611160  81.5510646  20.2845815  38.5310468
  80.4896391  20.7531179  39.5035315  84.1852004   6.1517593  34.2904802
  83.8416274   7.0419234  34.2143912  84.5530967   5.9619250  33.4274387
  72.2537855  18.4751123  27.1093404  73.0913077  18.8848132  26.8927112
  72.4316123  17.5350565  27.0793598  84.1502287  16.1426204  22.7977237
  83.6348911  16.9130808  23.0365624  83.8779596  15.4691340  23.4210298
  81.7349398  10.9875905  27.8562475  80.8790994  10.5982755  27.6768114
  82.1476350  11.0667865  26.9962261  83.2648545   8.5222248  32.2554035
  82.7613340   8.4852383  31.4421840  83.5579152   9.4314991  32.3150692
  79.5091431   8.6060978  31.2620217  80.3744427   8.4103786  30.9026106
  79.5768940   8.3771329  32.1889574  89.1236561  18.8958558  24.7330410
  88.3466004  18.5569718  24.2885573  89.8028042  18.9011182  24.0585376
  83.9388590  14.0153296  24.6237018  83.6338726  14.3299445  25.4747161
  84.8919032  14.0934716  24.6664351  82.3835022  20.1743519  26.2729972
  81.8556384  19.4396279  25.9603210  81.8822525  20.9518196  26.0269940
  87.3627868  18.3692540  31.3897018  86.7051543  19.0591801  31.4777147
  88.1668267  18.7588972  31.7331005  77.1153750  10.8363186  28.6336584
  77.6897502  10.6138367  27.9009777  77.7024732  10.9051880  29.3865185
  86.1733327  16.7236912  29.4400960  86.6865209  17.3566904  29.9422670
  86.8234551  16.1238108  29.0744320  77.4423337  12.8667647  22.6532469
  76.6060649  13.2042333  22.9741744  77.3028106  12.7316626  21.7159606
  79.4176417   7.7104434  27.3611653  78.7640830   7.3953452  26.7368268
  79.3756892   7.0880175  28.0871476  80.5287622  17.9923729  19.2764945
  79.6214684  17.7612983  19.4756094  81.0258654  17.1961349  19.4638927
  83.4355701  26.7021237  22.1961631  82.7617400  27.0052933  22.8046589
  83.8221523  27.5050317  21.8467088  82.6514158  14.1986368  31.6859301
  81.7336719  14.4201315  31.5280989  83.0674301  14.2732678  30.8271008
  83.4349206  15.5977784  26.8161981  84.1821025  16.1099181  26.5069103
  83.7040795  15.2761836  27.6766375  81.7075856  18.0936324  23.7988935
  80.7987075  17.8095357  23.8961405  81.7370940  18.5135403  22.9392242
  86.9395123  21.7042914  27.5680103  86.4857450  20.8633824  27.6245293
  86.3089090  22.3404312  27.9054883  85.8828043  12.6334900  28.7980770
  85.1450800  12.1212286  29.1291013  86.1354816  12.1935281  27.9864047
  85.3828062  23.5419411  28.5029921  85.6751037  24.1024468  27.7842287
  85.8926683  23.8347972  29.2583080  85.9839670   5.4111152  29.3922540
  86.2898547   4.5508515  29.1048455  86.7092275   6.0028772  29.1921533
  72.2764026  15.8141838  27.7804137  72.0788426  15.2211199  27.0555204
  71.7210690  15.5094049  28.4980076  80.2560750  15.7064945  29.8998731
  80.3109360  14.7538781  29.8241207  79.4451952  15.8624384  30.3840029
  81.4051944  19.6345068  21.1377014  80.9671373  18.9180927  20.6782651
  82.1462384  19.8621183  20.5762105  78.1953110  14.3242005  27.6589110
  77.3820975  14.6236175  28.0654302  78.6912104  13.9297693  28.3763592
  80.3461688  24.3199762  29.5923374  80.3037866  24.5460608  28.6631906
  81.2624386  24.0863136  29.7409175  83.7927321  14.7883829  36.4904003
  84.1476709  15.0155302  37.3498469  84.4399453  15.1202206  35.8681259
  89.5225058  17.9102265  27.1953332  89.3842957  18.1003861  26.2674522
  89.1661277  18.6721648  27.6521384  77.6867184  11.8960360  33.2750344
  78.3266564  11.7549119  32.5773308  76.8544715  11.6094874  32.8988946
  89.5494438  19.9778792  32.2064604  89.9830945  19.8854081  33.0547658
  90.2626019  19.9536293  31.5684620  78.4627488  21.1962791  29.3885337
  79.2568087  20.7013111  29.1867912  77.7519181  20.6680654  29.0253042
  83.2822333  23.5780886  33.7397705  83.3359355  24.1471822  34.5075420
  82.4137114  23.7482771  33.3751742  74.7710252  15.3405872  25.4645090
  73.8407840  15.2790328  25.6815052  74.8667724  14.8181825  24.6681731
  74.6895801  11.8660685  28.0523331  74.9502618  12.7806018  27.9432492
  75.5112973  11.3985128  28.2019944  76.1620726  13.2798442  35.2222156
  76.8343780  13.0715805  34.5734805  75.3350513  13.0820528  34.7827388
  90.4109988  20.0202493  34.7397489  90.6045878  20.9248303  34.9856764
  90.3110606  19.5609912  35.5736074  82.0646298   9.9060383  37.2387817
  81.4174213  10.6050333  37.1452293  82.8347314  10.3396527  37.6064065
  85.4725096  20.1709235  40.3138370  85.3210603  19.9419787  39.3968454
  85.4629776  21.1279837  40.3269715  82.2410433  17.7441148  35.2984636
  83.1702493  17.8952308  35.1253604  81.8201463  17.8325169  34.4433283
  81.0398764  21.7691813  33.0683174  80.9009850  21.4010597  33.9409112
  80.2513361  22.2839452  32.8967132  81.6346916  26.8700909  24.4108711
  81.8098672  26.3988952  25.2254333  80.9479704  27.4966675  24.6389971
  82.5903980  21.1473415  30.4572012  82.2553812  21.1074185  31.3529662
  82.0907925  20.4818131  29.9842422  76.5648223  16.5541045  35.9824593
  76.4268021  15.8221284  36.5836132  77.4753147  16.4649945  35.7008781
  85.5263171  18.4929450  20.7309071  84.9092342  17.7676278  20.6342124
  85.0579660  19.2538810  20.3876146  79.1930524  16.2661005  35.4708273
  79.9030143  15.6254197  35.4294891  79.1499832  16.5173900  36.3934453
  87.1817303  23.2028358  38.3914852  87.1229849  22.5187578  37.7245435
  87.5836821  23.9447348  37.9395478  77.9059458  13.2526223  37.2903912
  77.3696815  12.8016961  37.9425508  77.3176167  13.3872131  36.5474376
  76.2008002  30.0190272  31.1848571  76.4404600  30.6508796  31.8627589
  75.3577198  29.6678312  31.4713930  77.3161717  12.7114874  19.8530376
  76.4391183  12.5903675  19.4892622  77.7919470  11.9200952  19.6009264
  87.1834710  21.1667942  36.6228831  86.2961489  20.8293864  36.7455230
  87.7533261  20.4350973  36.8597597  68.8363857  17.4992034  29.9471883
  69.5234897  17.1853764  29.3592898  68.6811986  18.4033398  29.6739134
  73.6398579  12.3882230  34.3756907  73.5556768  11.7807900  33.6407317
  72.8181286  12.8791249  34.3766403  80.7135863  25.8269394  33.5890075
  80.6406035  26.6324366  34.1009379  80.2713257  26.0261360  32.7638096
  80.5025643  25.0641164  27.0992896  79.7193165  25.6062845  27.1931121
  81.2018388  25.5815144  27.4987137  83.8122293  10.8735794  29.7427102
  84.3090993  10.1205756  29.4228172  83.0409275  10.9100110  29.1770311
  91.6652051  16.5776159  31.3845393  91.6541927  17.4600875  31.0139326
  90.7969430  16.2247710  31.1899930  83.1734547  25.7256228  35.7448233
  83.8862519  26.3603693  35.6724135  82.6824576  25.8220094  34.9288235
  84.8952074  19.6307481  27.3165525  83.9608353  19.7508943  27.1470229
  85.0728742  18.7279948  27.0525535  80.3957262  13.0153177  29.4698786
  80.0255050  12.4624217  30.1579692  80.8916354  12.4111310  28.9173786
  88.2824625  15.4724800  27.8515559  88.7485077  16.3052792  27.7775862
  88.7332126  15.0069782  28.5560818  78.2246461  23.4750672  36.5653804
  78.9255920  24.1087155  36.7183198  77.7541576  23.8165403  35.8049443
  86.3500856  21.8168622  24.8501711  86.6260700  21.7025216  25.7595585
  85.4805355  21.4186106  24.8113884  86.2541288   7.8405387  31.8906460
  85.3404368   8.0709614  32.0588667  86.6834389   7.9243831  32.7420493
  86.0247747  16.0295279  34.3906355  85.3719197  16.2771187  33.7358807
  86.4028126  15.2159417  34.0568832  82.9854920  26.0654972  28.4934525
  83.1677315  25.2476628  28.9562277  83.8087906  26.2822665  28.0559415
  83.3197086  24.9923158  25.7549573  83.8484852  24.4815612  25.1419735
  83.5825305  24.6765688  26.6195106  82.0735320  16.7715090  40.8772392
  81.3975957  16.6709220  41.5474767  82.8962953  16.6154304  41.3408389
  73.8214179  23.0087027  33.4984907  74.4067615  22.2630715  33.6312811
  73.6239017  23.3190984  34.3821571  76.6752834  26.0438274  28.5147349
  76.0063209  26.5284402  28.0311389  76.5365704  26.2907495  29.4290728
  68.4131833  15.5792627  32.2189350  68.4515933  15.0456218  33.0126468
  67.9072126  15.0527833  31.6000327  80.8158102  28.0782018  35.1130008
  81.3676410  28.2413639  35.8779093  81.1564296  28.6686456  34.4410032
  75.7922596  10.4257168  35.7151892  75.8563922  11.2871998  35.3029290
  75.7289716   9.8131169  34.9824251  75.2674868  12.4980300  39.3624927
  75.8946907  12.1157377  39.9762451  74.4102787  12.2794502  39.7280619
  85.6668977  22.9043275  40.9678662  86.2108881  23.5173234  40.4733617
  85.0855822  23.4622854  41.4845675  72.0440411  14.3056729  25.2943281
  72.3393852  13.3967408  25.2410335  71.1428447  14.2844469  24.9724284
  83.9526490  26.0263993  32.0993690  83.8277629  25.2253733  31.5904635
  84.6105581  26.5210187  31.6107660  75.5734658  12.3812726  31.2770830
  74.8521244  12.9948693  31.1378303  76.3627914  12.9170491  31.1987476
  86.0161398  23.8273013  33.7273240  85.0691734  23.7078365  33.6551567
  86.3644171  22.9395511  33.8099501  78.3760971   9.7167152  37.5511482
  78.8995373   9.9629449  38.3137791  78.1573305  10.5487187  37.1314619
  73.7728253  11.9870827  25.4182607  73.4440959  11.1068206  25.2357712
  74.1267623  11.9318496  26.3058996  83.0207831  23.6225730  29.9277592
  82.8732794  22.6942437  30.1085162  83.8461325  23.6445820  29.4434667
  76.8870076  12.2743797  25.7858084  77.2266148  12.8029718  25.0636693
  77.3342196  12.6124203  26.5616651  86.6241953  24.4454288  31.0142465
  87.5488501  24.2397150  30.8766916  86.4557257  24.1970689  31.9231806
  79.5813516  10.6580847  35.2361152  79.2410337   9.8588660  35.6381832
  78.8752523  10.9582558  34.6637985  80.2329988   7.7430160  33.6888475
  81.0556058   7.2690638  33.5667366  80.4768052   8.5220644  34.1887162
  78.8738223  10.7718418  23.9851377  79.5946585  11.1499671  23.4815094
  78.2503527  11.4907295  24.0886355  83.0169346  11.4763567  24.9209709
  83.2332960  12.3588205  24.6198537  82.5363413  11.0849781  24.1915351
  77.7568567  14.4349280  31.4980454  77.6113148  14.7489584  32.3904735
  77.2793771  15.0534181  30.9451353  79.6164950  11.4251828  31.5461343
  79.6026519  10.5292922  31.2093641  80.3337378  11.4322492  32.1799630
  81.4691081  11.8589169  33.5914471  81.2108858  12.7806239  33.5898801
  80.9376121  11.4619603  34.2814935  86.4137269  24.9639956  26.3704556
  86.5874147  24.3986378  25.6178409  86.9066161  25.7640851  26.1884046
  72.2314229  16.9754625  34.4368115  71.6867697  17.7514433  34.5688389
  73.1093579  17.3225429  34.2787237  79.0201846  10.3066209  26.8148914
  79.1417757   9.3782855  27.0139801  78.7303888  10.3204895  25.9027229
  81.8893036   7.9921119  29.9515633  81.9114733   8.0560452  28.9967613
  82.3061095   7.1525628  30.1456140  92.2676661  17.7276379  27.9894856
  92.7107807  16.9783704  27.5913979  91.3903171  17.7186515  27.6068588
  87.4012442  24.2806720  23.4701455  88.0963347  24.9013413  23.6888769
  87.7435592  23.4302071  23.7453832  73.0180251  16.1024521  37.3298272
  72.2761987  16.2507156  37.9162902  72.6972995  16.3632787  36.4665021
  89.3003865  21.7306426  24.9988785  89.8255189  22.0693698  24.2738105
  89.2126218  20.7953441  24.8151920  80.9623914  25.6440499  37.1278662
  81.2711040  25.3989646  38.0001362  81.7599396  25.8487138  36.6397532
  80.9844526  27.7978409  29.3584039  80.5449516  27.3054788  30.0516895
  81.7352643  27.2551377  29.1176114  73.4636865  23.9889950  29.3608667
  74.2894885  23.6893722  28.9807310  73.1130917  23.2197572  29.8098455
  78.4318398  23.3416418  31.4306340  77.8098407  22.6787123  31.1308568
  79.1023265  23.3677550  30.7479988  71.6645470  21.9076276  30.3197600
  70.8277378  21.4798451  30.1381601  71.6369115  22.1008720  31.2568391
  78.5042925  11.8198206  41.0238846  78.5531081  12.6960329  40.6416616
  79.0465440  11.2775599  40.4510489  88.9897771  22.3639329  40.3039983
  88.1993315  22.3463468  39.7644483  88.7531126  22.9027623  41.0589020
  89.1095646  19.2131796  37.6172712  89.1593651  19.0481803  38.5588235
  89.0009569  18.3459055  37.2270593  77.9931905  21.8920341  24.9064801
  78.1420025  22.5755806  24.2531473  78.7998348  21.8725431  25.4214256
  86.3999409  15.1962724  38.9332019  87.3009271  15.0569189  38.6416016
  86.4747383  15.3617179  39.8730196  80.7342214  12.5729578  37.7785205
  79.8645523  12.8663145  37.5067793  80.9701694  13.1570023  38.4992468
  90.6113843  21.6328737  37.8614733  90.3198651  21.9958718  38.6978194
  89.9985974  20.9195746  37.6828065  91.8109525  19.1981617  30.3817304
  92.6456417  19.6371421  30.5454864  91.9468654  18.7220270  29.5625549
  88.8601031  16.7561352  36.3294791  89.3355153  16.9488998  35.5213643
  87.9366597  16.8120538  36.0838175  75.7484538  17.9185519  25.9125870
  75.5030580  17.0147849  26.1106080  75.9180452  17.9202669  24.9705348
  83.4381248   8.7909195  35.2950625  83.9563192   9.5270222  34.9697114
  83.0836380   9.0973189  36.1297384  75.0180185  13.6513877  23.4112031
  74.3249430  13.7258232  22.7552067  74.7731937  12.8874220  23.9333548
  83.6893842   5.2109478  30.8151522  83.9695596   4.5432667  31.4411948
  84.4744449   5.4038574  30.3026186  81.4927310  24.3868472  22.3776548
  80.9201277  25.0058659  21.9247020  82.0660104  24.9367834  22.9116470
  87.5602700  13.6327112  34.5623097  88.5120123  13.7325210  34.5835321
  87.3906151  12.8405381  35.0721181  85.5817080  10.7182695  34.7482498
  84.9867012  10.9987708  34.0528987  85.2966776  11.2076596  35.5199239
  84.7124570  24.6705622  23.5085130  85.6455243  24.6051184  23.7118006
  84.6247783  25.5061889  23.0499663  87.3412587  23.9871492  20.4689078
  87.2626218  23.6531356  21.3624836  88.1622254  24.4793260  20.4680550
  90.0390778  16.8533232  33.6765397  90.0067098  15.9149232  33.8625080
  90.6491402  16.9317268  32.9431221  81.8774109  15.7229285  19.7192601
  82.8233214  15.5935493  19.7881019  81.4988354  14.9843947  20.1962029
  90.1885266  13.6444275  33.7223680  89.6724315  12.8602732  33.5353609
  91.0725215  13.3162992  33.8870199  87.8495993   7.3885291  29.6819492
  87.6520815   7.0800379  30.5662824  88.4595699   8.1146930  29.8117422
  95.8567328  17.9149238  32.8171433  96.5870716  17.6534527  33.3779137
  95.2474273  17.1777960  32.8573501  93.9382625  16.0557101  33.4145885
  93.2115789  15.9213066  32.8062376  93.5229912  16.3633930  34.2202603
  81.7612801  19.7747031  41.1793258  82.6815811  19.9525630  41.3733304
  81.7262384  18.8303076  41.0272957  80.0617026  13.6479261  19.6547486
  79.1548481  13.3512374  19.7310199  80.3393007  13.3509079  18.7881772
  70.9794966  14.9685624  30.1046532  70.6597751  14.1150933  29.8120906
  70.4328395  15.1834203  30.8604500  74.7574874  17.6848065  33.8216039
  74.9760884  18.6165173  33.8404073  75.1700648  17.3256040  34.6070843
  81.6779092   8.1916151  25.8091727  80.8679820   7.8463236  26.1846973
  82.3663509   7.8823694  26.3979339  83.6069640   7.2694198  27.4316024
  84.1600679   7.6889651  28.0906047  83.8439726   6.3429946  27.4738980
  79.6302739  13.2581271  43.2118788  79.5299466  14.2075628  43.1430879
  79.4124281  12.9299510  42.3394858  78.8315811  10.5066196  19.7959465
  79.6934975  10.8321095  20.0555282  79.0166155   9.7197692  19.2832531
  70.8483226  18.5888536  32.0739654  70.1546698  18.1742489  31.5609608
  71.5956217  18.6309072  31.4773073  86.9848447   9.3794723  26.9394688
  86.4047116  10.0379527  26.5572740  86.7184380   8.5572067  26.5282106
  85.4352013   8.7799780  29.1416008  85.9351792   8.8916315  28.3330327
  86.0787621   8.4760833  29.7816817  79.4934009  16.6878410  42.0283849
  79.0101091  17.4878770  42.2347738  79.5794948  16.6986355  41.0751293
  72.7619969  18.5206790  29.9505669  72.7390657  18.6194477  28.9987552
  73.0720605  19.3671940  30.2722835  75.4207347  20.5782945  34.0652283
  76.3750600  20.5466887  33.9982215  75.2219870  20.1173568  34.8802509
  76.0106729  19.1484061  36.6323081  76.8299618  19.6428139  36.6557918
  76.2843537  18.2316029  36.6040648  85.7673325  11.5394813  25.9951036
  84.8799180  11.8244464  25.7771231  86.1827314  11.3788576  25.1478313
  89.1187861  11.5641334  29.7105376  89.8948251  12.0537786  29.9829992
  88.3935995  11.9899388  30.1677245  91.5560420  12.2768953  30.7679316
  92.1504911  12.0364689  30.0572624  91.6287004  11.5576084  31.3952852
  73.7757576  26.1202564  31.0822481  73.6412044  25.3602965  30.5160479
  73.3589638  26.8443464  30.6151270  84.9116539  21.3039488  20.0899056
  85.6152389  21.5089490  20.7056712  84.1879187  21.8716250  20.3548140
  85.7414349  17.0549349  26.2101326  85.6849550  17.5117900  25.3708959
  86.2942691  16.2940034  26.0324169  89.5519155  12.8439081  27.0351446
  89.2956089  12.4435717  27.8659654  88.9272023  13.5582875  26.9101585
  93.8631493  15.5835154  29.5422737  93.3031051  15.6528343  30.3154299
  93.2574996  15.4076139  28.8222234  76.9326701  27.0171881  31.2940924
  76.8159086  27.9617314  31.1919614  76.1119148  26.7145443  31.6826723
  86.8203236  21.7422017  22.1397516  87.6548840  21.3103215  21.9574991
  86.6587579  21.5704031  23.0674411  86.4749128  18.2454130  23.5053856
  86.4197932  18.0798402  22.5642300  85.8495183  18.9530163  23.6616045
  71.2641643  13.4822195  37.3315278  71.9100507  12.9721149  37.8202503
  71.0558794  14.2190876  37.9058703  83.7895035  20.5503042  42.8307418
  84.6586195  20.7243694  42.4694053  83.3101787  21.3697459  42.7083148
  79.7845254   7.7462239  23.0839174  79.7723923   8.6904079  23.2407445
  80.6768676   7.5632385  22.7898635  77.9581216  27.6700143  34.5096852
  78.8608462  27.7023753  34.8263347  77.7318586  26.7400594  34.5243188
  79.7134818  26.4231130  31.1706931  78.7630449  26.4232991  31.0571303
  80.0167304  25.6763864  30.6542965  83.5997373   4.3405016  27.3385111
  82.8329769   3.7863503  27.4841793  84.0108078   4.4126885  28.1999262
  75.6039134  10.6289812  41.4290292  76.4670596  10.2726617  41.6393617
  75.0304545  10.2903707  42.1165696  95.4487511  32.2591668  32.2352693
  96.0865921  32.1398415  31.5316033  95.3308354  33.2072512  32.2940645
  92.2577217  32.2119096  32.1714218  91.9195729  32.0960161  31.2834753
  93.1266986  31.8110261  32.1515224  88.1164033  34.0654573  28.1611109
  87.5528898  33.9744510  27.3927397  88.0016428  33.2454477  28.6413601
  92.7397000  33.3653948  38.1300423  92.7285641  32.9706746  37.2580927
  92.9017640  32.6320020  38.7234195  85.6628465  35.5605764  30.9995329
  86.4549757  35.2196589  30.5841629  85.9025115  35.6700739  31.9197483
  93.6963592  37.7325540  23.4725574  93.0451572  38.3179621  23.0859587
  94.4907955  38.2631735  23.5320611  87.6219219  34.8214677  23.8712708
  88.3950095  34.2743664  23.7325584  87.9744618  35.6858927  24.0827169
  89.4604262  36.1491060  37.0779607  89.1694127  37.0536691  36.9626274
  90.0961246  36.1907587  37.7923677  90.3860468  33.5267908  33.6680967
  90.9824041  33.3023931  32.9537930  90.4435440  32.7852654  34.2706415
  89.9585497  30.9807344  21.5031158  90.2111017  30.4588865  20.7414621
  89.0210056  30.8173489  21.6057842  95.0028780  29.9843122  29.3105901
  95.7891869  29.5662545  28.9596318  95.2667484  30.8889214  29.4787550
  95.1738857  35.4215972  24.0094558  94.5384690  35.4950599  24.7215463
  94.8436263  36.0109571  23.3313637 100.4037207  29.9218355  30.2138880
 101.1362379  29.3517572  30.4476709  99.6476562  29.5339956  30.6545385
  89.6781786  32.8835449  23.7055533  89.5618044  32.2080353  24.3736617
  89.7884045  32.3967823  22.8887686  92.0213326  32.3445597  27.4102222
  91.6571534  31.8176218  28.1215144  92.8780442  31.9544066  27.2368708
  97.9262627  23.6339929  34.6733488  97.5945952  24.5035340  34.4494703
  97.3308240  23.3176213  35.3527519  91.6618813  27.3735496  22.4063571
  91.8293216  28.2415733  22.7734042  91.4715982  27.5362778  21.4824860
  94.4194147  35.8352475  34.0729401  94.1194870  36.7377514  33.9645208
  94.0745206  35.5684658  34.9250554  87.8706628  32.2866272  30.1066105
  86.9457125  32.1542486  30.3143797  88.1191041  33.0660491  30.6036048
  97.8191290  28.3535015  31.7526838  96.9108168  28.2850424  31.4585599
  97.7678886  28.8306960  32.5808664  91.6408034  29.8293154  23.3910237
  91.5207659  30.2750205  24.2295718  90.9460623  30.1778471  22.8323776
  85.2315439  31.9299546  30.9409895  85.3607820  32.1834025  31.8549306
  84.5512890  32.5227254  30.6214550  89.4014926  42.5996796  27.0400369
  89.3238956  43.5504621  27.1188849  88.7976570  42.2542668  27.6975295
  91.8932156  29.7724661  39.6961736  91.1165490  30.3318581  39.6864600
  92.5322719  30.2581444  40.2176606  99.6852937  26.5551454  33.5304712
  99.0427317  26.8483987  32.8844507  99.1807865  26.4404374  34.3357909
  97.3393100  30.3014627  24.2190572  98.2510957  30.5342014  24.0438269
  96.8302748  30.8851671  23.6565650  90.1478528  32.5810114  39.2579703
  90.8893213  33.1195158  38.9814526  89.4415514  33.2076403  39.4151254
  95.6233868  34.7239255  37.8551864  96.0317224  34.2821665  37.1106496
  94.9011130  34.1491882  38.1086057  91.9764938  29.6611862  35.2285421
  92.8226133  30.0851275  35.3720070  91.9163576  29.0045486  35.9223984
  95.9462683  35.2840445  31.6104153  95.3171545  35.4486160  30.9080221
  95.5588345  35.6982055  32.3815117  99.8251915  36.2194883  28.9648517
  99.1402953  36.5993785  28.4145550  99.9095764  36.8290210  29.6980464
  95.1264383  27.3216230  36.8866595  94.8825315  28.0758290  36.3500870
  95.4024314  27.7001578  37.7213842  97.0802846  33.8654842  35.5643860
  97.2919742  34.5086602  34.8878241  97.0332595  33.0317159  35.0965790
  94.6829075  26.4772663  32.4680432  93.8213554  26.7753917  32.7597170
  94.7091510  26.6943062  31.5361465  91.4990645  35.0214854  28.8754238
  91.9628990  35.3002556  28.0858861  91.2347443  34.1198298  28.6927329
  88.3914726  34.5686335  31.8134001  88.9616083  34.9973603  31.1751486
  88.9822838  34.2868920  32.5118187  90.4359531  31.1438006  25.6843803
  91.1383574  31.5959050  26.1517730  90.1040159  30.5021825  26.3123696
  88.8839892  29.7349763  40.0595013  88.2538553  30.4166043  40.2930409
  88.7775980  29.6232844  39.1148151  84.1784865  29.4021559  30.9860937
  83.3883919  29.6579087  30.5101047  84.6696112  30.2169896  31.0912977
  98.1948674  36.7426798  33.7366218  99.0166118  36.3406985  33.4548899
  98.1911077  36.6395032  34.6882333  86.1299610  29.7666138  27.9444413
  85.3330773  29.8784832  28.4627909  85.9025202  30.1052790  27.0785304
  91.9605278  36.2910841  35.8926928  92.0249710  36.7531248  36.7285100
  91.2516202  35.6608206  36.0209238  82.4622568  29.6552049  33.4175928
  82.7130606  30.5399059  33.6833504  82.9982116  29.4756651  32.6451019
 106.2854667  33.0865546  30.0851189 105.5318376  32.5172944  29.9295194
 106.4202208  33.0528211  31.0321824  91.6753295  37.9578948  25.7605908
  91.5398970  38.8030484  26.1890756  92.2163108  38.1598226  24.9971842
  88.1620635  24.0370528  42.4220264  87.7687581  23.4836727  43.0967908
  88.9786775  24.3481107  42.8126781  85.1282693  35.4754387  26.3333834
  85.6407213  36.2697637  26.4839398  85.7805406  34.7780677  26.2667435
  86.9377577  38.5920143  28.4156587  87.1144206  39.5138108  28.2277571
  87.7334411  38.2778562  28.8450966  91.0788596  25.4528407  40.0140520
  91.8198309  26.0535561  39.9344983  91.3106519  24.7106045  39.4558563
  86.2229934  30.6384775  38.2918750  86.1083449  29.7370032  38.5925849
  85.3674452  30.8848471  37.9403566  93.3021772  38.5802515  39.8906251
  92.8585626  37.7938894  39.5727155  93.9638985  38.7681666  39.2250141
  88.0608893  40.1098317  34.4166929  88.6116318  39.9815380  33.6443923
  87.2220369  40.4093206  34.0661822  95.4003010  38.8605315  37.9187652
  95.3821485  39.6814196  37.4267921  96.3222930  38.7359390  38.1437793
  91.8576064  36.3749444  38.7611160  92.3904401  35.6137733  38.5310468
  91.3290145  36.0823096  39.5035315  95.0245759  21.4809510  34.2904802
  94.6810028  22.3711152  34.2143912  95.3924721  21.2911168  33.4274387
  83.0931609  33.8043041  27.1093404  83.9306831  34.2140049  26.8927112
  83.2709877  32.8642483  27.0793598  94.9896042  31.4718121  22.7977237
  94.4742665  32.2422726  23.0365624  94.7173350  30.7983258  23.4210298
  92.5743153  26.3167822  27.8562475  91.7184749  25.9274673  27.6768114
  92.9870104  26.3959783  26.9962261  94.1042299  23.8514166  32.2554035
  93.6007095  23.8144301  31.4421840  94.3972906  24.7606908  32.3150692
  90.3485185  23.9352895  31.2620217  91.2138182  23.7395704  30.9026106
  90.4162694  23.7063247  32.1889574  99.9630316  34.2250476  24.7330410
  99.1859759  33.8861636  24.2885573 100.6421797  34.2303099  24.0585376
  94.7782345  29.3445214  24.6237018  94.4732480  29.6591363  25.4747161
  95.7312787  29.4226633  24.6664351  93.2228777  35.5035437  26.2729972
  92.6950138  34.7688196  25.9603210  92.7216279  36.2810113  26.0269940
  98.2021623  33.6984457  31.3897018  97.5445297  34.3883719  31.4777147
  99.0062022  34.0880889  31.7331005  87.9547504  26.1655103  28.6336584
  88.5291256  25.9430285  27.9009777  88.5418487  26.2343798  29.3865185
  97.0127081  32.0528830  29.4400960  97.5258963  32.6858822  29.9422670
  97.6628305  31.4530026  29.0744320  88.2817091  28.1959564  22.6532469
  87.4454404  28.5334251  22.9741744  88.1421861  28.0608544  21.7159606
  90.2570172  23.0396352  27.3611653  89.6034584  22.7245369  26.7368268
  90.2150646  22.4172093  28.0871476  91.3681377  33.3215647  19.2764945
  90.4608439  33.0904901  19.4756094  91.8652409  32.5253266  19.4638927
  94.2749456  42.0313154  22.1961631  93.6011154  42.3344851  22.8046589
  94.6615278  42.8342235  21.8467088  93.4907912  29.5278286  31.6859301
  92.5730474  29.7493233  31.5280989  93.9068056  29.6024596  30.8271008
  94.2742960  30.9269701  26.8161981  95.0214779  31.4391099  26.5069103
  94.5434550  30.6053754  27.6766375  92.5469610  33.4228242  23.7988935
  91.6380829  33.1387275  23.8961405  92.5764694  33.8427321  22.9392242
  97.7788878  37.0334832  27.5680103  97.3251205  36.1925741  27.6245293
  97.1482844  37.6696230  27.9054883  96.7221797  27.9626818  28.7980770
  95.9844554  27.4504204  29.1291013  96.9748571  27.5227199  27.9864047
  96.2221817  38.8711328  28.5029921  96.5144791  39.4316385  27.7842287
  96.7320437  39.1639889  29.2583080  96.8233425  20.7403070  29.3922540
  97.1292301  19.8800433  29.1048455  97.5486029  21.3320690  29.1921533
  83.1157781  31.1433756  27.7804137  82.9182180  30.5503117  27.0555204
  82.5604445  30.8385966  28.4980076  91.0954504  31.0356863  29.8998731
  91.1503114  30.0830699  29.8241207  90.2845706  31.1916302  30.3840029
  92.2445698  34.9636986  21.1377014  91.8065128  34.2472845  20.6782651
  92.9856139  35.1913101  20.5762105  89.0346864  29.6533922  27.6589110
  88.2214730  29.9528093  28.0654302  89.5305858  29.2589611  28.3763592
  91.1855442  39.6491679  29.5923374  91.1431621  39.8752526  28.6631906
  92.1018141  39.4155054  29.7409175  94.6321076  30.1175747  36.4904003
  94.9870464  30.3447220  37.3498469  95.2793207  30.4494124  35.8681259
 100.3618813  33.2394183  27.1953332 100.2236711  33.4295779  26.2674522
 100.0055032  34.0013566  27.6521384  88.5260939  27.2252278  33.2750344
  89.1660318  27.0841037  32.5773308  87.6938470  26.9386791  32.8988946
 100.3888192  35.3070710  32.2064604 100.8224699  35.2145999  33.0547658
 101.1019773  35.2828210  31.5684620  89.3021243  36.5254708  29.3885337
  90.0961841  36.0305028  29.1867912  88.5912935  35.9972571  29.0253042
  94.1216087  38.9072804  33.7397705  94.1753110  39.4763740  34.5075420
  93.2530869  39.0774689  33.3751742  85.6104006  30.6697790  25.4645090
  84.6801594  30.6082246  25.6815052  85.7061478  30.1473743  24.6681731
  85.5289555  27.1952603  28.0523331  85.7896373  28.1097936  27.9432492
  86.3506728  26.7277045  28.2019944  87.0014481  28.6090360  35.2222156
  87.6737534  28.4007722  34.5734805  86.1744267  28.4112446  34.7827388
 101.2503742  35.3494410  34.7397489 101.4439632  36.2540221  34.9856764
 101.1504360  34.8901829  35.5736074  92.9040053  25.2352301  37.2387817
  92.2567968  25.9342251  37.1452293  93.6741068  25.6688445  37.6064065
  96.3118851  35.5001153  40.3138370  96.1604357  35.2711705  39.3968454
  96.3023530  36.4571755  40.3269715  93.0804187  33.0733066  35.2984636
  94.0096247  33.2244226  35.1253604  92.6595217  33.1617087  34.4433283
  91.8792519  37.0983730  33.0683174  91.7403605  36.7302515  33.9409112
  91.0907115  37.6131370  32.8967132  92.4740671  42.1992827  24.4108711
  92.6492427  41.7280870  25.2254333  91.7873459  42.8258593  24.6389971
  93.4297734  36.4765333  30.4572012  93.0947567  36.4366103  31.3529662
  92.9301680  35.8110049  29.9842422  87.4041978  31.8832963  35.9824593
  87.2661776  31.1513202  36.5836132  88.3146901  31.7941863  35.7008781
  96.3656926  33.8221367  20.7309071  95.7486096  33.0968196  20.6342124
  95.8973414  34.5830728  20.3876146  90.0324279  31.5952922  35.4708273
  90.7423897  30.9546115  35.4294891  89.9893587  31.8465817  36.3934453
  98.0211057  38.5320276  38.3914852  97.9623603  37.8479496  37.7245435
  98.4230576  39.2739266  37.9395478  88.7453213  28.5818140  37.2903912
  88.2090570  28.1308879  37.9425508  88.1569921  28.7164049  36.5474376
  87.0401756  45.3482190  31.1848571  87.2798354  45.9800714  31.8627589
  86.1970953  44.9970230  31.4713930  88.1555472  28.0406792  19.8530376
  87.2784938  27.9195592  19.4892622  88.6313225  27.2492870  19.6009264
  98.0228465  36.4959860  36.6228831  97.1355243  36.1585781  36.7455230
  98.5927016  35.7642891  36.8597597  79.6757612  32.8283951  29.9471883
  80.3628652  32.5145681  29.3592898  79.5205740  33.7325316  29.6739134
  84.4792334  27.7174148  34.3756907  84.3950523  27.1099817  33.6407317
  83.6575040  28.2083166  34.3766403  91.5529618  41.1561312  33.5890075
  91.4799789  41.9616283  34.1009379  91.1107011  41.3553278  32.7638096
  91.3419398  40.3933082  27.0992896  90.5586919  40.9354762  27.1931121
  92.0412143  40.9107062  27.4987137  94.6516048  26.2027711  29.7427102
  95.1484747  25.4497674  29.4228172  93.8803029  26.2392028  29.1770311
 102.5045805  31.9068077  31.3845393 102.4935681  32.7892792  31.0139326
 101.6363185  31.5539628  31.1899930  94.0128302  41.0548146  35.7448233
  94.7256274  41.6895611  35.6724135  93.5218330  41.1512012  34.9288235
  95.7345828  34.9599399  27.3165525  94.8002107  35.0800861  27.1470229
  95.9122497  34.0571865  27.0525535  91.2351016  28.3445094  29.4698786
  90.8648804  27.7916135  30.1579692  91.7310109  27.7403228  28.9173786
  99.1218380  30.8016718  27.8515559  99.5878832  31.6344710  27.7775862
  99.5725880  30.3361700  28.5560818  89.0640215  38.8042589  36.5653804
  89.7649675  39.4379072  36.7183198  88.5935330  39.1457321  35.8049443
  97.1894611  37.1460539  24.8501711  97.4654455  37.0317134  25.7595585
  96.3199110  36.7478024  24.8113884  97.0935043  23.1697305  31.8906460
  96.1798122  23.4001532  32.0588667  97.5228144  23.2535749  32.7420493
  96.8641501  31.3587197  34.3906355  96.2112951  31.6063104  33.7358807
  97.2421881  30.5451335  34.0568832  93.8248675  41.3946890  28.4934525
  94.0071069  40.5768546  28.9562277  94.6481661  41.6114582  28.0559415
  94.1590840  40.3215075  25.7549573  94.6878607  39.8107530  25.1419735
  94.4219060  40.0057605  26.6195106  92.9129074  32.1007008  40.8772392
  92.2369711  32.0001137  41.5474767  93.7356708  31.9446222  41.3408389
  84.6607933  38.3378945  33.4984907  85.2461370  37.5922632  33.6312811
  84.4632772  38.6482901  34.3821571  87.5146588  41.3730192  28.5147349
  86.8456964  41.8576320  28.0311389  87.3759458  41.6199412  29.4290728
  79.2525588  30.9084545  32.2189350  79.2909687  30.3748135  33.0126468
  78.7465881  30.3819750  31.6000327  91.6551857  43.4073935  35.1130008
  92.2070165  43.5705557  35.8779093  91.9958050  43.9978373  34.4410032
  86.6316350  25.7549085  35.7151892  86.6957677  26.6163916  35.3029290
  86.5683470  25.1423087  34.9824251  86.1068623  27.8272218  39.3624927
  86.7340661  27.4449295  39.9762451  85.2496542  27.6086420  39.7280619
  96.5062731  38.2335193  40.9678662  97.0502635  38.8465151  40.4733617
  95.9249576  38.7914771  41.4845675  82.8834165  29.6348647  25.2943281
  83.1787606  28.7259325  25.2410335  81.9822201  29.6136386  24.9724284
  94.7920244  41.3555911  32.0993690  94.6671384  40.5545651  31.5904635
  95.4499335  41.8502104  31.6107660  86.4128412  27.7104643  31.2770830
  85.6914998  28.3240611  31.1378303  87.2021668  28.2462408  31.1987476
  96.8555153  39.1564931  33.7273240  95.9085488  39.0370282  33.6551567
  97.2037926  38.2687429  33.8099501  89.2154726  25.0459070  37.5511482
  89.7389128  25.2921367  38.3137791  88.9967059  25.8779105  37.1314619
  84.6122007  27.3162745  25.4182607  84.2834713  26.4360123  25.2357712
  84.9661378  27.2610413  26.3058996  93.8601586  38.9517647  29.9277592
  93.7126548  38.0234355  30.1085162  94.6855079  38.9737738  29.4434667
  87.7263830  27.6035714  25.7858084  88.0659903  28.1321636  25.0636693
  88.1735951  27.9416120  26.5616651  97.4635708  39.7746206  31.0142465
  98.3882255  39.5689067  30.8766916  97.2951011  39.5262607  31.9231806
  90.4207271  25.9872765  35.2361152  90.0804091  25.1880578  35.6381832
  89.7146277  26.2874476  34.6637985  91.0723743  23.0722077  33.6888475
  91.8949812  22.5982556  33.5667366  91.3161806  23.8512561  34.1887162
  89.7131977  26.1010336  23.9851377  90.4340340  26.4791589  23.4815094
  89.0897281  26.8199213  24.0886355  93.8563100  26.8055485  24.9209709
  94.0726715  27.6880123  24.6198537  93.3757167  26.4141698  24.1915351
  88.5962322  29.7641198  31.4980454  88.4506902  30.0781501  32.3904735
  88.1187525  30.3826098  30.9451353  90.4558704  26.7543746  31.5461343
  90.4420273  25.8584839  31.2093641  91.1731133  26.7614410  32.1799630
  92.3084835  27.1881086  33.5914471  92.0502613  28.1098157  33.5898801
  91.7769876  26.7911521  34.2814935  97.2531024  40.2931873  26.3704556
  97.4267901  39.7278296  25.6178409  97.7459915  41.0932768  26.1884046
  83.0707984  32.3046543  34.4368115  82.5261452  33.0806350  34.5688389
  83.9487334  32.6517347  34.2787237  89.8595600  25.6358126  26.8148914
  89.9811512  24.7074773  27.0139801  89.5697643  25.6496812  25.9027229
  92.7286791  23.3213037  29.9515633  92.7508488  23.3852370  28.9967613
  93.1454850  22.4817545  30.1456140 103.1070415  33.0568296  27.9894856
 103.5501561  32.3075622  27.5913979 102.2296925  33.0478433  27.6068588
  98.2406196  39.6098638  23.4701455  98.9357101  40.2305331  23.6888769
  98.5829347  38.7593989  23.7453832  83.8574006  31.4316439  37.3298272
  83.1155742  31.5799074  37.9162902  83.5366750  31.6924704  36.4665021
 100.1397620  37.0598343  24.9988785 100.6648944  37.3985616  24.2738105
 100.0519972  36.1245359  24.8151920  91.8017668  40.9732417  37.1278662
  92.1104795  40.7281564  38.0001362  92.5993150  41.1779055  36.6397532
  91.8238280  43.1270327  29.3584039  91.3843271  42.6346705  30.0516895
  92.5746397  42.5843294  29.1176114  84.3030619  39.3181868  29.3608667
  85.1288639  39.0185639  28.9807310  83.9524671  38.5489490  29.8098455
  89.2712152  38.6708336  31.4306340  88.6492162  38.0079041  31.1308568
  89.9417019  38.6969468  30.7479988  82.5039224  37.2368194  30.3197600
  81.6671133  36.8090368  30.1381601  82.4762870  37.4300637  31.2568391
  89.3436680  27.1490124  41.0238846  89.3924835  28.0252247  40.6416616
  89.8859194  26.6067517  40.4510489  99.8291526  37.6931247  40.3039983
  99.0387069  37.6755386  39.7644483  99.5924880  38.2319541  41.0589020
  99.9489401  34.5423713  37.6172712  99.9987406  34.3773721  38.5588235
  99.8403324  33.6750972  37.2270593  88.8325659  37.2212259  24.9064801
  88.9813780  37.9047723  24.2531473  89.6392103  37.2017349  25.4214256
  97.2393163  30.5254641  38.9332019  98.1403026  30.3861106  38.6416016
  97.3141138  30.6909096  39.8730196  91.5735968  27.9021496  37.7785205
  90.7039278  28.1955062  37.5067793  91.8095449  28.4861941  38.4992468
 101.4507597  36.9620655  37.8614733 101.1592406  37.3250635  38.6978194
 100.8379729  36.2487663  37.6828065 102.6503280  34.5273535  30.3817304
 103.4850171  34.9663339  30.5454864 102.7862409  34.0512188  29.5625549
  99.6994786  32.0853270  36.3294791 100.1748907  32.2780916  35.5213643
  98.7760351  32.1412455  36.0838175  86.5878292  33.2477437  25.9125870
  86.3424334  32.3439767  26.1106080  86.7574207  33.2494587  24.9705348
  94.2775002  24.1201113  35.2950625  94.7956946  24.8562140  34.9697114
  93.9230135  24.4265106  36.1297384  85.8573940  28.9805794  23.4112031
  85.1643185  29.0550149  22.7552067  85.6125692  28.2166138  23.9333548
  94.5287596  20.5401396  30.8151522  94.8089350  19.8724585  31.4411948
  95.3138203  20.7330491  30.3026186  92.3321065  39.7160390  22.3776548
  91.7595032  40.3350577  21.9247020  92.9053859  40.2659751  22.9116470
  98.3996455  28.9619030  34.5623097  99.3513878  29.0617127  34.5835321
  98.2299905  28.1697298  35.0721181  96.4210834  26.0474613  34.7482498
  95.8260766  26.3279626  34.0528987  96.1360531  26.5368514  35.5199239
  95.5518325  39.9997540  23.5085130  96.4848998  39.9343101  23.7118006
  95.4641537  40.8353807  23.0499663  98.1806341  39.3163410  20.4689078
  98.1019973  38.9823274  21.3624836  99.0016008  39.8085178  20.4680550
 100.8784532  32.1825149  33.6765397 100.8460853  31.2441150  33.8625080
 101.4885156  32.2609186  32.9431221  92.7167863  31.0521202  19.7192601
  93.6626968  30.9227410  19.7881019  92.3382108  30.3135864  20.1962029
 101.0279021  28.9736193  33.7223680 100.5118070  28.1894649  33.5353609
 101.9118970  28.6454909  33.8870199  98.6889748  22.7177208  29.6819492
  98.4914569  22.4092297  30.5662824  99.2989453  23.4438847  29.8117422
 106.6961082  33.2441156  32.8171433 107.4264471  32.9826444  33.3779137
 106.0868028  32.5069878  32.8573501 104.7776379  31.3849019  33.4145885
 104.0509543  31.2504984  32.8062376 104.3623666  31.6925847  34.2202603
  92.6006556  35.1038948  41.1793258  93.5209565  35.2817547  41.3733304
  92.5656139  34.1594994  41.0272957  90.9010781  28.9771179  19.6547486
  89.9942236  28.6804291  19.7310199  91.1786762  28.6800997  18.7881772
  81.8188721  30.2977542  30.1046532  81.4991505  29.4442850  29.8120906
  81.2722149  30.5126120  30.8604500  85.5968628  33.0139983  33.8216039
  85.8154638  33.9457091  33.8404073  86.0094402  32.6547957  34.6070843
  92.5172846  23.5208068  25.8091727  91.7073575  23.1755153  26.1846973
  93.2057263  23.2115612  26.3979339  94.4463395  22.5986115  27.4316024
  94.9994433  23.0181569  28.0906047  94.6833481  21.6721863  27.4738980
  90.4696494  28.5873189  43.2118788  90.3693221  29.5367546  43.1430879
  90.2518036  28.2591428  42.3394858  89.6709565  25.8358114  19.7959465
  90.5328729  26.1613012  20.0555282  89.8559909  25.0489610  19.2832531
  81.6876981  33.9180454  32.0739654  80.9940452  33.5034406  31.5609608
  82.4349972  33.9600990  31.4773073  97.8242202  24.7086640  26.9394688
  97.2440871  25.3671444  26.5572740  97.5578134  23.8863985  26.5282106
  96.2745768  24.1091698  29.1416008  96.7745546  24.2208233  28.3330327
  96.9181376  23.8052751  29.7816817  90.3327764  32.0170328  42.0283849
  89.8494846  32.8170688  42.2347738  90.4188703  32.0278273  41.0751293
  83.6013723  33.8498707  29.9505669  83.5784412  33.9486395  28.9987552
  83.9114360  34.6963858  30.2722835  86.2601101  35.9074862  34.0652283
  87.2144355  35.8758805  33.9982215  86.0613625  35.4465486  34.8802509
  86.8500483  34.4775978  36.6323081  87.6693372  34.9720057  36.6557918
  87.1237291  33.5607947  36.6040648  96.6067080  26.8686731  25.9951036
  95.7192935  27.1536381  25.7771231  97.0221069  26.7080494  25.1478313
  99.9581616  26.8933252  29.7105376 100.7342006  27.3829704  29.9829992
  99.2329750  27.3191306  30.1677245 102.3954174  27.6060871  30.7679316
 102.9898665  27.3656607  30.0572624 102.4680758  26.8868002  31.3952852
  84.6151330  41.4494482  31.0822481  84.4805798  40.6894883  30.5160479
  84.1983392  42.1735382  30.6151270  95.7510293  36.6331405  20.0899056
  96.4546143  36.8381408  20.7056712  95.0272942  37.2008167  20.3548140
  96.5808103  32.3841267  26.2101326  96.5243305  32.8409818  25.3708959
  97.1336446  31.6231951  26.0324169 100.3912909  28.1730999  27.0351446
 100.1349844  27.7727634  27.8659654  99.7665777  28.8874792  26.9101585
 104.7025247  30.9127072  29.5422737 104.1424805  30.9820261  30.3154299
 104.0968751  30.7368056  28.8222234  87.7720456  42.3463799  31.2940924
  87.6552840  43.2909231  31.1919614  86.9512902  42.0437360  31.6826723
  97.6596990  37.0713935  22.1397516  98.4942594  36.6395133  21.9574991
  97.4981333  36.8995948  23.0674411  97.3142883  33.5746048  23.5053856
  97.2591686  33.4090319  22.5642300  96.6888938  34.2822081  23.6616045
  82.1035398  28.8114112  37.3315278  82.7494261  28.3013066  37.8202503
  81.8952549  29.5482794  37.9058703  94.6288790  35.8794960  42.8307418
  95.4979949  36.0535612  42.4694053  94.1495541  36.6989377  42.7083148
  90.6239008  23.0754157  23.0839174  90.6117678  24.0195997  23.2407445
  91.5162430  22.8924302  22.7898635  88.7974970  42.9992061  34.5096852
  89.7002217  43.0315671  34.8263347  88.5712340  42.0692512  34.5243188
  90.5528572  41.7523047  31.1706931  89.6024203  41.7524909  31.0571303
  90.8561058  41.0055782  30.6542965  94.4391128  19.6696934  27.3385111
  93.6723523  19.1155420  27.4841793  94.8501833  19.7418802  28.1999262
  86.4432889  25.9581729  41.4290292  87.3064350  25.6018534  41.6393617
  85.8698299  25.6195624  42.1165696 106.2881266  47.5883586  32.2352693
 106.9259676  47.4690333  31.5316033 106.1702108  48.5364430  32.2940645
 103.0970972  47.5411014  32.1714218 102.7589483  47.4252079  31.2834753
 103.9660740  47.1402179  32.1515224  98.9557788  49.3946490  28.1611109
  98.3922653  49.3036427  27.3927397  98.8410183  48.5746395  28.6413601
 103.5790755  48.6945866  38.1300423 103.5679396  48.2998664  37.2580927
 103.7411394  47.9611938  38.7234195  96.5022220  50.8897682  30.9995329
  97.2943511  50.5488506  30.5841629  96.7418870  50.9992657  31.9197483
 104.5357346  53.0617458  23.4725574 103.8845326  53.6471538  23.0859587
 105.3301709  53.5923653  23.5320611  98.4612973  50.1506595  23.8712708
  99.2343849  49.6035582  23.7325584  98.8138372  51.0150844  24.0827169
 100.2998016  51.4782977  37.0779607 100.0087882  52.3828608  36.9626274
 100.9355000  51.5199505  37.7923677 101.2254223  48.8559826  33.6680967
 101.8217795  48.6315848  32.9537930 101.2829194  48.1144571  34.2706415
 100.7979251  46.3099261  21.5031158 101.0504772  45.7880782  20.7414621
  99.8603810  46.1465407  21.6057842 105.8422534  45.3135040  29.3105901
 106.6285623  44.8954463  28.9596318 106.1061238  46.2181132  29.4787550
 106.0132611  50.7507890  24.0094558 105.3778444  50.8242516  24.7215463
 105.6830018  51.3401489  23.3313637 111.2430961  45.2510273  30.2138880
 111.9756133  44.6809490  30.4476709 110.4870317  44.8631873  30.6545385
 100.5175540  48.2127367  23.7055533 100.4011798  47.5372271  24.3736617
 100.6277800  47.7259741  22.8887686 102.8607081  47.6737514  27.4102222
 102.4965288  47.1468135  28.1215144 103.7174197  47.2835983  27.2368708
 108.7656382  38.9631847  34.6733488 108.4339706  39.8327258  34.4494703
 108.1701995  38.6468131  35.3527519 102.5012568  42.7027414  22.4063571
 102.6686970  43.5707650  22.7734042 102.3109737  42.8654696  21.4824860
 105.2587901  51.1644393  34.0729401 104.9588624  52.0669432  33.9645208
 104.9138961  50.8976576  34.9250554  98.7100383  47.6158190  30.1066105
  97.7850879  47.4834404  30.3143797  98.9584796  48.3952409  30.6036048
 108.6585045  43.6826933  31.7526838 107.7501922  43.6142341  31.4585599
 108.6072641  44.1598878  32.5808664 102.4801789  45.1585071  23.3910237
 102.3601414  45.6042122  24.2295718 101.7854377  45.5070389  22.8323776
  96.0709194  47.2591463  30.9409895  96.2001575  47.5125942  31.8549306
  95.3906645  47.8519171  30.6214550 100.2408681  57.9288713  27.0400369
 100.1632711  58.8796538  27.1188849  99.6370324  57.5834586  27.6975295
 102.7325911  45.1016579  39.6961736 101.9559245  45.6610499  39.6864600
 103.3716474  45.5873362  40.2176606 110.5246691  41.8843371  33.5304712
 109.8821072  42.1775905  32.8844507 110.0201620  41.7696292  34.3357909
 108.1786855  45.6306545  24.2190572 109.0904711  45.8633931  24.0438269
 107.6696502  46.2143589  23.6565650 100.9872283  47.9102032  39.2579703
 101.7286967  48.4487076  38.9814526 100.2809268  48.5368321  39.4151254
 106.4627623  50.0531172  37.8551864 106.8710979  49.6113583  37.1106496
 105.7404884  49.4783800  38.1086057 102.8158693  44.9903779  35.2285421
 103.6619888  45.4143193  35.3720070 102.7557330  44.3337404  35.9223984
 106.7856437  50.6132363  31.6104153 106.1565300  50.7778077  30.9080221
 106.3982099  51.0273973  32.3815117 110.6645669  51.5486801  28.9648517
 109.9796707  51.9285702  28.4145550 110.7489518  52.1582128  29.6980464
 105.9658138  42.6508148  36.8866595 105.7219070  43.4050208  36.3500870
 106.2418068  43.0293495  37.7213842 107.9196601  49.1946760  35.5643860
 108.1313496  49.8378520  34.8878241 107.8726349  48.3609077  35.0965790
 105.5222830  41.8064581  32.4680432 104.6607309  42.1045834  32.7597170
 105.5485264  42.0234980  31.5361465 102.3384399  50.3506771  28.8754238
 102.8022745  50.6294474  28.0858861 102.0741197  49.4490216  28.6927329
  99.2308480  49.8978253  31.8134001  99.8009837  50.3265521  31.1751486
  99.8216592  49.6160837  32.5118187 101.2753285  46.4729924  25.6843803
 101.9777329  46.9250967  26.1517730 100.9433914  45.8313742  26.3123696
  99.7233647  45.0641680  40.0595013  99.0932307  45.7457961  40.2930409
  99.6169735  44.9524762  39.1148151  95.0178619  44.7313476  30.9860937
  94.2277673  44.9871005  30.5101047  95.5089867  45.5461814  31.0912977
 109.0342429  52.0718715  33.7366218 109.8559872  51.6698903  33.4548899
 109.0304832  51.9686950  34.6882333  96.9693365  45.0958055  27.9444413
  96.1724528  45.2076750  28.4627909  96.7418957  45.4344708  27.0785304
 102.7999032  51.6202759  35.8926928 102.8643465  52.0823166  36.7285100
 102.0909956  50.9900124  36.0209238  93.3016322  44.9843967  33.4175928
  93.5524361  45.8690977  33.6833504  93.8375871  44.8048568  32.6451019
 117.1248422  48.4157464  30.0851189 116.3712130  47.8464862  29.9295194
 117.2595963  48.3820128  31.0321824 102.5147050  53.2870866  25.7605908
 102.3792725  54.1322402  26.1890756 103.0556862  53.4890144  24.9971842
  99.0014389  39.3662446  42.4220264  98.6081335  38.8128645  43.0967908
  99.8180530  39.6773024  42.8126781  95.9676447  50.8046304  26.3333834
  96.4800968  51.5989554  26.4839398  96.6199160  50.1072595  26.2667435
  97.7771332  53.9212060  28.4156587  97.9537960  54.8430025  28.2277571
  98.5728165  53.6070480  28.8450966 101.9182350  40.7820325  40.0140520
 102.6592064  41.3827478  39.9344983 102.1500273  40.0397963  39.4558563
  97.0623688  45.9676692  38.2918750  96.9477204  45.0661950  38.5925849
  96.2068206  46.2140389  37.9403566 104.1415526  53.9094433  39.8906251
 103.6979380  53.1230811  39.5727155 104.8032740  54.0973583  39.2250141
  98.9002647  55.4390234  34.4166929  99.4510072  55.3107298  33.6443923
  98.0614123  55.7385123  34.0661822 106.2396764  54.1897233  37.9187652
 106.2215240  55.0106114  37.4267921 107.1616684  54.0651308  38.1437793
 102.6969818  51.7041362  38.7611160 103.2298155  50.9429650  38.5310468
 102.1683900  51.4115014  39.5035315 105.8639513  36.8101428  34.2904802
 105.5203783  37.7003070  34.2143912 106.2318476  36.6203086  33.4274387
  93.9325364  49.1334959  27.1093404  94.7700586  49.5431967  26.8927112
  94.1103632  48.1934401  27.0793598 105.8289796  46.8010039  22.7977237
 105.3136420  47.5714644  23.0365624 105.5567105  46.1275175  23.4210298
 103.4136907  41.6459740  27.8562475 102.5578503  41.2566590  27.6768114
 103.8263859  41.7251701  26.9962261 104.9436054  39.1806083  32.2554035
 104.4400849  39.1436218  31.4421840 105.2366661  40.0898826  32.3150692
 101.1878940  39.2644813  31.2620217 102.0531936  39.0687622  30.9026106
 101.2556449  39.0355165  32.1889574 110.8024070  49.5542394  24.7330410
 110.0253513  49.2153553  24.2885573 111.4815551  49.5595017  24.0585376
 105.6176099  44.6737131  24.6237018 105.3126235  44.9883280  25.4747161
 106.5706541  44.7518551  24.6664351 104.0622531  50.8327355  26.2729972
 103.5343893  50.0980114  25.9603210 103.5610034  51.6102031  26.0269940
 109.0415377  49.0276375  31.3897018 108.3839052  49.7175636  31.4777147
 109.8455776  49.4172807  31.7331005  98.7941259  41.4947021  28.6336584
  99.3685011  41.2722202  27.9009777  99.3812241  41.5635715  29.3865185
 107.8520836  47.3820748  29.4400960 108.3652718  48.0150740  29.9422670
 108.5022060  46.7821943  29.0744320  99.1210846  43.5251482  22.6532469
  98.2848158  43.8626168  22.9741744  98.9815615  43.3900462  21.7159606
 101.0963926  38.3688270  27.3611653 100.4428339  38.0537287  26.7368268
 101.0544401  37.7464010  28.0871476 102.2075131  48.6507565  19.2764945
 101.3002193  48.4196818  19.4756094 102.7046163  47.8545184  19.4638927
 105.1143210  57.3605072  22.1961631 104.4404909  57.6636769  22.8046589
 105.5009032  58.1634152  21.8467088 104.3301667  44.8570203  31.6859301
 103.4124228  45.0785150  31.5280989 104.7461810  44.9316514  30.8271008
 105.1136715  46.2561619  26.8161981 105.8608533  46.7683016  26.5069103
 105.3828304  45.9345672  27.6766375 103.3863365  48.7520160  23.7988935
 102.4774584  48.4679193  23.8961405 103.4158449  49.1719238  22.9392242
 108.6182632  52.3626749  27.5680103 108.1644959  51.5217659  27.6245293
 107.9876599  52.9988148  27.9054883 107.5615552  43.2918735  28.7980770
 106.8238309  42.7796121  29.1291013 107.8142325  42.8519117  27.9864047
 107.0615571  54.2003246  28.5029921 107.3538546  54.7608303  27.7842287
 107.5714192  54.4931807  29.2583080 107.6627179  36.0694987  29.3922540
 107.9686056  35.2092351  29.1048455 108.3879784  36.6612607  29.1921533
  93.9551535  46.4725674  27.7804137  93.7575935  45.8795035  27.0555204
  93.3998199  46.1677884  28.4980076 101.9348259  46.3648780  29.8998731
 101.9896869  45.4122617  29.8241207 101.1239461  46.5208219  30.3840029
 103.0839453  50.2928903  21.1377014 102.6458882  49.5764762  20.6782651
 103.8249893  50.5205018  20.5762105  99.8740619  44.9825840  27.6589110
  99.0608484  45.2820011  28.0654302 100.3699613  44.5881529  28.3763592
 102.0249197  54.9783597  29.5923374 101.9825375  55.2044443  28.6631906
 102.9411895  54.7446972  29.7409175 105.4714830  45.4467665  36.4904003
 105.8264218  45.6739138  37.3498469 106.1186962  45.7786041  35.8681259
 111.2012567  48.5686100  27.1953332 111.0630466  48.7587696  26.2674522
 110.8448786  49.3305483  27.6521384  99.3654693  42.5544196  33.2750344
 100.0054073  42.4132955  32.5773308  98.5332224  42.2678709  32.8988946
 111.2281947  50.6362627  32.2064604 111.6618454  50.5437917  33.0547658
 111.9413528  50.6120128  31.5684620 100.1414997  51.8546626  29.3885337
 100.9355596  51.3596946  29.1867912  99.4306690  51.3264489  29.0253042
 104.9609842  54.2364722  33.7397705 105.0146864  54.8055658  34.5075420
 104.0924623  54.4066607  33.3751742  96.4497761  45.9989708  25.4645090
  95.5195349  45.9374163  25.6815052  96.5455233  45.4765660  24.6681731
  96.3683310  42.5244521  28.0523331  96.6290127  43.4389854  27.9432492
  97.1900482  42.0568963  28.2019944  97.8408235  43.9382278  35.2222156
  98.5131289  43.7299640  34.5734805  97.0138022  43.7404364  34.7827388
 112.0897496  50.6786328  34.7397489 112.2833387  51.5832139  34.9856764
 111.9898115  50.2193747  35.5736074 103.7433807  40.5644219  37.2387817
 103.0961722  41.2634168  37.1452293 104.5134823  40.9980363  37.6064065
 107.1512605  50.8293071  40.3138370 106.9998112  50.6003623  39.3968454
 107.1417285  51.7863672  40.3269715 103.9197942  48.4024984  35.2984636
 104.8490002  48.5536143  35.1253604 103.4988972  48.4909004  34.4433283
 102.7186273  52.4275648  33.0683174 102.5797359  52.0594432  33.9409112
 101.9300870  52.9423287  32.8967132 103.3134425  57.5284744  24.4108711
 103.4886181  57.0572788  25.2254333 102.6267213  58.1550511  24.6389971
 104.2691488  51.8057251  30.4572012 103.9341321  51.7658021  31.3529662
 103.7695434  51.1401967  29.9842422  98.2435732  47.2124881  35.9824593
  98.1055530  46.4805120  36.5836132  99.1540656  47.1233781  35.7008781
 107.2050680  49.1513285  20.7309071 106.5879851  48.4260113  20.6342124
 106.7367169  49.9122645  20.3876146 100.8718033  46.9244840  35.4708273
 101.5817652  46.2838032  35.4294891 100.8287341  47.1757735  36.3934453
 108.8604812  53.8612193  38.3914852 108.8017358  53.1771414  37.7245435
 109.2624330  54.6031183  37.9395478  99.5846967  43.9110058  37.2903912
  99.0484324  43.4600796  37.9425508  98.9963676  44.0455967  36.5474376
  97.8795511  60.6774107  31.1848571  98.1192109  61.3092631  31.8627589
  97.0364707  60.3262147  31.4713930  98.9949226  43.3698709  19.8530376
  98.1178692  43.2487510  19.4892622  99.4706979  42.5784788  19.6009264
 108.8622219  51.8251777  36.6228831 107.9748998  51.4877699  36.7455230
 109.4320770  51.0934809  36.8597597  90.5151366  48.1575869  29.9471883
  91.2022406  47.8437599  29.3592898  90.3599495  49.0617234  29.6739134
  95.3186088  43.0466066  34.3756907  95.2344277  42.4391735  33.6407317
  94.4968795  43.5375084  34.3766403 102.3923372  56.4853230  33.5890075
 102.3193544  57.2908201  34.1009379 101.9500766  56.6845195  32.7638096
 102.1813152  55.7225000  27.0992896 101.3980674  56.2646680  27.1931121
 102.8805897  56.2398979  27.4987137 105.4909802  41.5319629  29.7427102
 105.9878502  40.7789591  29.4228172 104.7196784  41.5683946  29.1770311
 113.3439560  47.2359995  31.3845393 113.3329436  48.1184710  31.0139326
 112.4756939  46.8831546  31.1899930 104.8522056  56.3840064  35.7448233
 105.5650028  57.0187529  35.6724135 104.3612085  56.4803930  34.9288235
 106.5739583  50.2891316  27.3165525 105.6395862  50.4092779  27.1470229
 106.7516251  49.3863783  27.0525535 102.0744771  43.6737012  29.4698786
 101.7042558  43.1208053  30.1579692 102.5703863  43.0695146  28.9173786
 109.9612134  46.1308636  27.8515559 110.4272586  46.9636627  27.7775862
 110.4119635  45.6653617  28.5560818  99.9033970  54.1334507  36.5653804
 100.6043429  54.7670990  36.7183198  99.4329085  54.4749239  35.8049443
 108.0288365  52.4752457  24.8501711 108.3048209  52.3609052  25.7595585
 107.1592864  52.0769942  24.8113884 107.9328797  38.4989223  31.8906460
 107.0191877  38.7293449  32.0588667 108.3621898  38.5827667  32.7420493
 107.7035255  46.6879115  34.3906355 107.0506706  46.9355022  33.7358807
 108.0815635  45.8743253  34.0568832 104.6642429  56.7238808  28.4934525
 104.8464824  55.9060464  28.9562277 105.4875415  56.9406500  28.0559415
 104.9984595  55.6506993  25.7549573 105.5272361  55.1399447  25.1419735
 105.2612814  55.3349523  26.6195106 103.7522829  47.4298926  40.8772392
 103.0763466  47.3293055  41.5474767 104.5750462  47.2738139  41.3408389
  95.5001688  53.6670862  33.4984907  96.0855124  52.9214550  33.6312811
  95.3026526  53.9774819  34.3821571  98.3540343  56.7022110  28.5147349
  97.6850718  57.1868237  28.0311389  98.2153213  56.9491330  29.4290728
  90.0919342  46.2376462  32.2189350  90.1303442  45.7040053  33.0126468
  89.5859635  45.7111668  31.6000327 102.4945611  58.7365853  35.1130008
 103.0463919  58.8997475  35.8779093 102.8351805  59.3270291  34.4410032
  97.4710105  41.0841003  35.7151892  97.5351431  41.9455834  35.3029290
  97.4077225  40.4715005  34.9824251  96.9462377  43.1564135  39.3624927
  97.5734416  42.7741213  39.9762451  96.0890296  42.9378337  39.7280619
 107.3456486  53.5627111  40.9678662 107.8896390  54.1757069  40.4733617
 106.7643331  54.1206689  41.4845675  93.7227920  44.9640565  25.2943281
  94.0181361  44.0551243  25.2410335  92.8215956  44.9428304  24.9724284
 105.6313999  56.6847829  32.0993690 105.5065138  55.8837568  31.5904635
 106.2893090  57.1794022  31.6107660  97.2522167  43.0396561  31.2770830
  96.5308753  43.6532529  31.1378303  98.0415423  43.5754326  31.1987476
 107.6948907  54.4856849  33.7273240 106.7479243  54.3662200  33.6551567
 108.0431680  53.5979347  33.8099501 100.0548480  40.3750988  37.5511482
 100.5782882  40.6213284  38.3137791  99.8360814  41.2071022  37.1314619
  95.4515761  42.6454662  25.4182607  95.1228468  41.7652041  25.2357712
  95.8055132  42.5902331  26.3058996 104.6995340  54.2809565  29.9277592
 104.5520303  53.3526272  30.1085162 105.5248834  54.3029656  29.4434667
  98.5657585  42.9327632  25.7858084  98.9053657  43.4613553  25.0636693
  99.0129705  43.2708038  26.5616651 108.3029462  55.1038124  31.0142465
 109.2276010  54.8980985  30.8766916 108.1344766  54.8554525  31.9231806
 101.2601025  41.3164683  35.2361152 100.9197846  40.5172496  35.6381832
 100.5540032  41.6166394  34.6637985 101.9117497  38.4013995  33.6888475
 102.7343567  37.9274473  33.5667366 102.1555561  39.1804479  34.1887162
 100.5525732  41.4302254  23.9851377 101.2734094  41.8083506  23.4815094
  99.9291036  42.1491130  24.0886355 104.6956855  42.1347403  24.9209709
 104.9120469  43.0172040  24.6198537 104.2150922  41.7433616  24.1915351
  99.4356076  45.0933116  31.4980454  99.2900657  45.4073419  32.3904735
  98.9581280  45.7118016  30.9451353 101.2952459  42.0835664  31.5461343
 101.2814028  41.1876757  31.2093641 102.0124887  42.0906328  32.1799630
 103.1478590  42.5173004  33.5914471 102.8896367  43.4390075  33.5898801
 102.6163630  42.1203439  34.2814935 108.0924778  55.6223791  26.3704556
 108.2661656  55.0570214  25.6178409 108.5853670  56.4224686  26.1884046
  93.9101738  47.6338460  34.4368115  93.3655206  48.4098268  34.5688389
  94.7881088  47.9809265  34.2787237 100.6989355  40.9650044  26.8148914
 100.8205266  40.0366690  27.0139801 100.4091397  40.9788730  25.9027229
 103.5680545  38.6504955  29.9515633 103.5902242  38.7144288  28.9967613
 103.9848604  37.8109463  30.1456140 113.9464170  48.3860214  27.9894856
 114.3895316  47.6367539  27.5913979 113.0690680  48.3770350  27.6068588
 109.0799951  54.9390556  23.4701455 109.7750856  55.5597248  23.6888769
 109.4223101  54.0885907  23.7453832  94.6967760  46.7608356  37.3298272
  93.9549496  46.9090992  37.9162902  94.3760504  47.0216622  36.4665021
 110.9791374  52.3890261  24.9988785 111.5042698  52.7277534  24.2738105
 110.8913727  51.4537276  24.8151920 102.6411423  56.3024335  37.1278662
 102.9498549  56.0573481  38.0001362 103.4386905  56.5070973  36.6397532
 102.6632035  58.4562244  29.3584039 102.2237025  57.9638623  30.0516895
 103.4140152  57.9135212  29.1176114  95.1424374  54.6473785  29.3608667
  95.9682394  54.3477557  28.9807310  94.7918426  53.8781408  29.8098455
 100.1105907  54.0000253  31.4306340  99.4885916  53.3370958  31.1308568
 100.7810774  54.0261385  30.7479988  93.3432979  52.5660112  30.3197600
  92.5064887  52.1382286  30.1381601  93.3156624  52.7592555  31.2568391
 100.1830434  42.4782041  41.0238846 100.2318590  43.3544164  40.6416616
 100.7252949  41.9359434  40.4510489 110.6685280  53.0223165  40.3039983
 109.8780824  53.0047304  39.7644483 110.4318635  53.5611458  41.0589020
 110.7883155  49.8715631  37.6172712 110.8381160  49.7065639  38.5588235
 110.6797078  49.0042890  37.2270593  99.6719414  52.5504177  24.9064801
  99.8207534  53.2339641  24.2531473 100.4785857  52.5309267  25.4214256
 108.0786918  45.8546559  38.9332019 108.9796780  45.7153024  38.6416016
 108.1534892  46.0201014  39.8730196 102.4129723  43.2313414  37.7785205
 101.5433032  43.5246980  37.5067793 102.6489203  43.8153859  38.4992468
 112.2901352  52.2912573  37.8614733 111.9986160  52.6542553  38.6978194
 111.6773483  51.5779581  37.6828065 113.4897034  49.8565452  30.3817304
 114.3243926  50.2955256  30.5454864 113.6256163  49.3804106  29.5625549
 110.5388540  47.4145187  36.3294791 111.0142662  47.6072834  35.5213643
 109.6154106  47.4704373  36.0838175  97.4272047  48.5769354  25.9125870
  97.1818089  47.6731684  26.1106080  97.5967961  48.5786505  24.9705348
 105.1168757  39.4493031  35.2950625 105.6350701  40.1854058  34.9697114
 104.7623889  39.7557024  36.1297384  96.6967694  44.3097712  23.4112031
  96.0036939  44.3842067  22.7552067  96.4519446  43.5458056  23.9333548
 105.3681351  35.8693313  30.8151522 105.6483105  35.2016502  31.4411948
 106.1531958  36.0622409  30.3026186 103.1714819  55.0452307  22.3776548
 102.5988786  55.6642494  21.9247020 103.7447613  55.5951669  22.9116470
 109.2390209  44.2910947  34.5623097 110.1907632  44.3909045  34.5835321
 109.0693660  43.4989216  35.0721181 107.2604589  41.3766531  34.7482498
 106.6654521  41.6571543  34.0528987 106.9754285  41.8660431  35.5199239
 106.3912079  55.3289457  23.5085130 107.3242752  55.2635019  23.7118006
 106.3035292  56.1645724  23.0499663 109.0200096  54.6455328  20.4689078
 108.9413727  54.3115191  21.3624836 109.8409763  55.1377096  20.4680550
 111.7178287  47.5117067  33.6765397 111.6854607  46.5733068  33.8625080
 112.3278911  47.5901104  32.9431221 103.5561618  46.3813120  19.7192601
 104.5020723  46.2519328  19.7881019 103.1775863  45.6427782  20.1962029
 111.8672775  44.3028110  33.7223680 111.3511824  43.5186567  33.5353609
 112.7512724  43.9746827  33.8870199 109.5283502  38.0469126  29.6819492
 109.3308324  37.7384214  30.5662824 110.1383208  38.7730765  29.8117422
 117.5354837  48.5733074  32.8171433 118.2658225  48.3118362  33.3779137
 116.9261782  47.8361796  32.8573501 115.6170134  46.7140936  33.4145885
 114.8903298  46.5796901  32.8062376 115.2017421  47.0217765  34.2202603
 103.4400310  50.4330866  41.1793258 104.3603320  50.6109465  41.3733304
 103.4049893  49.4886911  41.0272957 101.7404535  44.3063096  19.6547486
 100.8335990  44.0096209  19.7310199 102.0180516  44.0092914  18.7881772
  92.6582475  45.6269460  30.1046532  92.3385260  44.7734768  29.8120906
  92.1115904  45.8418038  30.8604500  96.4362383  48.3431901  33.8216039
  96.6548393  49.2749009  33.8404073  96.8488157  47.9839875  34.6070843
 103.3566601  38.8499986  25.8091727 102.5467329  38.5047071  26.1846973
 104.0451018  38.5407530  26.3979339 105.2857149  37.9278033  27.4316024
 105.8388188  38.3473486  28.0906047 105.5227235  37.0013781  27.4738980
 101.3090248  43.9165107  43.2118788 101.2086975  44.8659463  43.1430879
 101.0911790  43.5883345  42.3394858 100.5103320  41.1650032  19.7959465
 101.3722484  41.4904930  20.0555282 100.6953664  40.3781527  19.2832531
  92.5270735  49.2472371  32.0739654  91.8334207  48.8326324  31.5609608
  93.2743726  49.2892908  31.4773073 108.6635956  40.0378558  26.9394688
 108.0834625  40.6963362  26.5572740 108.3971889  39.2155903  26.5282106
 107.1139522  39.4383616  29.1416008 107.6139301  39.5500150  28.3330327
 107.7575130  39.1344669  29.7816817 101.1721518  47.3462245  42.0283849
 100.6888600  48.1462605  42.2347738 101.2582457  47.3570190  41.0751293
  94.4407478  49.1790625  29.9505669  94.4178166  49.2778312  28.9987552
  94.7508114  50.0255776  30.2722835  97.0994856  51.2366780  34.0652283
  98.0538109  51.2050722  33.9982215  96.9007379  50.7757404  34.8802509
  97.6894238  49.8067896  36.6323081  98.5087127  50.3011975  36.6557918
  97.9631046  48.8899864  36.6040648 107.4460834  42.1978648  25.9951036
 106.5586689  42.4828299  25.7771231 107.8614823  42.0372412  25.1478313
 110.7975370  42.2225169  29.7105376 111.5735760  42.7121622  29.9829992
 110.0723504  42.6483224  30.1677245 113.2347929  42.9352789  30.7679316
 113.8292420  42.6948525  30.0572624 113.3074513  42.2159919  31.3952852
  95.4545085  56.7786400  31.0822481  95.3199553  56.0186800  30.5160479
  95.0377147  57.5027299  30.6151270 106.5904048  51.9623323  20.0899056
 107.2939898  52.1673326  20.7056712 105.8666696  52.5300085  20.3548140
 107.4201858  47.7133184  26.2101326 107.3637059  48.1701736  25.3708959
 107.9730200  46.9523869  26.0324169 111.2306664  43.5022916  27.0351446
 110.9743598  43.1019552  27.8659654 110.6059532  44.2166710  26.9101585
 115.5419002  46.2418989  29.5422737 114.9818560  46.3112179  30.3154299
 114.9362505  46.0659974  28.8222234  98.6114210  57.6755717  31.2940924
  98.4946595  58.6201149  31.1919614  97.7906657  57.3729278  31.6826723
 108.4990745  52.4005852  22.1397516 109.3336349  51.9687051  21.9574991
 108.3375088  52.2287866  23.0674411 108.1536637  48.9037966  23.5053856
 108.0985441  48.7382237  22.5642300 107.5282692  49.6113999  23.6616045
  92.9429152  44.1406030  37.3315278  93.5888016  43.6304984  37.8202503
  92.7346303  44.8774712  37.9058703 105.4682544  51.2086877  42.8307418
 106.3373704  51.3827530  42.4694053 104.9889296  52.0281294  42.7083148
 101.4632763  38.4046075  23.0839174 101.4511432  39.3487915  23.2407445
 102.3556185  38.2216220  22.7898635  99.6368725  58.3283978  34.5096852
 100.5395971  58.3607589  34.8263347  99.4106095  57.3984429  34.5243188
 101.3922327  57.0814965  31.1706931 100.4417958  57.0816827  31.0571303
 101.6954813  56.3347700  30.6542965 105.2784882  34.9988851  27.3385111
 104.5117278  34.4447338  27.4841793 105.6895587  35.0710720  28.1999262
  97.2826643  41.2873647  41.4290292  98.1458105  40.9310452  41.6393617
  96.7092054  40.9487542  42.1165696 117.1275020  62.9175503  32.2352693
 117.7653430  62.7982251  31.5316033 117.0095863  63.8656347  32.2940645
 113.9364726  62.8702932  32.1714218 113.5983238  62.7543996  31.2834753
 114.8054495  62.4694097  32.1515224 109.7951542  64.7238408  28.1611109
 109.2316407  64.6328345  27.3927397 109.6803937  63.9038312  28.6413601
 114.4184509  64.0237783  38.1300423 114.4073150  63.6290581  37.2580927
 114.5805149  63.2903856  38.7234195 107.3415974  66.2189600  30.9995329
 108.1337266  65.8780424  30.5841629 107.5812624  66.3284575  31.9197483
 115.3751101  68.3909376  23.4725574 114.7239081  68.9763456  23.0859587
 116.1695464  68.9215571  23.5320611 109.3006728  65.4798513  23.8712708
 110.0737604  64.9327500  23.7325584 109.6532127  66.3442762  24.0827169
 111.1391770  66.8074895  37.0779607 110.8481636  67.7120526  36.9626274
 111.7748755  66.8491423  37.7923677 112.0647977  64.1851744  33.6680967
 112.6611550  63.9607766  32.9537930 112.1222949  63.4436489  34.2706415
 111.6373006  61.6391179  21.5031158 111.8898526  61.1172700  20.7414621
 110.6997565  61.4757324  21.6057842 116.6816289  60.6426957  29.3105901
 117.4679378  60.2246380  28.9596318 116.9454993  61.5473049  29.4787550
 116.8526366  66.0799808  24.0094558 116.2172199  66.1534434  24.7215463
 116.5223772  66.6693406  23.3313637 122.0824716  60.5802190  30.2138880
 122.8149888  60.0101407  30.4476709 121.3264071  60.1923791  30.6545385
 111.3569294  63.5419285  23.7055533 111.2405553  62.8664188  24.3736617
 111.4671554  63.0551659  22.8887686 113.7000835  63.0029432  27.4102222
 113.3359043  62.4760053  28.1215144 114.5567951  62.6127901  27.2368708
 119.6050136  54.2923765  34.6733488 119.2733461  55.1619176  34.4494703
 119.0095749  53.9760049  35.3527519 113.3406322  58.0319332  22.4063571
 113.5080725  58.8999568  22.7734042 113.1503491  58.1946613  21.4824860
 116.0981656  66.4936311  34.0729401 115.7982379  67.3961349  33.9645208
 115.7532715  66.2268494  34.9250554 109.5494137  62.9450107  30.1066105
 108.6244634  62.8126321  30.3143797 109.7978550  63.7244327  30.6036048
 119.4978799  59.0118851  31.7526838 118.5895677  58.9434259  31.4585599
 119.4466395  59.4890796  32.5808664 113.3195543  60.4876989  23.3910237
 113.1995168  60.9334040  24.2295718 112.6248132  60.8362307  22.8323776
 106.9102948  62.5883381  30.9409895 107.0395329  62.8417860  31.8549306
 106.2300399  63.1811089  30.6214550 111.0802435  73.2580631  27.0400369
 111.0026465  74.2088456  27.1188849 110.4764079  72.9126503  27.6975295
 113.5719665  60.4308496  39.6961736 112.7952999  60.9902416  39.6864600
 114.2110228  60.9165279  40.2176606 121.3640446  57.2135289  33.5304712
 120.7214826  57.5067822  32.8844507 120.8595374  57.0988209  34.3357909
 119.0180609  60.9598462  24.2190572 119.9298466  61.1925849  24.0438269
 118.5090257  61.5435507  23.6565650 111.8266037  63.2393950  39.2579703
 112.5680722  63.7778994  38.9814526 111.1203023  63.8660238  39.4151254
 117.3021377  65.3823090  37.8551864 117.7104733  64.9405501  37.1106496
 116.5798639  64.8075718  38.1086057 113.6552447  60.3195697  35.2285421
 114.5013642  60.7435110  35.3720070 113.5951085  59.6629321  35.9223984
 117.6250192  65.9424281  31.6104153 116.9959054  66.1069995  30.9080221
 117.2375854  66.3565890  32.3815117 121.5039424  66.8778719  28.9648517
 120.8190462  67.2577620  28.4145550 121.5883273  67.4874045  29.6980464
 116.8051892  57.9800065  36.8866595 116.5612824  58.7342126  36.3500870
 117.0811823  58.3585413  37.7213842 118.7590355  64.5238678  35.5643860
 118.9707250  65.1670438  34.8878241 118.7120103  63.6900994  35.0965790
 116.3616584  57.1356498  32.4680432 115.5001063  57.4337752  32.7597170
 116.3879019  57.3526897  31.5361465 113.1778154  65.6798689  28.8754238
 113.6416499  65.9586392  28.0858861 112.9134952  64.7782133  28.6927329
 110.0702235  65.2270170  31.8134001 110.6403592  65.6557439  31.1751486
 110.6610347  64.9452755  32.5118187 112.1147040  61.8021841  25.6843803
 112.8171083  62.2542885  26.1517730 111.7827668  61.1605660  26.3123696
 110.5627401  60.3933598  40.0595013 109.9326062  61.0749879  40.2930409
 110.4563489  60.2816679  39.1148151 105.8572374  60.0605394  30.9860937
 105.0671428  60.3162922  30.5101047 106.3483621  60.8753732  31.0912977
 119.8736183  67.4010633  33.7366218 120.6953627  66.9990820  33.4548899
 119.8698586  67.2978867  34.6882333 107.8087119  60.4249973  27.9444413
 107.0118282  60.5368667  28.4627909 107.5812711  60.7636625  27.0785304
 113.6392787  66.9494676  35.8926928 113.7037219  67.4115084  36.7285100
 112.9303711  66.3192041  36.0209238 104.1410077  60.3135884  33.4175928
 104.3918115  61.1982894  33.6833504 104.6769625  60.1340486  32.6451019
 127.9642176  63.7449382  30.0851189 127.2105885  63.1756780  29.9295194
 128.0989717  63.7112046  31.0321824 113.3540804  68.6162784  25.7605908
 113.2186479  69.4614320  26.1890756 113.8950617  68.8182061  24.9971842
 109.8408144  54.6954364  42.4220264 109.4475089  54.1420562  43.0967908
 110.6574284  55.0064942  42.8126781 106.8070202  66.1338222  26.3333834
 107.3194722  66.9281472  26.4839398 107.4592915  65.4364512  26.2667435
 108.6165086  69.2503978  28.4156587 108.7931715  70.1721943  28.2277571
 109.4121920  68.9362397  28.8450966 112.7576105  56.1112243  40.0140520
 113.4985818  56.7119396  39.9344983 112.9894028  55.3689881  39.4558563
 107.9017443  61.2968610  38.2918750 107.7870958  60.3953867  38.5925849
 107.0461961  61.5432307  37.9403566 114.9809281  69.2386350  39.8906251
 114.5373135  68.4522729  39.5727155 115.6426494  69.4265501  39.2250141
 109.7396402  70.7682152  34.4166929 110.2903827  70.6399215  33.6443923
 108.9007878  71.0677041  34.0661822 117.0790519  69.5189150  37.9187652
 117.0608994  70.3398031  37.4267921 118.0010439  69.3943226  38.1437793
 113.5363573  67.0333280  38.7611160 114.0691910  66.2721568  38.5310468
 113.0077654  66.7406932  39.5035315 116.7033268  52.1393346  34.2904802
 116.3597537  53.0294987  34.2143912 117.0712230  51.9495003  33.4274387
 104.7719118  64.4626876  27.1093404 105.6094340  64.8723885  26.8927112
 104.9497386  63.5226318  27.0793598 116.6683551  62.1301957  22.7977237
 116.1530174  62.9006561  23.0365624 116.3960859  61.4567093  23.4210298
 114.2530662  56.9751658  27.8562475 113.3972258  56.5858508  27.6768114
 114.6657613  57.0543618  26.9962261 115.7829808  54.5098001  32.2554035
 115.2794604  54.4728136  31.4421840 116.0760415  55.4190744  32.3150692
 112.0272694  54.5936731  31.2620217 112.8925691  54.3979539  30.9026106
 112.0950203  54.3647082  32.1889574 121.6417825  64.8834311  24.7330410
 120.8647267  64.5445471  24.2885573 122.3209306  64.8886935  24.0585376
 116.4569854  60.0029049  24.6237018 116.1519989  60.3175198  25.4747161
 117.4100296  60.0810469  24.6664351 114.9016286  66.1619272  26.2729972
 114.3737647  65.4272032  25.9603210 114.4003788  66.9393949  26.0269940
 119.8809132  64.3568293  31.3897018 119.2232806  65.0467554  31.4777147
 120.6849531  64.7464725  31.7331005 109.6335013  56.8238939  28.6336584
 110.2078765  56.6014120  27.9009777 110.2205996  56.8927633  29.3865185
 118.6914590  62.7112665  29.4400960 119.2046472  63.3442657  29.9422670
 119.3415814  62.1113861  29.0744320 109.9604600  58.8543400  22.6532469
 109.1241913  59.1918086  22.9741744 109.8209370  58.7192379  21.7159606
 111.9357681  53.6980187  27.3611653 111.2822093  53.3829205  26.7368268
 111.8938155  53.0755928  28.0871476 113.0468886  63.9799483  19.2764945
 112.1395948  63.7488736  19.4756094 113.5439918  63.1837102  19.4638927
 115.9536965  72.6896990  22.1961631 115.2798663  72.9928686  22.8046589
 116.3402787  73.4926070  21.8467088 115.1695421  60.1862121  31.6859301
 114.2517983  60.4077068  31.5280989 115.5855565  60.2608431  30.8271008
 115.9530469  61.5853537  26.8161981 116.7002288  62.0974934  26.5069103
 116.2222059  61.2637589  27.6766375 114.2257119  64.0812077  23.7988935
 113.3168338  63.7971110  23.8961405 114.2552203  64.5011156  22.9392242
 119.4576387  67.6918667  27.5680103 119.0038714  66.8509577  27.6245293
 118.8270353  68.3280065  27.9054883 118.4009306  58.6210653  28.7980770
 117.6632063  58.1088039  29.1291013 118.6536080  58.1811035  27.9864047
 117.9009326  69.5295164  28.5029921 118.1932300  70.0900221  27.7842287
 118.4107946  69.8223725  29.2583080 118.5020934  51.3986905  29.3922540
 118.8079810  50.5384268  29.1048455 119.2273538  51.9904525  29.1921533
 104.7945290  61.8017592  27.7804137 104.5969689  61.2086952  27.0555204
 104.2391954  61.4969802  28.4980076 112.7742013  61.6940698  29.8998731
 112.8290623  60.7414534  29.8241207 111.9633215  61.8500137  30.3840029
 113.9233207  65.6220821  21.1377014 113.4852637  64.9056680  20.6782651
 114.6643648  65.8496936  20.5762105 110.7134373  60.3117758  27.6589110
 109.9002239  60.6111928  28.0654302 111.2093367  59.9173447  28.3763592
 112.8642951  70.3075515  29.5923374 112.8219130  70.5336361  28.6631906
 113.7805650  70.0738889  29.7409175 116.3108585  60.7759582  36.4904003
 116.6657973  61.0031055  37.3498469 116.9580716  61.1077959  35.8681259
 122.0406322  63.8978018  27.1953332 121.9024220  64.0879614  26.2674522
 121.6842541  64.6597401  27.6521384 110.2048448  57.8836113  33.2750344
 110.8447827  57.7424872  32.5773308 109.3725978  57.5970627  32.8988946
 122.0675701  65.9654545  32.2064604 122.5012208  65.8729834  33.0547658
 122.7807282  65.9412046  31.5684620 110.9808752  67.1838544  29.3885337
 111.7749350  66.6888864  29.1867912 110.2700444  66.6556407  29.0253042
 115.8003596  69.5656639  33.7397705 115.8540619  70.1347576  34.5075420
 114.9318378  69.7358524  33.3751742 107.2891515  61.3281625  25.4645090
 106.3589103  61.2666081  25.6815052 107.3848987  60.8057578  24.6681731
 107.2077064  57.8536438  28.0523331 107.4683882  58.7681771  27.9432492
 108.0294237  57.3860881  28.2019944 108.6801990  59.2674195  35.2222156
 109.3525043  59.0591558  34.5734805 107.8531776  59.0696281  34.7827388
 122.9291251  66.0078246  34.7397489 123.1227141  66.9124056  34.9856764
 122.8291869  65.5485665  35.5736074 114.5827562  55.8936136  37.2387817
 113.9355477  56.5926086  37.1452293 115.3528577  56.3272280  37.6064065
 117.9906360  66.1584989  40.3138370 117.8391866  65.9295540  39.3968454
 117.9811039  67.1155590  40.3269715 114.7591696  63.7316901  35.2984636
 115.6883756  63.8828061  35.1253604 114.3382726  63.8200922  34.4433283
 113.5580028  67.7567566  33.0683174 113.4191114  67.3886350  33.9409112
 112.7694624  68.2715205  32.8967132 114.1528180  72.8576662  24.4108711
 114.3279935  72.3864705  25.2254333 113.4660968  73.4842428  24.6389971
 115.1085243  67.1349168  30.4572012 114.7735076  67.0949938  31.3529662
 114.6089189  66.4693884  29.9842422 109.0829487  62.5416798  35.9824593
 108.9449285  61.8097037  36.5836132 109.9934410  62.4525698  35.7008781
 118.0444435  64.4805203  20.7309071 117.4273605  63.7552031  20.6342124
 117.5760923  65.2414563  20.3876146 111.7111788  62.2536758  35.4708273
 112.4211406  61.6129950  35.4294891 111.6681096  62.5049653  36.3934453
 119.6998566  69.1904111  38.3914852 119.6411112  68.5063331  37.7245435
 120.1018085  69.9323101  37.9395478 110.4240722  59.2401976  37.2903912
 109.8878079  58.7892714  37.9425508 109.8357430  59.3747884  36.5474376
 108.7189265  76.0066025  31.1848571 108.9585863  76.6384549  31.8627589
 107.8758462  75.6554065  31.4713930 109.8342981  58.6990627  19.8530376
 108.9572447  58.5779428  19.4892622 110.3100734  57.9076705  19.6009264
 119.7015974  67.1543695  36.6228831 118.8142752  66.8169617  36.7455230
 120.2714525  66.4226726  36.8597597 101.3545121  63.4867787  29.9471883
 102.0416161  63.1729517  29.3592898 101.1993249  64.3909151  29.6739134
 106.1579843  58.3757983  34.3756907 106.0738032  57.7683653  33.6407317
 105.3362549  58.8667002  34.3766403 113.2317127  71.8145147  33.5890075
 113.1587298  72.6200119  34.1009379 112.7894520  72.0137113  32.7638096
 113.0206907  71.0516917  27.0992896 112.2374428  71.5938598  27.1931121
 113.7199652  71.5690897  27.4987137 116.3303557  56.8611547  29.7427102
 116.8272256  56.1081509  29.4228172 115.5590538  56.8975863  29.1770311
 124.1833314  62.5651912  31.3845393 124.1723190  63.4476628  31.0139326
 123.3150694  62.2123463  31.1899930 115.6915810  71.7131981  35.7448233
 116.4043783  72.3479446  35.6724135 115.2005839  71.8095847  34.9288235
 117.4133337  65.6183234  27.3165525 116.4789616  65.7384697  27.1470229
 117.5910006  64.7155701  27.0525535 112.9138525  59.0028930  29.4698786
 112.5436313  58.4499970  30.1579692 113.4097618  58.3987063  28.9173786
 120.8005889  61.4600553  27.8515559 121.2666341  62.2928545  27.7775862
 121.2513389  60.9945535  28.5560818 110.7427724  69.4626425  36.5653804
 111.4437184  70.0962908  36.7183198 110.2722839  69.8041156  35.8049443
 118.8682120  67.8044375  24.8501711 119.1441964  67.6900969  25.7595585
 117.9986619  67.4061859  24.8113884 118.7722551  53.8281140  31.8906460
 117.8585631  54.0585367  32.0588667 119.2015653  53.9119584  32.7420493
 118.5429010  62.0171032  34.3906355 117.8900460  62.2646940  33.7358807
 118.9209390  61.2035170  34.0568832 115.5036184  72.0530725  28.4934525
 115.6858578  71.2352381  28.9562277 116.3269170  72.2698418  28.0559415
 115.8378349  70.9798911  25.7549573 116.3666116  70.4691365  25.1419735
 116.1006569  70.6641441  26.6195106 114.5916583  62.7590843  40.8772392
 113.9157220  62.6584973  41.5474767 115.4144217  62.6030057  41.3408389
 106.3395442  68.9962780  33.4984907 106.9248879  68.2506468  33.6312811
 106.1420281  69.3066737  34.3821571 109.1934097  72.0314027  28.5147349
 108.5244473  72.5160155  28.0311389 109.0546967  72.2783248  29.4290728
 100.9313097  61.5668380  32.2189350 100.9697196  61.0331971  33.0126468
 100.4253390  61.0403586  31.6000327 113.3339366  74.0657771  35.1130008
 113.8857674  74.2289392  35.8779093 113.6745559  74.6562209  34.4410032
 108.3103859  56.4132921  35.7151892 108.3745186  57.2747751  35.3029290
 108.2470979  55.8006922  34.9824251 107.7856132  58.4856053  39.3624927
 108.4128170  58.1033130  39.9762451 106.9284050  58.2670255  39.7280619
 118.1850240  68.8919028  40.9678662 118.7290144  69.5048987  40.4733617
 117.6037085  69.4498607  41.4845675 104.5621674  60.2932482  25.2943281
 104.8575115  59.3843161  25.2410335 103.6609710  60.2720222  24.9724284
 116.4707753  72.0139746  32.0993690 116.3458893  71.2129486  31.5904635
 117.1286844  72.5085940  31.6107660 108.0915921  58.3688479  31.2770830
 107.3702507  58.9824447  31.1378303 108.8809177  58.9046244  31.1987476
 118.5342662  69.8148766  33.7273240 117.5872997  69.6954118  33.6551567
 118.8825435  68.9271264  33.8099501 110.8942235  55.7042905  37.5511482
 111.4176637  55.9505202  38.3137791 110.6754568  56.5362940  37.1314619
 106.2909516  57.9746580  25.4182607 105.9622222  57.0943959  25.2357712
 106.6448887  57.9194249  26.3058996 115.5389095  69.6101483  29.9277592
 115.3914057  68.6818190  30.1085162 116.3642588  69.6321573  29.4434667
 109.4051339  58.2619550  25.7858084 109.7447412  58.7905471  25.0636693
 109.8523460  58.5999956  26.5616651 119.1423217  70.4330041  31.0142465
 120.0669764  70.2272903  30.8766916 118.9738520  70.1846443  31.9231806
 112.0994780  56.6456600  35.2361152 111.7591600  55.8464413  35.6381832
 111.3933786  56.9458311  34.6637985 112.7511252  53.7305913  33.6888475
 113.5737321  53.2566391  33.5667366 112.9949315  54.5096397  34.1887162
 111.3919486  56.7594171  23.9851377 112.1127849  57.1375424  23.4815094
 110.7684790  57.4783048  24.0886355 115.5350609  57.4639320  24.9209709
 115.7514224  58.3463958  24.6198537 115.0544676  57.0725534  24.1915351
 110.2749831  60.4225033  31.4980454 110.1294411  60.7365337  32.3904735
 109.7975034  61.0409934  30.9451353 112.1346213  57.4127581  31.5461343
 112.1207782  56.5168675  31.2093641 112.8518642  57.4198245  32.1799630
 113.9872344  57.8464922  33.5914471 113.7290122  58.7681992  33.5898801
 113.4557385  57.4495356  34.2814935 118.9318533  70.9515709  26.3704556
 119.1055410  70.3862131  25.6178409 119.4247424  71.7516604  26.1884046
 104.7495493  62.9630378  34.4368115 104.2048961  63.7390186  34.5688389
 105.6274843  63.3101182  34.2787237 111.5383109  56.2941962  26.8148914
 111.6599021  55.3658608  27.0139801 111.2485152  56.3080648  25.9027229
 114.4074300  53.9796872  29.9515633 114.4295997  54.0436205  28.9967613
 114.8242359  53.1401381  30.1456140 124.7857924  63.7152132  27.9894856
 125.2289070  62.9659457  27.5913979 123.9084434  63.7062268  27.6068588
 119.9193705  70.2682473  23.4701455 120.6144610  70.8889166  23.6888769
 120.2616856  69.4177824  23.7453832 105.5361515  62.0900274  37.3298272
 104.7943251  62.2382910  37.9162902 105.2154259  62.3508540  36.4665021
 121.8185129  67.7182179  24.9988785 122.3436453  68.0569451  24.2738105
 121.7307481  66.7829194  24.8151920 113.4805177  71.6316252  37.1278662
 113.7892304  71.3865399  38.0001362 114.2780659  71.8362891  36.6397532
 113.5025789  73.7854162  29.3584039 113.0630780  73.2930541  30.0516895
 114.2533906  73.2427130  29.1176114 105.9818128  69.9765703  29.3608667
 106.8076148  69.6769475  28.9807310 105.6312180  69.2073325  29.8098455
 110.9499661  69.3292171  31.4306340 110.3279671  68.6662876  31.1308568
 111.6204528  69.3553303  30.7479988 104.1826733  67.8952029  30.3197600
 103.3458642  67.4674204  30.1381601 104.1550379  68.0884473  31.2568391
 111.0224189  57.8073959  41.0238846 111.0712344  58.6836082  40.6416616
 111.5646703  57.2651352  40.4510489 121.5079035  68.3515082  40.3039983
 120.7174578  68.3339221  39.7644483 121.2712389  68.8903376  41.0589020
 121.6276910  65.2007549  37.6172712 121.6774915  65.0357556  38.5588235
 121.5190833  64.3334808  37.2270593 110.5113168  67.8796094  24.9064801
 110.6601289  68.5631559  24.2531473 111.3179612  67.8601184  25.4214256
 118.9180672  61.1838477  38.9332019 119.8190535  61.0444942  38.6416016
 118.9928647  61.3492932  39.8730196 113.2523477  58.5605332  37.7785205
 112.3826787  58.8538898  37.5067793 113.4882958  59.1445777  38.4992468
 123.1295106  67.6204490  37.8614733 122.8379915  67.9834471  38.6978194
 122.5167238  66.9071499  37.6828065 124.3290789  65.1857370  30.3817304
 125.1637680  65.6247174  30.5454864 124.4649918  64.7096023  29.5625549
 121.3782295  62.7437105  36.3294791 121.8536416  62.9364751  35.5213643
 120.4547860  62.7996291  36.0838175 108.2665801  63.9061272  25.9125870
 108.0211843  63.0023602  26.1106080 108.4361716  63.9078423  24.9705348
 115.9562511  54.7784948  35.2950625 116.4744455  55.5145975  34.9697114
 115.6017644  55.0848942  36.1297384 107.5361449  59.6389630  23.4112031
 106.8430694  59.7133985  22.7552067 107.2913201  58.8749973  23.9333548
 116.2075105  51.1985231  30.8151522 116.4876859  50.5308420  31.4411948
 116.9925712  51.3914327  30.3026186 114.0108574  70.3744225  22.3776548
 113.4382541  70.9934412  21.9247020 114.5841368  70.9243587  22.9116470
 120.0783964  59.6202865  34.5623097 121.0301387  59.7200963  34.5835321
 119.9087414  58.8281134  35.0721181 118.0998343  56.7058448  34.7482498
 117.5048275  56.9863461  34.0528987 117.8148040  57.1952349  35.5199239
 117.2305834  70.6581375  23.5085130 118.1636507  70.5926937  23.7118006
 117.1429046  71.4937642  23.0499663 119.8593850  69.9747245  20.4689078
 119.7807482  69.6407109  21.3624836 120.6803517  70.4669013  20.4680550
 122.5572041  62.8408985  33.6765397 122.5248362  61.9024985  33.8625080
 123.1672665  62.9193021  32.9431221 114.3955372  61.7105038  19.7192601
 115.3414477  61.5811246  19.7881019 114.0169617  60.9719700  20.1962029
 122.7066530  59.6320028  33.7223680 122.1905579  58.8478485  33.5353609
 123.5906478  59.3038745  33.8870199 120.3677257  53.3761044  29.6819492
 120.1702078  53.0676132  30.5662824 120.9776962  54.1022683  29.8117422
 128.3748591  63.9024992  32.8171433 129.1051980  63.6410280  33.3779137
 127.7655537  63.1653713  32.8573501 126.4563888  62.0432854  33.4145885
 125.7297052  61.9088819  32.8062376 126.0411175  62.3509683  34.2202603
 114.2794065  65.7622784  41.1793258 115.1997074  65.9401383  41.3733304
 114.2443648  64.8178829  41.0272957 112.5798289  59.6355014  19.6547486
 111.6729745  59.3388127  19.7310199 112.8574270  59.3384832  18.7881772
 103.4976230  60.9561377  30.1046532 103.1779014  60.1026686  29.8120906
 102.9509658  61.1709956  30.8604500 107.2756137  63.6723818  33.8216039
 107.4942147  64.6040926  33.8404073 107.6881911  63.3131793  34.6070843
 114.1960355  54.1791904  25.8091727 113.3861084  53.8338989  26.1846973
 114.8844772  53.8699447  26.3979339 116.1250903  53.2569951  27.4316024
 116.6781942  53.6765404  28.0906047 116.3620990  52.3305699  27.4738980
 112.1484003  59.2457024  43.2118788 112.0480730  60.1951381  43.1430879
 111.9305545  58.9175263  42.3394858 111.3497074  56.4941949  19.7959465
 112.2116238  56.8196848  20.0555282 111.5347418  55.7073445  19.2832531
 103.3664490  64.5764289  32.0739654 102.6727961  64.1618242  31.5609608
 104.1137481  64.6184825  31.4773073 119.5029711  55.3670476  26.9394688
 118.9228380  56.0255280  26.5572740 119.2365643  54.5447820  26.5282106
 117.9533277  54.7675533  29.1416008 118.4533055  54.8792068  28.3330327
 118.5968885  54.4636586  29.7816817 112.0115273  62.6754163  42.0283849
 111.5282354  63.4754523  42.2347738 112.0976212  62.6862108  41.0751293
 105.2801232  64.5082543  29.9505669 105.2571921  64.6070230  28.9987552
 105.5901869  65.3547694  30.2722835 107.9388610  66.5658698  34.0652283
 108.8931864  66.5342640  33.9982215 107.7401134  66.1049321  34.8802509
 108.5287992  65.1359814  36.6323081 109.3480881  65.6303892  36.6557918
 108.8024800  64.2191782  36.6040648 118.2854589  57.5270566  25.9951036
 117.3980444  57.8120217  25.7771231 118.7008578  57.3664329  25.1478313
 121.6369125  57.5517087  29.7105376 122.4129515  58.0413540  29.9829992
 120.9117259  57.9775141  30.1677245 124.0741683  58.2644706  30.7679316
 124.6686174  58.0240442  30.0572624 124.1468267  57.5451837  31.3952852
 106.2938839  72.1078317  31.0822481 106.1593307  71.3478718  30.5160479
 105.8770901  72.8319217  30.6151270 117.4297802  67.2915241  20.0899056
 118.1333652  67.4965243  20.7056712 116.7060451  67.8592003  20.3548140
 118.2595612  63.0425102  26.2101326 118.2030814  63.4993653  25.3708959
 118.8123955  62.2815787  26.0324169 122.0700418  58.8314834  27.0351446
 121.8137352  58.4311470  27.8659654 121.4453286  59.5458628  26.9101585
 126.3812756  61.5710907  29.5422737 125.8212314  61.6404096  30.3154299
 125.7756259  61.3951892  28.8222234 109.4507965  73.0047634  31.2940924
 109.3340349  73.9493067  31.1919614 108.6300411  72.7021196  31.6826723
 119.3384499  67.7297770  22.1397516 120.1730103  67.2978968  21.9574991
 119.1768842  67.5579784  23.0674411 118.9930392  64.2329883  23.5053856
 118.9379195  64.0674155  22.5642300 118.3676447  64.9405916  23.6616045
 103.7822907  59.4697948  37.3315278 104.4281770  58.9596902  37.8202503
 103.5740058  60.2066629  37.9058703 116.3076299  66.5378795  42.8307418
 117.1767458  66.7119447  42.4694053 115.8283050  67.3573212  42.7083148
 112.3026517  53.7337992  23.0839174 112.2905187  54.6779832  23.2407445
 113.1949939  53.5508138  22.7898635 110.4762479  73.6575896  34.5096852
 111.3789726  73.6899506  34.8263347 110.2499849  72.7276347  34.5243188
 112.2316081  72.4106883  31.1706931 111.2811712  72.4108744  31.0571303
 112.5348567  71.6639617  30.6542965 116.1178637  50.3280769  27.3385111
 115.3511032  49.7739256  27.4841793 116.5289342  50.4002638  28.1999262
 108.1220398  56.6165565  41.4290292 108.9851859  56.2602370  41.6393617
 107.5485808  56.2779460  42.1165696 127.9668775  78.2467421  32.2352693
 128.6047185  78.1274168  31.5316033 127.8489617  79.1948265  32.2940645
 124.7758481  78.1994849  32.1714218 124.4376992  78.0835914  31.2834753
 125.6448249  77.7986014  32.1515224 120.6345297  80.0530326  28.1611109
 120.0710162  79.9620263  27.3927397 120.5197692  79.2330230  28.6413601
 125.2578264  79.3529701  38.1300423 125.2466905  78.9582499  37.2580927
 125.4198903  78.6195774  38.7234195 118.1809728  81.5481517  30.9995329
 118.9731020  81.2072342  30.5841629 118.4206379  81.6576492  31.9197483
 126.2144855  83.7201293  23.4725574 125.5632835  84.3055374  23.0859587
 127.0089218  84.2507488  23.5320611 120.1400482  80.8090430  23.8712708
 120.9131358  80.2619418  23.7325584 120.4925881  81.6734680  24.0827169
 121.9785525  82.1366813  37.0779607 121.6875391  83.0412444  36.9626274
 122.6142509  82.1783340  37.7923677 122.9041732  79.5143661  33.6680967
 123.5005304  79.2899684  32.9537930 122.9616703  78.7728407  34.2706415
 122.4766760  76.9683097  21.5031158 122.7292281  76.4464618  20.7414621
 121.5391319  76.8049242  21.6057842 127.5210043  75.9718875  29.3105901
 128.3073132  75.5538298  28.9596318 127.7848747  76.8764967  29.4787550
 127.6920120  81.4091725  24.0094558 127.0565953  81.4826352  24.7215463
 127.3617527  81.9985324  23.3313637 132.9218470  75.9094108  30.2138880
 133.6543642  75.3393325  30.4476709 132.1657826  75.5215709  30.6545385
 122.1963049  78.8711203  23.7055533 122.0799307  78.1956106  24.3736617
 122.3065309  78.3843576  22.8887686 124.5394590  78.3321350  27.4102222
 124.1752797  77.8051971  28.1215144 125.3961706  77.9419819  27.2368708
 130.4443891  69.6215682  34.6733488 130.1127215  70.4911093  34.4494703
 129.8489504  69.3051966  35.3527519 124.1800077  73.3611249  22.4063571
 124.3474479  74.2291486  22.7734042 123.9897246  73.5238531  21.4824860
 126.9375410  81.8228228  34.0729401 126.6376133  82.7253267  33.9645208
 126.5926470  81.5560411  34.9250554 120.3887892  78.2742025  30.1066105
 119.4638388  78.1418239  30.3143797 120.6372305  79.0536244  30.6036048
 130.3372554  74.3410768  31.7526838 129.4289431  74.2726177  31.4585599
 130.2860150  74.8182713  32.5808664 124.1589298  75.8168907  23.3910237
 124.0388923  76.2625958  24.2295718 123.4641886  76.1654224  22.8323776
 117.7496703  77.9175299  30.9409895 117.8789084  78.1709778  31.8549306
 117.0694154  78.5103007  30.6214550 121.9196190  88.5872549  27.0400369
 121.8420220  89.5380374  27.1188849 121.3157833  88.2418421  27.6975295
 124.4113420  75.7600414  39.6961736 123.6346754  76.3194334  39.6864600
 125.0503983  76.2457197  40.2176606 132.2034200  72.5427207  33.5304712
 131.5608581  72.8359740  32.8844507 131.6989129  72.4280127  34.3357909
 129.8574364  76.2890380  24.2190572 130.7692220  76.5217767  24.0438269
 129.3484011  76.8727424  23.6565650 122.6659792  78.5685867  39.2579703
 123.4074476  79.1070911  38.9814526 121.9596777  79.1952156  39.4151254
 128.1415132  80.7115008  37.8551864 128.5498488  80.2697418  37.1106496
 127.4192393  80.1367635  38.1086057 124.4946202  75.6487615  35.2285421
 125.3407397  76.0727028  35.3720070 124.4344839  74.9921239  35.9223984
 128.4643946  81.2716198  31.6104153 127.8352809  81.4361913  30.9080221
 128.0769608  81.6857808  32.3815117 132.3433178  82.2070636  28.9648517
 131.6584216  82.5869538  28.4145550 132.4277027  82.8165963  29.6980464
 127.6445647  73.3091983  36.8866595 127.4006579  74.0634043  36.3500870
 127.9205577  73.6877331  37.7213842 129.5984110  79.8530595  35.5643860
 129.8101005  80.4962355  34.8878241 129.5513858  79.0192912  35.0965790
 127.2010339  72.4648416  32.4680432 126.3394818  72.7629670  32.7597170
 127.2272773  72.6818815  31.5361465 124.0171908  81.0090607  28.8754238
 124.4810254  81.2878310  28.0858861 123.7528706  80.1074051  28.6927329
 120.9095989  80.5562088  31.8134001 121.4797346  80.9849356  31.1751486
 121.5004101  80.2744673  32.5118187 122.9540794  77.1313759  25.6843803
 123.6564838  77.5834803  26.1517730 122.6221423  76.4897578  26.3123696
 121.4021156  75.7225516  40.0595013 120.7719816  76.4041796  40.2930409
 121.2957244  75.6108597  39.1148151 116.6966128  75.3897312  30.9860937
 115.9065182  75.6454840  30.5101047 117.1877375  76.2045649  31.0912977
 130.7129938  82.7302551  33.7366218 131.5347381  82.3282738  33.4548899
 130.7092341  82.6270785  34.6882333 118.6480874  75.7541891  27.9444413
 117.8512037  75.8660585  28.4627909 118.4206466  76.0928543  27.0785304
 124.4786541  82.2786594  35.8926928 124.5430974  82.7407001  36.7285100
 123.7697465  81.6483959  36.0209238 114.9803831  75.6427802  33.4175928
 115.2311870  76.5274812  33.6833504 115.5163380  75.4632404  32.6451019
 138.8035931  79.0741299  30.0851189 138.0499639  78.5048697  29.9295194
 138.9383472  79.0403964  31.0321824 124.1934559  83.9454702  25.7605908
 124.0580234  84.7906237  26.1890756 124.7344371  84.1473979  24.9971842
 120.6801898  70.0246281  42.4220264 120.2868844  69.4712480  43.0967908
 121.4968039  70.3356860  42.8126781 117.6463956  81.4630140  26.3333834
 118.1588477  82.2573390  26.4839398 118.2986669  80.7656430  26.2667435
 119.4558841  84.5795896  28.4156587 119.6325469  85.5013861  28.2277571
 120.2515674  84.2654315  28.8450966 123.5969859  71.4404160  40.0140520
 124.3379573  72.0411314  39.9344983 123.8287782  70.6981798  39.4558563
 118.7411197  76.6260528  38.2918750 118.6264713  75.7245785  38.5925849
 117.8855715  76.8724224  37.9403566 125.8203035  84.5678268  39.8906251
 125.3766889  83.7814647  39.5727155 126.4820249  84.7557419  39.2250141
 120.5790156  86.0974070  34.4166929 121.1297581  85.9691133  33.6443923
 119.7401632  86.3968959  34.0661822 127.9184273  84.8481068  37.9187652
 127.9002749  85.6689949  37.4267921 128.8404193  84.7235143  38.1437793
 124.3757327  82.3625197  38.7611160 124.9085664  81.6013486  38.5310468
 123.8471408  82.0698849  39.5035315 127.5427022  67.4685263  34.2904802
 127.1991292  68.3586905  34.2143912 127.9105985  67.2786921  33.4274387
 115.6112873  79.7918794  27.1093404 116.4488095  80.2015802  26.8927112
 115.7891141  78.8518236  27.0793598 127.5077305  77.4593875  22.7977237
 126.9923929  78.2298479  23.0365624 127.2354614  76.7859011  23.4210298
 125.0924416  72.3043575  27.8562475 124.2366012  71.9150426  27.6768114
 125.5051368  72.3835536  26.9962261 126.6223563  69.8389919  32.2554035
 126.1188358  69.8020054  31.4421840 126.9154170  70.7482661  32.3150692
 122.8666449  69.9228648  31.2620217 123.7319445  69.7271457  30.9026106
 122.9343958  69.6939000  32.1889574 132.4811579  80.2126229  24.7330410
 131.7041022  79.8737389  24.2885573 133.1603060  80.2178852  24.0585376
 127.2963608  75.3320967  24.6237018 126.9913744  75.6467116  25.4747161
 128.2494050  75.4102387  24.6664351 125.7410040  81.4911190  26.2729972
 125.2131402  80.7563950  25.9603210 125.2397543  82.2685866  26.0269940
 130.7202886  79.6860210  31.3897018 130.0626561  80.3759472  31.4777147
 131.5243285  80.0756642  31.7331005 120.4728768  72.1530856  28.6336584
 121.0472520  71.9306038  27.9009777 121.0599750  72.2219551  29.3865185
 129.5308345  78.0404583  29.4400960 130.0440227  78.6734575  29.9422670
 130.1809569  77.4405779  29.0744320 120.7998355  74.1835317  22.6532469
 119.9635667  74.5210004  22.9741744 120.6603124  74.0484297  21.7159606
 122.7751435  69.0272105  27.3611653 122.1215848  68.7121122  26.7368268
 122.7331910  68.4047846  28.0871476 123.8862640  79.3091400  19.2764945
 122.9789702  79.0780654  19.4756094 124.3833672  78.5129019  19.4638927
 126.7930719  88.0188907  22.1961631 126.1192418  88.3220604  22.8046589
 127.1796541  88.8217988  21.8467088 126.0089176  75.5154039  31.6859301
 125.0911737  75.7368986  31.5280989 126.4249319  75.5900349  30.8271008
 126.7924224  76.9145454  26.8161981 127.5396042  77.4266852  26.5069103
 127.0615813  76.5929507  27.6766375 125.0650874  79.4103995  23.7988935
 124.1562093  79.1263028  23.8961405 125.0945958  79.8303074  22.9392242
 130.2970141  83.0210585  27.5680103 129.8432468  82.1801494  27.6245293
 129.6664108  83.6571983  27.9054883 129.2403061  73.9502571  28.7980770
 128.5025817  73.4379957  29.1291013 129.4929834  73.5102952  27.9864047
 128.7403080  84.8587081  28.5029921 129.0326055  85.4192138  27.7842287
 129.2501701  85.1515642  29.2583080 129.3414688  66.7278823  29.3922540
 129.6473565  65.8676186  29.1048455 130.0667293  67.3196443  29.1921533
 115.6339044  77.1309509  27.7804137 115.4363444  76.5378870  27.0555204
 115.0785708  76.8261719  28.4980076 123.6135768  77.0232616  29.8998731
 123.6684378  76.0706452  29.8241207 122.8026970  77.1792055  30.3840029
 124.7626962  80.9512739  21.1377014 124.3246391  80.2348598  20.6782651
 125.5037402  81.1788854  20.5762105 121.5528128  75.6409675  27.6589110
 120.7395993  75.9403846  28.0654302 122.0487122  75.2465364  28.3763592
 123.7036706  85.6367432  29.5923374 123.6612884  85.8628279  28.6631906
 124.6199404  85.4030807  29.7409175 127.1502339  76.1051500  36.4904003
 127.5051727  76.3322973  37.3498469 127.7974471  76.4369877  35.8681259
 132.8800076  79.2269936  27.1953332 132.7417975  79.4171532  26.2674522
 132.5236295  79.9889319  27.6521384 121.0442202  73.2128031  33.2750344
 121.6841582  73.0716790  32.5773308 120.2119733  72.9262544  32.8988946
 132.9069456  81.2946463  32.2064604 133.3405963  81.2021752  33.0547658
 133.6201037  81.2703963  31.5684620 121.8202506  82.5130461  29.3885337
 122.6143105  82.0180781  29.1867912 121.1094199  81.9848324  29.0253042
 126.6397351  84.8948557  33.7397705 126.6934373  85.4639493  34.5075420
 125.7712132  85.0650442  33.3751742 118.1285270  76.6573543  25.4645090
 117.1982858  76.5957999  25.6815052 118.2242742  76.1349496  24.6681731
 118.0470819  73.1828356  28.0523331 118.3077636  74.0973689  27.9432492
 118.8687991  72.7152798  28.2019944 119.5195744  74.5966113  35.2222156
 120.1918798  74.3883475  34.5734805 118.6925531  74.3988199  34.7827388
 133.7685005  81.3370163  34.7397489 133.9620896  82.2415974  34.9856764
 133.6685624  80.8777583  35.5736074 125.4221316  71.2228054  37.2387817
 124.7749231  71.9218004  37.1452293 126.1922332  71.6564198  37.6064065
 128.8300114  81.4876906  40.3138370 128.6785621  81.2587458  39.3968454
 128.8204794  82.4447508  40.3269715 125.5985451  79.0608819  35.2984636
 126.5277511  79.2119979  35.1253604 125.1776481  79.1492840  34.4433283
 124.3973782  83.0859483  33.0683174 124.2584868  82.7178268  33.9409112
 123.6088379  83.6007123  32.8967132 124.9921934  88.1868580  24.4108711
 125.1673690  87.7156623  25.2254333 124.3054722  88.8134346  24.6389971
 125.9478997  82.4641086  30.4572012 125.6128830  82.4241856  31.3529662
 125.4482943  81.7985802  29.9842422 119.9223241  77.8708716  35.9824593
 119.7843039  77.1388955  36.5836132 120.8328165  77.7817616  35.7008781
 128.8838189  79.8097120  20.7309071 128.2667360  79.0843949  20.6342124
 128.4154678  80.5706481  20.3876146 122.5505542  77.5828675  35.4708273
 123.2605161  76.9421868  35.4294891 122.5074850  77.8341570  36.3934453
 130.5392321  84.5196029  38.3914852 130.4804867  83.8355249  37.7245435
 130.9411839  85.2615019  37.9395478 121.2634476  74.5693893  37.2903912
 120.7271833  74.1184632  37.9425508 120.6751185  74.7039802  36.5474376
 119.5583020  91.3357943  31.1848571 119.7979618  91.9676467  31.8627589
 118.7152216  90.9845983  31.4713930 120.6736735  74.0282545  19.8530376
 119.7966201  73.9071345  19.4892622 121.1494488  73.2368623  19.6009264
 130.5409728  82.4835613  36.6228831 129.6536507  82.1461534  36.7455230
 131.1108279  81.7518644  36.8597597 112.1938875  78.8159704  29.9471883
 112.8809915  78.5021434  29.3592898 112.0387004  79.7201069  29.6739134
 116.9973597  73.7049901  34.3756907 116.9131786  73.0975571  33.6407317
 116.1756304  74.1958919  34.3766403 124.0710881  87.1437065  33.5890075
 123.9981053  87.9492037  34.1009379 123.6288275  87.3429031  32.7638096
 123.8600661  86.3808835  27.0992896 123.0768183  86.9230515  27.1931121
 124.5593406  86.8982815  27.4987137 127.1697311  72.1903465  29.7427102
 127.6666011  71.4373427  29.4228172 126.3984293  72.2267781  29.1770311
 135.0227069  77.8943830  31.3845393 135.0116945  78.7768545  31.0139326
 134.1544448  77.5415381  31.1899930 126.5309565  87.0423899  35.7448233
 127.2437537  87.6771364  35.6724135 126.0399594  87.1387765  34.9288235
 128.2527092  80.9475152  27.3165525 127.3183371  81.0676614  27.1470229
 128.4303760  80.0447618  27.0525535 123.7532280  74.3320847  29.4698786
 123.3830067  73.7791888  30.1579692 124.2491372  73.7278981  28.9173786
 131.6399643  76.7892471  27.8515559 132.1060095  77.6220463  27.7775862
 132.0907144  76.3237453  28.5560818 121.5821479  84.7918343  36.5653804
 122.2830938  85.4254825  36.7183198 121.1116593  85.1333074  35.8049443
 129.7075874  83.1336292  24.8501711 129.9835718  83.0192887  25.7595585
 128.8380373  82.7353777  24.8113884 129.6116306  69.1573058  31.8906460
 128.6979386  69.3877285  32.0588667 130.0409407  69.2411502  32.7420493
 129.3822764  77.3462950  34.3906355 128.7294215  77.5938857  33.7358807
 129.7603144  76.5327088  34.0568832 126.3429938  87.3822643  28.4934525
 126.5252333  86.5644299  28.9562277 127.1662924  87.5990335  28.0559415
 126.6772104  86.3090828  25.7549573 127.2059870  85.7983283  25.1419735
 126.9400323  85.9933358  26.6195106 125.4310337  78.0882761  40.8772392
 124.7550975  77.9876890  41.5474767 126.2537971  77.9321975  41.3408389
 117.1789197  84.3254698  33.4984907 117.7642633  83.5798385  33.6312811
 116.9814035  84.6358654  34.3821571 120.0327852  87.3605945  28.5147349
 119.3638227  87.8452073  28.0311389 119.8940721  87.6075165  29.4290728
 111.7706851  76.8960298  32.2189350 111.8090951  76.3623888  33.0126468
 111.2647144  76.3695503  31.6000327 124.1733120  89.3949688  35.1130008
 124.7251428  89.5581310  35.8779093 124.5139314  89.9854126  34.4410032
 119.1497614  71.7424838  35.7151892 119.2138940  72.6039669  35.3029290
 119.0864734  71.1298840  34.9824251 118.6249886  73.8147971  39.3624927
 119.2521925  73.4325048  39.9762451 117.7677805  73.5962173  39.7280619
 129.0243995  84.2210946  40.9678662 129.5683899  84.8340904  40.4733617
 128.4430840  84.7790524  41.4845675 115.4015429  75.6224400  25.2943281
 115.6968870  74.7135078  25.2410335 114.5003465  75.6012139  24.9724284
 127.3101508  87.3431664  32.0993690 127.1852647  86.5421404  31.5904635
 127.9680599  87.8377857  31.6107660 118.9309676  73.6980396  31.2770830
 118.2096262  74.3116364  31.1378303 119.7202932  74.2338161  31.1987476
 129.3736416  85.1440684  33.7273240 128.4266752  85.0246035  33.6551567
 129.7219189  84.2563182  33.8099501 121.7335989  71.0334823  37.5511482
 122.2570391  71.2797120  38.3137791 121.5148323  71.8654858  37.1314619
 117.1303270  73.3038498  25.4182607 116.8015977  72.4235876  25.2357712
 117.4842641  73.2486166  26.3058996 126.3782849  84.9393400  29.9277592
 126.2307812  84.0110108  30.1085162 127.2036343  84.9613491  29.4434667
 120.2445094  73.5911467  25.7858084 120.5841166  74.1197389  25.0636693
 120.6917214  73.9291873  26.5616651 129.9816971  85.7621959  31.0142465
 130.9063519  85.5564820  30.8766916 129.8132275  85.5138360  31.9231806
 122.9388534  71.9748518  35.2361152 122.5985355  71.1756331  35.6381832
 122.2327541  72.2750229  34.6637985 123.5905006  69.0597831  33.6888475
 124.4131076  68.5858309  33.5667366 123.8343070  69.8388314  34.1887162
 122.2313241  72.0886089  23.9851377 122.9521603  72.4667342  23.4815094
 121.6078545  72.8074966  24.0886355 126.3744364  72.7931238  24.9209709
 126.5907978  73.6755876  24.6198537 125.8938431  72.4017451  24.1915351
 121.1143585  75.7516951  31.4980454 120.9688166  76.0657254  32.3904735
 120.6368789  76.3701851  30.9451353 122.9739968  72.7419499  31.5461343
 122.9601537  71.8460592  31.2093641 123.6912396  72.7490163  32.1799630
 124.8266099  73.1756839  33.5914471 124.5683876  74.0973910  33.5898801
 124.2951139  72.7787274  34.2814935 129.7712287  86.2807626  26.3704556
 129.9449165  85.7154049  25.6178409 130.2641179  87.0808521  26.1884046
 115.5889247  78.2922296  34.4368115 115.0442715  79.0682104  34.5688389
 116.4668597  78.6393100  34.2787237 122.3776864  71.6233879  26.8148914
 122.4992775  70.6950526  27.0139801 122.0878906  71.6372565  25.9027229
 125.2468054  69.3088790  29.9515633 125.2689751  69.3728123  28.9967613
 125.6636113  68.4693299  30.1456140 135.6251679  79.0444049  27.9894856
 136.0682825  78.2951375  27.5913979 134.7478189  79.0354186  27.6068588
 130.7587460  85.5974391  23.4701455 131.4538364  86.2181084  23.6888769
 131.1010610  84.7469742  23.7453832 116.3755269  77.4192192  37.3298272
 115.6337005  77.5674827  37.9162902 116.0548013  77.6800457  36.4665021
 132.6578883  83.0474096  24.9988785 133.1830207  83.3861369  24.2738105
 132.5701236  82.1121112  24.8151920 124.3198932  86.9608170  37.1278662
 124.6286058  86.7157317  38.0001362 125.1174414  87.1654809  36.6397532
 124.3419544  89.1146080  29.3584039 123.9024534  88.6222458  30.0516895
 125.0927661  88.5719047  29.1176114 116.8211883  85.3057621  29.3608667
 117.6469903  85.0061392  28.9807310 116.4705935  84.5365243  29.8098455
 121.7893416  84.6584089  31.4306340 121.1673425  83.9954794  31.1308568
 122.4598283  84.6845221  30.7479988 115.0220488  83.2243947  30.3197600
 114.1852396  82.7966121  30.1381601 114.9944133  83.4176390  31.2568391
 121.8617943  73.1365877  41.0238846 121.9106099  74.0128000  40.6416616
 122.4040458  72.5943270  40.4510489 132.3472789  83.6807000  40.3039983
 131.5568333  83.6631139  39.7644483 132.1106144  84.2195294  41.0589020
 132.4670664  80.5299466  37.6172712 132.5168669  80.3649474  38.5588235
 132.3584587  79.6626725  37.2270593 121.3506923  83.2088012  24.9064801
 121.4995043  83.8923477  24.2531473 122.1573366  83.1893102  25.4214256
 129.7574427  76.5130394  38.9332019 130.6584289  76.3736859  38.6416016
 129.8322401  76.6784849  39.8730196 124.0917232  73.8897249  37.7785205
 123.2220541  74.1830815  37.5067793 124.3276712  74.4737694  38.4992468
 133.9688861  82.9496408  37.8614733 133.6773669  83.3126388  38.6978194
 133.3560992  82.2363416  37.6828065 135.1684543  80.5149288  30.3817304
 136.0031435  80.9539092  30.5454864 135.3043672  80.0387941  29.5625549
 132.2176049  78.0729023  36.3294791 132.6930171  78.2656669  35.5213643
 131.2941615  78.1288208  36.0838175 119.1059556  79.2353190  25.9125870
 118.8605598  78.3315520  26.1106080 119.2755470  79.2370340  24.9705348
 126.7956266  70.1076866  35.2950625 127.3138210  70.8437893  34.9697114
 126.4411398  70.4140859  36.1297384 118.3755203  74.9681547  23.4112031
 117.6824448  75.0425902  22.7552067 118.1306955  74.2041891  23.9333548
 127.0468860  66.5277149  30.8151522 127.3270614  65.8600338  31.4411948
 127.8319467  66.7206244  30.3026186 124.8502328  85.7036143  22.3776548
 124.2776295  86.3226330  21.9247020 125.4235122  86.2535504  22.9116470
 130.9177718  74.9494783  34.5623097 131.8695141  75.0492880  34.5835321
 130.7481169  74.1573051  35.0721181 128.9392098  72.0350366  34.7482498
 128.3442030  72.3155379  34.0528987 128.6541794  72.5244267  35.5199239
 128.0699588  85.9873293  23.5085130 129.0030261  85.9218854  23.7118006
 127.9822801  86.8229560  23.0499663 130.6987605  85.3039163  20.4689078
 130.6201236  84.9699027  21.3624836 131.5197272  85.7960931  20.4680550
 133.3965796  78.1700902  33.6765397 133.3642116  77.2316903  33.8625080
 134.0066420  78.2484939  32.9431221 125.2349127  77.0396955  19.7192601
 126.1808232  76.9103163  19.7881019 124.8563372  76.3011617  20.1962029
 133.5460284  74.9611946  33.7223680 133.0299333  74.1770402  33.5353609
 134.4300233  74.6330662  33.8870199 131.2071011  68.7052961  29.6819492
 131.0095833  68.3968050  30.5662824 131.8170717  69.4314600  29.8117422
 139.2142346  79.2316909  32.8171433 139.9445734  78.9702197  33.3779137
 138.6049291  78.4945631  32.8573501 137.2957643  77.3724772  33.4145885
 136.5690807  77.2380737  32.8062376 136.8804930  77.6801600  34.2202603
 125.1187819  81.0914701  41.1793258 126.0390829  81.2693300  41.3733304
 125.0837402  80.1470747  41.0272957 123.4192044  74.9646932  19.6547486
 122.5123499  74.6680044  19.7310199 123.6968025  74.6676750  18.7881772
 114.3369984  76.2853295  30.1046532 114.0172769  75.4318603  29.8120906
 113.7903413  76.5001873  30.8604500 118.1149892  79.0015736  33.8216039
 118.3335902  79.9332844  33.8404073 118.5275666  78.6423711  34.6070843
 125.0354110  69.5083821  25.8091727 124.2254838  69.1630906  26.1846973
 125.7238527  69.1991365  26.3979339 126.9644658  68.5861868  27.4316024
 127.5175697  69.0057322  28.0906047 127.2014744  67.6597616  27.4738980
 122.9877757  74.5748942  43.2118788 122.8874484  75.5243299  43.1430879
 122.7699299  74.2467181  42.3394858 122.1890829  71.8233867  19.7959465
 123.0509993  72.1488765  20.0555282 122.3741173  71.0365363  19.2832531
 114.2058244  79.9056207  32.0739654 113.5121716  79.4910159  31.5609608
 114.9531235  79.9476743  31.4773073 130.3423465  70.6962393  26.9394688
 129.7622134  71.3547197  26.5572740 130.0759398  69.8739738  26.5282106
 128.7927031  70.0967451  29.1416008 129.2926810  70.2083986  28.3330327
 129.4362639  69.7928504  29.7816817 122.8509027  78.0046081  42.0283849
 122.3676109  78.8046441  42.2347738 122.9369966  78.0154026  41.0751293
 116.1194987  79.8374460  29.9505669 116.0965675  79.9362148  28.9987552
 116.4295623  80.6839611  30.2722835 118.7782365  81.8950615  34.0652283
 119.7325618  81.8634558  33.9982215 118.5794888  81.4341239  34.8802509
 119.3681747  80.4651731  36.6323081 120.1874636  80.9595810  36.6557918
 119.6418555  79.5483700  36.6040648 129.1248343  72.8562484  25.9951036
 128.2374198  73.1412134  25.7771231 129.5402332  72.6956247  25.1478313
 132.4762879  72.8809005  29.7105376 133.2523269  73.3705457  29.9829992
 131.7511013  73.3067059  30.1677245 134.9135438  73.5936624  30.7679316
 135.5079929  73.3532360  30.0572624 134.9862022  72.8743755  31.3952852
 117.1332594  87.4370235  31.0822481 116.9987061  86.6770636  30.5160479
 116.7164656  88.1611135  30.6151270 128.2691557  82.6207158  20.0899056
 128.9727407  82.8257161  20.7056712 127.5454205  83.1883920  20.3548140
 129.0989367  78.3717020  26.2101326 129.0424568  78.8285571  25.3708959
 129.6517709  77.6107704  26.0324169 132.9094173  74.1606752  27.0351446
 132.6531107  73.7603387  27.8659654 132.2847041  74.8750546  26.9101585
 137.2206511  76.9002825  29.5422737 136.6606069  76.9696014  30.3154299
 136.6150014  76.7243809  28.8222234 120.2901719  88.3339552  31.2940924
 120.1734104  89.2784984  31.1919614 119.4694166  88.0313113  31.6826723
 130.1778254  83.0589688  22.1397516 131.0123858  82.6270886  21.9574991
 130.0162597  82.8871701  23.0674411 129.8324146  79.5621801  23.5053856
 129.7772950  79.3966072  22.5642300 129.2070201  80.2697834  23.6616045
 114.6216661  74.7989865  37.3315278 115.2675525  74.2888819  37.8202503
 114.4133812  75.5358547  37.9058703 127.1470053  81.8670713  42.8307418
 128.0161213  82.0411365  42.4694053 126.6676805  82.6865130  42.7083148
 123.1420272  69.0629910  23.0839174 123.1298941  70.0071750  23.2407445
 124.0343693  68.8800055  22.7898635 121.3156234  88.9867814  34.5096852
 122.2183480  89.0191424  34.8263347 121.0893604  88.0568265  34.5243188
 123.0709836  87.7398800  31.1706931 122.1205467  87.7400662  31.0571303
 123.3742322  86.9931535  30.6542965 126.9572391  65.6572687  27.3385111
 126.1904787  65.1031173  27.4841793 127.3683096  65.7294555  28.1999262
 118.9614152  71.9457482  41.4290292 119.8245614  71.5894287  41.6393617
 118.3879563  71.6071377  42.1165696 138.8062529  93.5759339  32.2352693
 139.4440939  93.4566086  31.5316033 138.6883372  94.5240183  32.2940645
 135.6152235  93.5286767  32.1714218 135.2770747  93.4127832  31.2834753
 136.4842004  93.1277932  32.1515224 131.4739051  95.3822243  28.1611109
 130.9103916  95.2912180  27.3927397 131.3591446  94.5622148  28.6413601
 136.0972018  94.6821619  38.1300423 136.0860659  94.2874417  37.2580927
 136.2592658  93.9487691  38.7234195 129.0203483  96.8773435  30.9995329
 129.8124775  96.5364260  30.5841629 129.2600133  96.9868410  31.9197483
 132.8179279  97.4658730  37.0779607 132.5269145  98.3704361  36.9626274
 133.4536264  97.5075258  37.7923677 133.7435486  94.8435579  33.6680967
 134.3399059  94.6191601  32.9537930 133.8010458  94.1020324  34.2706415
 138.3603798  91.3010793  29.3105901 139.1466887  90.8830216  28.9596318
 138.6242502  92.2056885  29.4787550 135.3788344  93.6613267  27.4102222
 135.0146552  93.1343888  28.1215144 136.2355460  93.2711736  27.2368708
 135.0193831  88.6903167  22.4063571 135.1868234  89.5583403  22.7734042
 134.8291000  88.8530449  21.4824860 137.7769165  97.1520146  34.0729401
 137.4769888  98.0545185  33.9645208 137.4320224  96.8852329  34.9250554
 131.2281646  93.6033943  30.1066105 130.3032143  93.4710157  30.3143797
 131.4766059  94.3828162  30.6036048 141.1766308  89.6702686  31.7526838
 140.2683186  89.6018095  31.4585599 141.1253904  90.1474631  32.5808664
 134.9983052  91.1460824  23.3910237 134.8782677  91.5917875  24.2295718
 134.3035641  91.4946142  22.8323776 128.5890457  93.2467216  30.9409895
 128.7182838  93.5001695  31.8549306 127.9087908  93.8394924  30.6214550
 135.2507174  91.0892332  39.6961736 134.4740508  91.6486252  39.6864600
 135.8897737  91.5749115  40.2176606 133.5053546  93.8977785  39.2579703
 134.2468231  94.4362829  38.9814526 132.7990532  94.5244074  39.4151254
 138.9808886  96.0406925  37.8551864 139.3892242  95.5989336  37.1106496
 138.2586148  95.4659553  38.1086057 135.3339956  90.9779532  35.2285421
 136.1801151  91.4018946  35.3720070 135.2738594  90.3213157  35.9223984
 139.3037701  96.6008116  31.6104153 138.6746563  96.7653830  30.9080221
 138.9163363  97.0149726  32.3815117 138.4839401  88.6383901  36.8866595
 138.2400333  89.3925961  36.3500870 138.7599332  89.0169248  37.7213842
 140.4377864  95.1822513  35.5643860 140.6494759  95.8254273  34.8878241
 140.3907612  94.3484830  35.0965790 138.0404093  87.7940334  32.4680432
 137.1788572  88.0921587  32.7597170 138.0666528  88.0110733  31.5361465
 134.8565663  96.3382524  28.8754238 135.3204008  96.6170227  28.0858861
 134.5922461  95.4365969  28.6927329 131.7489744  95.8854006  31.8134001
 132.3191101  96.3141274  31.1751486 132.3397856  95.6036590  32.5118187
 133.7934549  92.4605677  25.6843803 134.4958592  92.9126720  26.1517730
 133.4615177  91.8189495  26.3123696 132.2414910  91.0517433  40.0595013
 131.6113571  91.7333714  40.2930409 132.1350998  90.9400515  39.1148151
 127.5359883  90.7189229  30.9860937 126.7458937  90.9746758  30.5101047
 128.0271130  91.5337567  31.0912977 129.4874628  91.0833808  27.9444413
 128.6905791  91.1952503  28.4627909 129.2600220  91.4220461  27.0785304
 135.3180296  97.6078512  35.8926928 135.3824728  98.0698919  36.7285100
 134.6091219  96.9775877  36.0209238 125.8197586  90.9719720  33.4175928
 126.0705624  91.8566730  33.6833504 126.3557134  90.7924321  32.6451019
 131.5195653  85.3538199  42.4220264 131.1262598  84.8004398  43.0967908
 132.3361793  85.6648778  42.8126781 128.4857711  96.7922057  26.3333834
 128.9982231  97.5865307  26.4839398 129.1380423  96.0948348  26.2667435
 130.2952595  99.9087814  28.4156587 130.4719224 100.8305778  28.2277571
 131.0909429  99.5946233  28.8450966 134.4363614  86.7696078  40.0140520
 135.1773327  87.3703231  39.9344983 134.6681537  86.0273716  39.4558563
 129.5804952  91.9552445  38.2918750 129.4658467  91.0537703  38.5925849
 128.7249470  92.2016142  37.9403566 136.6596790  99.8970186  39.8906251
 136.2160644  99.1106564  39.5727155 137.3214003 100.0849336  39.2250141
 131.4183911 101.4265987  34.4166929 131.9691336 101.2983051  33.6443923
 130.5795387 101.7260876  34.0661822 138.7578028 100.1772986  37.9187652
 138.7396503 100.9981867  37.4267921 139.6797948 100.0527061  38.1437793
 135.2151082  97.6917115  38.7611160 135.7479419  96.9305403  38.5310468
 134.6865163  97.3990767  39.5035315 138.3820777  82.7977181  34.2904802
 138.0385046  83.6878823  34.2143912 138.7499739  82.6078839  33.4274387
 126.4506627  95.1210712  27.1093404 127.2881849  95.5307720  26.8927112
 126.6284895  94.1810154  27.0793598 135.9318171  87.6335493  27.8562475
 135.0759767  87.2442343  27.6768114 136.3445122  87.7127454  26.9962261
 137.4617317  85.1681836  32.2554035 136.9582113  85.1311971  31.4421840
 137.7547924  86.0774579  32.3150692 133.7060203  85.2520566  31.2620217
 134.5713200  85.0563375  30.9026106 133.7737712  85.0230918  32.1889574
 138.1357363  90.6612884  24.6237018 137.8307498  90.9759033  25.4747161
 139.0887805  90.7394304  24.6664351 131.3122522  87.4822774  28.6336584
 131.8866274  87.2597955  27.9009777 131.8993505  87.5511468  29.3865185
 140.3702099  93.3696501  29.4400960 140.8833981  94.0026493  29.9422670
 141.0203323  92.7697696  29.0744320 131.6392109  89.5127235  22.6532469
 130.8029422  89.8501921  22.9741744 131.4996879  89.3776215  21.7159606
 133.6145190  84.3564023  27.3611653 132.9609602  84.0413040  26.7368268
 133.5725664  83.7339763  28.0871476 136.8482930  90.8445956  31.6859301
 135.9305492  91.0660903  31.5280989 137.2643074  90.9192267  30.8271008
 137.6317978  92.2437372  26.8161981 138.3789797  92.7558769  26.5069103
 137.9009568  91.9221425  27.6766375 140.0796815  89.2794488  28.7980770
 139.3419572  88.7671874  29.1291013 140.3323589  88.8394870  27.9864047
 140.1808442  82.0570740  29.3922540 140.4867319  81.1968104  29.1048455
 140.9061047  82.6488360  29.1921533 126.4732799  92.4601427  27.7804137
 126.2757198  91.8670788  27.0555204 125.9179463  92.1553637  28.4980076
 134.4529522  92.3524533  29.8998731 134.5078132  91.3998370  29.8241207
 133.6420724  92.5083972  30.3840029 132.3921882  90.9701593  27.6589110
 131.5789748  91.2695764  28.0654302 132.8880876  90.5757282  28.3763592
 134.5430460 100.9659350  29.5923374 134.5006639 101.1920196  28.6631906
 135.4593159 100.7322725  29.7409175 137.9896094  91.4343418  36.4904003
 138.3445482  91.6614891  37.3498469 138.6368225  91.7661794  35.8681259
 131.8835957  88.5419949  33.2750344 132.5235336  88.4008708  32.5773308
 131.0513487  88.2554462  32.8988946 132.6596261  97.8422379  29.3885337
 133.4536859  97.3472699  29.1867912 131.9487953  97.3140242  29.0253042
 137.4791105 100.2240475  33.7397705 137.5328128 100.7931411  34.5075420
 136.6105887 100.3942360  33.3751742 128.9679024  91.9865461  25.4645090
 128.0376612  91.9249916  25.6815052 129.0636496  91.4641414  24.6681731
 128.8864573  88.5120274  28.0523331 129.1471391  89.4265607  27.9432492
 129.7081746  88.0444716  28.2019944 130.3589499  89.9258031  35.2222156
 131.0312552  89.7175393  34.5734805 129.5319285  89.7280117  34.7827388
 136.2615071  86.5519972  37.2387817 135.6142986  87.2509921  37.1452293
 137.0316086  86.9856116  37.6064065 139.6693869  96.8168824  40.3138370
 139.5179375  96.5879376  39.3968454 139.6598548  97.7739425  40.3269715
 136.4379205  94.3900737  35.2984636 137.3671265  94.5411896  35.1253604
 136.0170235  94.4784757  34.4433283 135.2367537  98.4151401  33.0683174
 135.0978623  98.0470185  33.9409112 134.4482133  98.9299040  32.8967132
 136.7872752  97.7933004  30.4572012 136.4522585  97.7533774  31.3529662
 136.2876698  97.1277720  29.9842422 130.7616996  93.2000634  35.9824593
 130.6236794  92.4680873  36.5836132 131.6721919  93.1109534  35.7008781
 133.3899297  92.9120593  35.4708273 134.0998915  92.2713785  35.4294891
 133.3468605  93.1633488  36.3934453 132.1028231  89.8985811  37.2903912
 131.5665588  89.4476549  37.9425508 131.5144939  90.0331720  36.5474376
 130.3976774 106.6649860  31.1848571 130.6373372 107.2968384  31.8627589
 129.5545971 106.3137900  31.4713930 123.0332630  94.1451622  29.9471883
 123.7203669  93.8313352  29.3592898 122.8780758  95.0492987  29.6739134
 127.8367352  89.0341819  34.3756907 127.7525541  88.4267488  33.6407317
 127.0150058  89.5250837  34.3766403 134.9104636 102.4728983  33.5890075
 134.8374807 103.2783954  34.1009379 134.4682029 102.6720949  32.7638096
 138.0091066  87.5195382  29.7427102 138.5059765  86.7665345  29.4228172
 137.2378047  87.5559699  29.1770311 137.3703319 102.3715817  35.7448233
 138.0831292 103.0063282  35.6724135 136.8793348 102.4679683  34.9288235
 139.0920846  96.2767069  27.3165525 138.1577125  96.3968532  27.1470229
 139.2697515  95.3739536  27.0525535 134.5926034  89.6612765  29.4698786
 134.2223822  89.1083806  30.1579692 135.0885127  89.0570899  28.9173786
 132.4215233 100.1210260  36.5653804 133.1224692 100.7546743  36.7183198
 131.9510348 100.4624992  35.8049443 140.4510060  84.4864976  31.8906460
 139.5373140  84.7169203  32.0588667 140.8803162  84.5703420  32.7420493
 140.2216519  92.6754868  34.3906355 139.5687969  92.9230775  33.7358807
 140.5996899  91.8619006  34.0568832 136.2704092  93.4174679  40.8772392
 135.5944729  93.3168808  41.5474767 137.0931726  93.2613892  41.3408389
 128.0182951  99.6546615  33.4984907 128.6036388  98.9090303  33.6312811
 127.8207790  99.9650572  34.3821571 130.8721606 102.6897863  28.5147349
 130.2031982 103.1743990  28.0311389 130.7334476 102.9367083  29.4290728
 122.6100606  92.2252215  32.2189350 122.6484705  91.6915806  33.0126468
 122.1040899  91.6987421  31.6000327 135.0126875 104.7241606  35.1130008
 135.5645183 104.8873228  35.8779093 135.3533068 105.3146044  34.4410032
 129.9891368  87.0716756  35.7151892 130.0532695  87.9331587  35.3029290
 129.9258488  86.4590758  34.9824251 129.4643641  89.1439888  39.3624927
 130.0915679  88.7616966  39.9762451 128.6071559  88.9254090  39.7280619
 139.8637749  99.5502864  40.9678662 140.4077653 100.1632822  40.4733617
 139.2824594 100.1082442  41.4845675 126.2409183  90.9516318  25.2943281
 126.5362624  90.0426996  25.2410335 125.3397219  90.9304057  24.9724284
 138.1495262 102.6723582  32.0993690 138.0246402 101.8713322  31.5904635
 138.8074353 103.1669775  31.6107660 129.7703430  89.0272314  31.2770830
 129.0490016  89.6408282  31.1378303 130.5596686  89.5630079  31.1987476
 140.2130171 100.4732602  33.7273240 139.2660506 100.3537953  33.6551567
 140.5612944  99.5855100  33.8099501 132.5729744  86.3626741  37.5511482
 133.0964146  86.6089037  38.3137791 132.3542077  87.1946775  37.1314619
 127.9697025  88.6330415  25.4182607 127.6409731  87.7527794  25.2357712
 128.3236396  88.5778084  26.3058996 137.2176604 100.2685318  29.9277592
 137.0701566  99.3402025  30.1085162 138.0430097 100.2905409  29.4434667
 131.0838848  88.9203385  25.7858084 131.4234921  89.4489306  25.0636693
 131.5310969  89.2583791  26.5616651 133.7782289  87.3040436  35.2361152
 133.4379109  86.5048249  35.6381832 133.0721295  87.6042147  34.6637985
 134.4298761  84.3889748  33.6888475 135.2524830  83.9150226  33.5667366
 134.6736824  85.1680232  34.1887162 133.0706995  87.4178007  23.9851377
 133.7915358  87.7959259  23.4815094 132.4472299  88.1366883  24.0886355
 137.2138118  88.1223156  24.9209709 137.4301733  89.0047793  24.6198537
 136.7332185  87.7309369  24.1915351 131.9537340  91.0808869  31.4980454
 131.8081920  91.3949172  32.3904735 131.4762543  91.6993769  30.9451353
 133.8133722  88.0711417  31.5461343 133.7995291  87.1752510  31.2093641
 134.5306151  88.0782081  32.1799630 135.6659853  88.5048757  33.5914471
 135.4077631  89.4265828  33.5898801 135.1344893  88.1079192  34.2814935
 126.4283002  93.6214213  34.4368115 125.8836470  94.3974021  34.5688389
 127.3062352  93.9685018  34.2787237 133.2170618  86.9525797  26.8148914
 133.3386530  86.0242443  27.0139801 132.9272661  86.9664483  25.9027229
 136.0861809  84.6380708  29.9515633 136.1083506  84.7020041  28.9967613
 136.5029868  83.7985216  30.1456140 127.2149024  92.7484110  37.3298272
 126.4730760  92.8966745  37.9162902 126.8941768  93.0092375  36.4665021
 135.1592686 102.2900088  37.1278662 135.4679813 102.0449234  38.0001362
 135.9568168 102.4946726  36.6397532 127.6605637 100.6349538  29.3608667
 128.4863657 100.3353310  28.9807310 127.3099689  99.8657161  29.8098455
 132.6287170  99.9876006  31.4306340 132.0067180  99.3246711  31.1308568
 133.2992037 100.0137138  30.7479988 125.8614242  98.5535865  30.3197600
 125.0246151  98.1258039  30.1381601 125.8337888  98.7468308  31.2568391
 132.7011698  88.4657794  41.0238846 132.7499853  89.3419917  40.6416616
 133.2434212  87.9235188  40.4510489 134.9310986  89.2189167  37.7785205
 134.0614296  89.5122733  37.5067793 135.1670467  89.8029612  38.4992468
 129.9453310  94.5645107  25.9125870 129.6999352  93.6607437  26.1106080
 130.1149225  94.5662258  24.9705348 137.6350020  85.4368784  35.2950625
 138.1531964  86.1729811  34.9697114 137.2805153  85.7432777  36.1297384
 129.2148958  90.2973465  23.4112031 128.5218203  90.3717820  22.7552067
 128.9700710  89.5333809  23.9333548 137.8862614  81.8569066  30.8151522
 138.1664368  81.1892255  31.4411948 138.6713221  82.0498162  30.3026186
 139.7785852  87.3642284  34.7482498 139.1835784  87.6447296  34.0528987
 139.4935549  87.8536184  35.5199239 135.9581574  96.4206619  41.1793258
 136.8784583  96.5985218  41.3733304 135.9231157  95.4762664  41.0272957
 125.1763739  91.6145213  30.1046532 124.8566523  90.7610521  29.8120906
 124.6297167  91.8293791  30.8604500 128.9543646  94.3307654  33.8216039
 129.1729656  95.2624762  33.8404073 129.3669420  93.9715628  34.6070843
 135.8747864  84.8375739  25.8091727 135.0648593  84.4922824  26.1846973
 136.5632281  84.5283283  26.3979339 137.8038412  83.9153786  27.4316024
 138.3569451  84.3349239  28.0906047 138.0408499  82.9889534  27.4738980
 133.8271512  89.9040860  43.2118788 133.7268239  90.8535217  43.1430879
 133.6093054  89.5759098  42.3394858 133.0284583  87.1525785  19.7959465
 133.8903747  87.4780683  20.0555282 133.2134927  86.3657280  19.2832531
 125.0451999  95.2348124  32.0739654 124.3515470  94.8202077  31.5609608
 125.7924990  95.2768661  31.4773073 141.1817220  86.0254311  26.9394688
 140.6015889  86.6839115  26.5572740 140.9153152  85.2031656  26.5282106
 139.6320786  85.4259369  29.1416008 140.1320564  85.5375903  28.3330327
 140.2756394  85.1220422  29.7816817 133.6902782  93.3337998  42.0283849
 133.2069863  94.1338358  42.2347738 133.7763721  93.3445943  41.0751293
 126.9588741  95.1666378  29.9505669 126.9359429  95.2654065  28.9987552
 127.2689378  96.0131529  30.2722835 129.6176119  97.2242533  34.0652283
 130.5719373  97.1926475  33.9982215 129.4188643  96.7633157  34.8802509
 130.2075501  95.7943649  36.6323081 131.0268390  96.2887728  36.6557918
 130.4812309  94.8775617  36.6040648 139.9642098  88.1854401  25.9951036
 139.0767953  88.4704052  25.7771231 140.3796087  88.0248165  25.1478313
 127.9726348 102.7662153  31.0822481 127.8380816 102.0062553  30.5160479
 127.5558410 103.4903052  30.6151270 131.1295474 103.6631470  31.2940924
 131.0127858 104.6076902  31.1919614 130.3087920 103.3605031  31.6826723
 125.4610416  90.1281783  37.3315278 126.1069279  89.6180737  37.8202503
 125.2527567  90.8650465  37.9058703 137.9863808  97.1962630  42.8307418
 138.8554967  97.3703283  42.4694053 137.5070559  98.0157047  42.7083148
 133.9814026  84.3921828  23.0839174 133.9692696  85.3363668  23.2407445
 134.8737448  84.2091973  22.7898635 132.1549988 104.3159731  34.5096852
 133.0577235 104.3483342  34.8263347 131.9287358 103.3860182  34.5243188
 133.9103590 103.0690718  31.1706931 132.9599221 103.0692580  31.0571303
 134.2136076 102.3223453  30.6542965 137.7966146  80.9864604  27.3385111
 137.0298541  80.4323091  27.4841793 138.2076851  81.0586473  28.1999262
 129.8007907  87.2749400  41.4290292 130.6639368  86.9186205  41.6393617
 129.2273317  86.9363295  42.1165696 136.6591340 106.3011637  33.4175928
 136.9099378 107.1858647  33.6833504 137.1950888 106.1216239  32.6451019
 140.4198706 107.2844363  38.2918750 140.3052222 106.3829620  38.5925849
 139.5643224 107.5308060  37.9403566 138.6761106 104.3633736  34.3756907
 138.5919295 103.7559406  33.6407317 137.8543813 104.8542755  34.3766403
 133.4494360 107.5544133  32.2189350 133.4878460 107.0207724  33.0126468
 132.9434653 107.0279339  31.6000327 140.8285123 102.4008674  35.7151892
 140.8926449 103.2623505  35.3029290 140.7652243 101.7882675  34.9824251
 140.3037395 104.4731806  39.3624927 140.9309434 104.0908883  39.9762451
 139.4465314 104.2546008  39.7280619 137.2676756 108.9506131  34.4368115
 136.7230224 109.7265939  34.5688389 138.1456106 109.2976935  34.2787237
 138.0542778 108.0776027  37.3298272 137.3124514 108.2258663  37.9162902
 137.7335522 108.3384293  36.4665021 136.3004170 105.4573701  37.3315278
 136.9463034 104.9472655  37.8202503 136.0921321 106.1942382  37.9058703
  83.1734548   2.7318351  22.4693540  83.8862520   3.3665816  22.3969441
  82.6824577   2.8282217  21.6533542  78.2246462   0.4812794  23.2899111
  78.9255921   1.1149277  23.4428505  77.7541577   0.8227526  22.5294750
  80.8158104   5.0844140  21.8375314  81.3676412   5.2475762  22.6024399
  81.1564297   5.6748578  21.1655339  80.9623915   2.6502622  23.8523969
  81.2711041   2.4051769  24.7246668  81.7599397   2.8549260  23.3642839
  77.9581217   4.6762266  21.2342159  78.8608464   4.7085876  21.5508654
  77.7318587   3.7462717  21.2488495  95.4487512   9.2653791  18.9598000
  96.0865922   9.1460538  18.2561340  95.3308355  10.2134635  19.0185952
  92.2577219   9.2181219  18.8959524  91.9195730   9.1022283  18.0080059
  93.1266987   8.8172384  18.8760531  88.1164034  11.0716695  14.8856415
  87.5528899  10.9806632  14.1172703  88.0016429  10.2516600  15.3658908
  92.7397002  10.3716070  24.8545730  92.7285642   9.9768869  23.9826234
  92.9017641   9.6382143  25.4479501  85.6628466  12.5667887  17.7240636
  86.4549758  12.2258711  17.3086935  85.9025116  12.6762862  18.6442789
  93.6963593  14.7387663  10.1970880  93.0451573  15.3241743   9.8104894
  94.4907956  15.2693858  10.2565918  89.4604263  13.1553182  23.8024914
  89.1694129  14.0598813  23.6871580  90.0961247  13.1969710  24.5168984
  90.3860470  10.5330031  20.3926274  90.9824042  10.3086053  19.6783237
  90.4435441   9.7914776  20.9951721  95.0028781   6.9905244  16.0351208
  95.7891870   6.5724668  15.6841625  95.2667485   7.8951337  16.2032856
  95.1738858  12.4278095  10.7339865  94.5384691  12.5012721  11.4460769
  94.8436265  13.0171694  10.0558944  92.0213328   9.3507719  14.1347529
  91.6571535   8.8238340  14.8460450  92.8780444   8.9606188  13.9614014
  94.4194148  12.8414598  20.7974708  94.1194871  13.7439637  20.6890515
  94.0745207  12.5746781  21.6495861  87.8706629   9.2928395  16.8311412
  86.9457126   9.1604609  17.0389104  88.1191043  10.0722614  17.3281354
  85.2315440   8.9361668  17.6655201  85.3607822   9.1896147  18.5794613
  84.5512892   9.5289376  17.3459856  89.4014928  19.6058918  13.7645675
  89.3238957  20.5566743  13.8434156  88.7976571  19.2604791  14.4220602
  91.8932157   6.7786784  26.4207042  91.1165491   7.3380704  26.4109907
  92.5322720   7.2643567  26.9421912  90.1478530   9.5872237  25.9825009
  90.8893214  10.1257281  25.7059833  89.4415515  10.2138526  26.1396561
  95.6233869  11.7301377  24.5797171  96.0317225  11.2883788  23.8351803
  94.9011131  11.1554005  24.8331364  91.9764939   6.6673984  21.9530728
  92.8226135   7.0913398  22.0965377  91.9163577   6.0107608  22.6469291
  95.9462684  12.2902568  18.3349460  95.3171546  12.4548282  17.6325527
  95.5588346  12.7044178  19.1060424  99.8251916  13.2257006  15.6893823
  99.1402954  13.6055907  15.1390857  99.9095765  13.8352333  16.4225771
  97.0802848  10.8716965  22.2889167  97.2919743  11.5148725  21.6123548
  97.0332596  10.0379281  21.8211097  91.4990646  12.0276976  15.5999545
  91.9628991  12.3064679  14.8104167  91.2347444  11.1260421  15.4172635
  88.3914727  11.5748458  18.5379308  88.9616084  12.0035726  17.8996792
  88.9822839  11.2931042  19.2363494  88.8839893   6.7411885  26.7840319
  88.2538554   7.4228166  27.0175716  88.7775981   6.6294967  25.8393457
  84.1784866   6.4083681  17.7106243  83.3883920   6.6641210  17.2346354
  84.6696113   7.2232019  17.8158284  98.1948675  13.7488920  20.4611524
  99.0166119  13.3469108  20.1794206  98.1911078  13.6457154  21.4127640
  91.9605279  13.2972964  22.6172235  92.0249711  13.7593371  23.4530407
  91.2516203  12.6670329  22.7454545  82.4622569   6.6614172  20.1421234
  82.7130607   7.5461181  20.4078810  82.9982117   6.4818773  19.3696326
  91.6753297  14.9641071  12.4851215  91.5398971  15.8092607  12.9136063
  92.2163109  15.1660349  11.7217149  85.1282694  12.4816509  13.0579140
  85.6407215  13.2759759  13.2084705  85.7805407  11.7842800  12.9912742
  86.9377579  15.5982265  15.1401893  87.1144207  16.5200230  14.9522877
  87.7334412  15.2840685  15.5696273  86.2229935   7.6446897  25.0164057
  86.1083450   6.7432155  25.3171155  85.3674453   7.8910594  24.6648873
  93.3021773  15.5864638  26.6151557  92.8585627  14.8001016  26.2972462
  93.9638987  15.7743788  25.9495448  88.0608894  17.1160439  21.1412236
  88.6116319  16.9877503  20.3689230  87.2220370  17.4155328  20.7907128
  95.4003011  15.8667438  24.6432958  95.3821486  16.6876319  24.1513228
  96.3222931  15.7421513  24.8683100  91.8576065  13.3811567  25.4856467
  92.3904402  12.6199855  25.2555775  91.3290146  13.0885219  26.2280621
  93.2228778  12.5097559  12.9975279  92.6950139  11.7750319  12.6848516
  92.7216281  13.2872236  12.7515247  98.2021624  10.7046580  18.1142325
  97.5445298  11.3945841  18.2022454  99.0062023  11.0943012  18.4576311
  97.0127083   9.0590953  16.1646267  97.5258964   9.6920945  16.6667977
  97.6628307   8.4592148  15.7989627  94.2749457  19.0375277   8.9206938
  93.6011156  19.3406974   9.5291896  94.6615279  19.8404357   8.5712395
  93.4907914   6.5340408  18.4104607  92.5730475   6.7555355  18.2526295
  93.9068057   6.6086719  17.5516315  94.2742961   7.9331824  13.5407288
  95.0214780   8.4453221  13.2314410  94.5434551   7.6115877  14.4011681
  97.7788879  14.0396954  14.2925409  97.3251206  13.1987864  14.3490600
  97.1482846  14.6758352  14.6300190  96.2221818  15.8773451  15.2275228
  96.5144793  16.4378508  14.5087593  96.7320439  16.1702012  15.9828387
  91.0954506   8.0418985  16.6244037  91.1503115   7.0892822  16.5486514
  90.2845708   8.1978424  17.1085336  89.0346865   6.6596045  14.3834416
  88.2214731   6.9590216  14.7899608  89.5305860   6.2651734  15.1008898
  91.1855443  16.6553802  16.3168681  91.1431622  16.8814648  15.3877213
  92.1018142  16.4217176  16.4654482  94.6321077   7.1237869  23.2149310
  94.9870465   7.3509343  24.0743776  95.2793208   7.4556246  22.5926565
  88.5260940   4.2314400  19.9995651  89.1660320   4.0903160  19.3018614
  87.6938471   3.9448914  19.6234253 100.3888194  12.3132832  18.9309911
 100.8224700  12.2208121  19.7792965 101.1019774  12.2890333  18.2929927
  89.3021244  13.5316831  16.1130644  90.0961843  13.0367151  15.9113219
  88.5912937  13.0034694  15.7498349  94.1216089  15.9134926  20.4643011
  94.1753111  16.4825863  21.2320727  93.2530870  16.0836811  20.0997048
  87.0014482   5.6152483  21.9467462  87.6737535   5.4069845  21.2980111
  86.1744268   5.4174569  21.5072695 101.2503743  12.3556533  21.4642796
 101.4439633  13.2602343  21.7102071 101.1504361  11.8963952  22.2981381
  96.3118852  12.5063276  27.0383677  96.1604358  12.2773827  26.1213760
  96.3023531  13.4633877  27.0515022  93.0804188  10.0795188  22.0229943
  94.0096248  10.2306348  21.8498910  92.6595218  10.1679209  21.1678590
  91.8792520  14.1045853  19.7928481  91.7403606  13.7364637  20.6654419
  91.0907116  14.6193492  19.6212438  92.4740672  19.2054949  11.1354017
  92.6492428  18.7342993  11.9499640  91.7873460  19.8320716  11.3635278
  93.4297735  13.4827456  17.1817318  93.0947568  13.4428226  18.0774968
  92.9301681  12.8172172  16.7087729  87.4041979   8.8895086  22.7069900
  87.2661777   8.1575324  23.3081439  88.3146903   8.8003986  22.4254087
  90.0324280   8.6015045  22.1953579  90.7423898   7.9608237  22.1540198
  89.9893588   8.8527940  23.1179760  98.0211059  15.5382398  25.1160158
  97.9623605  14.8541618  24.4490741  98.4230577  16.2801388  24.6640784
  88.7453214   5.5880263  24.0149219  88.2090571   5.1371001  24.6670815
  88.1569922   5.7226172  23.2719683  87.0401757  22.3544312  17.9093877
  87.2798356  22.9862836  18.5872896  86.1970954  22.0032352  18.1959237
  98.0228466  13.5021982  23.3474138  97.1355245  13.1647904  23.4700537
  98.5927017  12.7705013  23.5842904  79.6757613   9.8346074  16.6717190
  80.3628653   9.5207804  16.0838205  79.5205742  10.7387439  16.3984441
  84.4792335   4.7236271  21.1002213  84.3950524   4.1161940  20.3652623
  83.6575042   5.2145289  21.1011710  91.5529619  18.1623435  20.3135381
  91.4799791  18.9678406  20.8254686  91.1107012  18.3615400  19.4883403
  91.3419399  17.3995205  13.8238203  90.5586921  17.9416885  13.9176427
  92.0412144  17.9169184  14.2232444 102.5045806   8.9130200  18.1090700
 102.4935683   9.7954915  17.7384633 101.6363186   8.5601750  17.9145237
  94.0128303  18.0610269  22.4693540  94.7256275  18.6957733  22.3969441
  93.5218331  18.1574135  21.6533542  95.7345830  11.9661521  14.0410832
  94.8002108  12.0862984  13.8715536  95.9122498  11.0633988  13.7770842
  91.2351018   5.3507217  16.1944093  90.8648805   4.7978257  16.8824998
  91.7310110   4.7465351  15.6419093  89.0640216  15.8104712  23.2899111
  89.7649676  16.4441195  23.4428505  88.5935331  16.1519444  22.5294750
  97.1894612  14.1522662  11.5747018  97.4654456  14.0379256  12.4840892
  96.3199111  13.7540147  11.5359191  96.8641502   8.3649320  21.1151661
  96.2112952   8.6125227  20.4604114  97.2421882   7.5513458  20.7814138
  93.8248676  18.4009013  15.2179831  94.0071071  17.5830669  15.6807584
  94.6481662  18.6176705  14.7804721  94.1590842  17.3277198  12.4794880
  94.6878608  16.8169652  11.8665042  94.4219061  17.0119728  13.3440413
  92.9129075   9.1069131  27.6017698  92.2369712   9.0063260  28.2720073
  93.7356709   8.9508344  28.0653695  84.6607934  15.3441067  20.2230213
  85.2461371  14.5984755  20.3558118  84.4632773  15.6545024  21.1066877
  87.5146590  18.3792315  15.2392656  86.8456965  18.8638442  14.7556696
  87.3759459  18.6261535  16.1536034  79.2525589   7.9146667  18.9434657
  79.2909689   7.3810258  19.7371775  78.7465882   7.3881873  18.3245634
  91.6551858  20.4136058  21.8375314  92.2070166  20.5767680  22.6024399
  91.9958052  21.0040496  21.1655339  86.6316351   2.7611208  22.4397199
  86.6957678   3.6226039  22.0274597  86.5683472   2.1485209  21.7069557
  86.1068624   4.8334340  26.0870233  86.7340663   4.4511418  26.7007758
  85.2496543   4.6148542  26.4525926  96.5062732  15.2397316  27.6923969
  97.0502636  15.8527274  27.1978923  95.9249577  15.7976894  28.2090982
  94.7920245  18.3618034  18.8238996  94.6671385  17.5607773  18.3149942
  95.4499337  18.8564227  18.3352966  86.4128414   4.7166766  18.0016137
  85.6914999   5.3302734  17.8623610  87.2021669   5.2524531  17.9232783
  96.8555154  16.1627054  20.4518546  95.9085489  16.0432405  20.3796873
  97.2037927  15.2749552  20.5344808  93.8601587  15.9579770  16.6522899
  93.7126550  15.0296477  16.8330469  94.6855081  15.9799861  16.1679974
  97.4635709  16.7808329  17.7387771  98.3882256  16.5751190  17.6012223
  97.2951012  16.5324730  18.6477113  88.5962323   6.7703321  18.2225761
  88.4506904   7.0843624  19.1150042  88.1187526   7.3888221  17.6696659
  92.3084836   4.1943209  20.3159778  92.0502614   5.1160280  20.3144108
  91.7769877   3.7973643  21.0060242  97.2531025  17.2993996  13.0949863
  97.4267903  16.7340419  12.3423715  97.7459916  18.0994891  12.9129353
  83.0707985   9.3108665  21.1613422  82.5261453  10.0868473  21.2933696
  83.9487335   9.6579470  21.0032543  98.2406198  16.6160760  10.1946761
  98.9357102  17.2367453  10.4134076  98.5829348  15.7656112  10.4699139
  83.8574007   8.4378561  24.0543579  83.1155743   8.5861197  24.6408209
  83.5366751   8.6986827  23.1910328  91.8017669  17.9794540  23.8523969
  92.1104796  17.7343686  24.7246668  92.5993152  18.1841178  23.3642839
  91.8238282  20.1332449  16.0829345  91.3843272  19.6408828  16.7762202
  92.5746398  19.5905417  15.8421420  84.3030621  16.3243990  16.0853973
  85.1288640  16.0247762  15.7052617  83.9524673  15.5551613  16.5343762
  89.2712154  15.6770458  18.1551647  88.6492163  15.0141163  17.8553875
  89.9417021  15.7031590  17.4725295  82.5039226  14.2430317  17.0442907
  81.6671134  13.8152491  16.8626908  82.4762871  14.4362760  17.9813698
  89.3436681   4.1552246  27.7484153  89.3924837   5.0314369  27.3661922
  89.8859195   3.6129639  27.1755796  99.8291527  14.6993370  27.0285290
  99.0387071  14.6817508  26.4889789  99.5924881  15.2381663  27.7834327
  99.9489402  11.5485836  24.3418018  99.9987407  11.3835843  25.2833541
  99.8403325  10.6813095  23.9515899  88.8325661  14.2274382  11.6310107
  88.9813781  14.9109846  10.9776780  89.6392104  14.2079472  12.1459563
  97.2393164   7.5316764  25.6577325  98.1403027   7.3923229  25.3661323
  97.3141139   7.6971219  26.5975503  91.5735970   4.9083619  24.5030511
  90.7039279   5.2017185  24.2313100  91.8095450   5.4924064  25.2237775
 101.4507599  13.9682778  24.5860040 101.1592407  14.3312758  25.4223501
 100.8379730  13.2549786  24.4073372  99.6994787   9.0915392  23.0540098
 100.1748909   9.2843038  22.2458949  98.7760352   9.1474578  22.8083482
  92.3321066  16.7222512   9.1021855  91.7595033  17.3412699   8.6492327
  92.9053860  17.2721874   9.6361777  95.5518326  17.0059662  10.2330437
  96.4848999  16.9405224  10.4363313  95.4641539  17.8415929   9.7744970
 100.8784534   9.1887272  20.4010703 100.8460854   8.2503273  20.5870387
 101.4885157   9.2671309  19.6676528 104.7776381   8.3911141  20.1391191
 104.0509544   8.2567106  19.5307683 104.3623668   8.6987970  20.9447909
  92.6006557  12.1101071  27.9038564  93.5209567  12.2879670  28.0978611
  92.5656140  11.1657116  27.7518264  85.5968630  10.0202106  20.5461345
  85.8154639  10.9519213  20.5649379  86.0094404   9.6610080  21.3316149
  90.4696495   5.5935311  29.9364094  90.3693222   6.5429668  29.8676185
  90.2518037   5.2653550  29.0640164  81.6876982  10.9242576  18.7984960
  80.9940454  10.5096529  18.2854915  82.4349973  10.9663113  18.2018379
  90.3327765   9.0232450  28.7529156  89.8494847   9.8232810  28.9593045
  90.4188704   9.0340395  27.7996600  83.6013725  10.8560830  16.6750975
  83.5784413  10.9548517  15.7232858  83.9114361  11.7025981  16.9968142
  86.2601103  12.9136985  20.7897590  87.2144356  12.8820927  20.7227521
  86.0613626  12.4527609  21.6047816  86.8500485  11.4838101  23.3568387
  87.6693374  11.9782180  23.3803225  87.1237292  10.5670069  23.3285955
  84.6151331  18.4556604  17.8067788  84.4805799  17.6957005  17.2405786
  84.1983394  19.1797504  17.3396577  87.7720457  19.3525921  18.0186230
  87.6552841  20.2971354  17.9164921  86.9512903  19.0499483  18.4072030
  82.1035399   5.8176235  24.0560585  82.7494263   5.3075189  24.5447810
  81.8952550   6.5544917  24.6304010  94.6288791  12.8857082  29.5552725
  95.4979951  13.0597735  29.1939360  94.1495543  13.7051499  29.4328454
  88.7974971  20.0054183  21.2342159  89.7002218  20.0377794  21.5508654
  88.5712341  19.0754634  21.2488495  90.5528573  18.7585170  17.8952237
  89.6024204  18.7587032  17.7816610  90.8561060  18.0117904  17.3788272
  86.4432890   2.9643852  28.1535599  87.3064351   2.6080657  28.3638923
  85.8698301   2.6257747  28.8411003 106.2881267  24.5945708  18.9598000
 106.9259677  24.4752456  18.2561340 106.1702110  25.5426552  19.0185952
 103.0970973  24.5473136  18.8959524 102.7589485  24.4314201  18.0080059
 103.9660741  24.1464302  18.8760531  98.9557789  26.4008613  14.8856415
  98.3922654  26.3098550  14.1172703  98.8410184  25.5808517  15.3658908
 103.5790756  25.7007988  24.8545730 103.5679397  25.3060786  23.9826234
 103.7411396  24.9674061  25.4479501  96.5022221  27.8959804  17.7240636
  97.2943513  27.5550629  17.3086935  96.7418871  28.0054779  18.6442789
 104.5357348  30.0679581  10.1970880 103.8845327  30.6533661   9.8104894
 105.3301710  30.5985775  10.2565918  98.4612975  27.1568718  10.5958015
  99.2343851  26.6097705  10.4570890  98.8138374  28.0212967  10.8072476
 100.2998017  28.4845100  23.8024914 100.0087883  29.3890731  23.6871580
 100.9355002  28.5261628  24.5168984 101.2254224  25.8621948  20.3926274
 101.8217796  25.6377971  19.6783237 101.2829196  25.1206694  20.9951721
 105.8422535  22.3197162  16.0351208 106.6285625  21.9016585  15.6841625
 106.1061240  23.2243254  16.2032856 106.0132613  27.7570012  10.7339865
 105.3778446  27.8304639  11.4460769 105.6830019  28.3463611  10.0558944
 100.5175541  25.2189490  10.4300840 100.4011799  24.5434393  11.0981924
 100.6277801  24.7321864   9.6132993 102.8607082  24.6799637  14.1347529
 102.4965289  24.1530258  14.8460450 103.7174198  24.2898106  13.9614014
 108.7656383  15.9693969  21.3978795 108.4339708  16.8389380  21.1740010
 108.1701996  15.6530253  22.0772825 105.2587902  28.1706515  20.7974708
 104.9588625  29.0731554  20.6890515 104.9138962  27.9038699  21.6495861
  98.7100384  24.6220312  16.8311412  97.7850880  24.4896526  17.0389104
  98.9584797  25.4014532  17.3281354 108.6585046  20.6889056  18.4772145
 107.7501923  20.6204464  18.1830906 108.6072642  21.1661001  19.3053970
 102.4801790  22.1647194  10.1155544 102.3601415  22.6104245  10.9541024
 101.7854378  22.5132512   9.5569082  96.0709195  24.2653586  17.6655201
  96.2001576  24.5188065  18.5794613  95.3906646  24.8581294  17.3459856
 100.2408682  34.9350836  13.7645675 100.1632712  35.8858661  13.8434156
  99.6370326  34.5896708  14.4220602 102.7325912  22.1078701  26.4207042
 101.9559246  22.6672621  26.4109907 103.3716475  22.5935484  26.9421912
 110.5246693  18.8905494  20.2550019 109.8821073  19.1838027  19.6089813
 110.0201621  18.7758414  21.0603216 100.9872284  24.9164155  25.9825009
 101.7286969  25.4549199  25.7059833 100.2809270  25.5430443  26.1396561
 106.4627624  27.0593295  24.5797171 106.8710980  26.6175706  23.8351803
 105.7404885  26.4845923  24.8331364 102.8158694  21.9965902  21.9530728
 103.6619889  22.4205315  22.0965377 102.7557332  21.3399526  22.6469291
 106.7856439  27.6194486  18.3349460 106.1565301  27.7840200  17.6325527
 106.3982101  28.0336095  19.1060424 110.6645670  28.5548924  15.6893823
 109.9796709  28.9347825  15.1390857 110.7489520  29.1644250  16.4225771
 105.9658139  19.6570270  23.6111901 105.7219071  20.4112331  23.0746177
 106.2418070  20.0355618  24.4459148 107.9196602  26.2008883  22.2889167
 108.1313497  26.8440642  21.6123548 107.8726350  25.3671199  21.8211097
 105.5222831  18.8126703  19.1925739 104.6607310  19.1107957  19.4842477
 105.5485266  19.0297102  18.2606772 102.3384400  27.3568894  15.5999545
 102.8022746  27.6356597  14.8104167 102.0741198  26.4552338  15.4172635
  99.2308481  26.9040375  18.5379308  99.8009839  27.3327644  17.8996792
  99.8216593  26.6222960  19.2363494 101.2753286  23.4792046  12.4089110
 101.9777330  23.9313090  12.8763036 100.9433915  22.8375865  13.0369003
  99.7233648  22.0703803  26.7840319  99.0932309  22.7520084  27.0175716
  99.6169736  21.9586884  25.8393457  95.0178620  21.7375599  17.7106243
  94.2277674  21.9933127  17.2346354  95.5089868  22.5523937  17.8158284
 109.0342430  29.0780838  20.4611524 109.8559874  28.6761025  20.1794206
 109.0304833  28.9749072  21.4127640  96.9693366  22.1020178  14.6689720
  96.1724529  22.2138872  15.1873216  96.7418958  22.4406830  13.8030611
 102.7999033  28.6264881  22.6172235 102.8643466  29.0885289  23.4530407
 102.0909957  27.9962246  22.7454545  93.3016323  21.9906089  20.1421234
  93.5524362  22.8753099  20.4078810  93.8375872  21.8110691  19.3696326
 102.5147051  30.2932989  12.4851215 102.3792726  31.1384524  12.9136063
 103.0556864  30.4952266  11.7217149  99.0014391  16.3724569  29.1465570
  98.6081336  15.8190767  29.8213215  99.8180531  16.6835147  29.5372088
  95.9676448  27.8108427  13.0579140  96.4800969  28.6051677  13.2084705
  96.6199161  27.1134717  12.9912742  97.7771333  30.9274183  15.1401893
  97.9537961  31.8492148  14.9522877  98.5728167  30.6132602  15.5696273
 101.9182352  17.7882448  26.7385827 102.6592065  18.3889601  26.6590289
 102.1500275  17.0460086  26.1803869  97.0623690  22.9738815  25.0164057
  96.9477205  22.0724072  25.3171155  96.2068207  23.2202512  24.6648873
 104.1415527  30.9156555  26.6151557 103.6979382  30.1292934  26.2972462
 104.8032741  31.1035706  25.9495448  98.9002649  32.4452357  21.1412236
  99.4510074  32.3169420  20.3689230  98.0614125  32.7447246  20.7907128
 106.2396766  31.1959355  24.6432958 106.2215241  32.0168236  24.1513228
 107.1616686  31.0713430  24.8683100 102.6969820  28.7103485  25.4856467
 103.2298156  27.9491773  25.2555775 102.1683901  28.4177137  26.2280621
 105.8639515  13.8163551  21.0150109 105.5203784  14.7065192  20.9389219
 106.2318477  13.6265208  20.1519694  93.9325365  26.1397081  13.8338711
  94.7700587  26.5494089  13.6172418  94.1103633  25.1996523  13.8038905
 103.4136908  18.6521863  14.5807782 102.5578505  18.2628713  14.4013421
 103.8263860  18.7313823  13.7207568 104.9436055  16.1868206  18.9799342
 104.4400851  16.1498341  18.1667147 105.2366662  17.0960949  19.0395998
 101.1878941  16.2706936  17.9865524 102.0531938  16.0749744  17.6271413
 101.2556450  16.0417287  18.9134880 104.0622532  27.8389477  12.9975279
 103.5343894  27.1042237  12.6848516 103.5610035  28.6164154  12.7515247
 109.0415378  26.0338498  18.1142325 108.3839053  26.7237759  18.2022454
 109.8455778  26.4234930  18.4576311  98.7941260  18.5009143  15.3581890
  99.3685012  18.2784325  14.6255083  99.3812242  18.5697838  16.1110492
 107.8520837  24.3882870  16.1646267 108.3652719  25.0212862  16.6667977
 108.5022061  23.7884066  15.7989627  99.1210847  20.5313604   9.3777776
  98.2848159  20.8688291   9.6987050  98.9815617  20.3962584   8.4404913
 101.0963928  15.3750392  14.0856960 100.4428340  15.0599410  13.4613575
 101.0544402  14.7526133  14.8116783 105.1143211  34.3667195   8.9206938
 104.4404910  34.6698891   9.5291896 105.5009033  35.1696275   8.5712395
 104.3301668  21.8632326  18.4104607 103.4124229  22.0847273  18.2526295
 104.7461812  21.9378636  17.5516315 105.1136716  23.2623742  13.5407288
 105.8608535  23.7745139  13.2314410 105.3828305  22.9407794  14.4011681
 103.3863366  25.7582282  10.5234242 102.4774585  25.4741315  10.6206712
 103.4158450  26.1781361   9.6637549 108.6182633  29.3688872  14.2925409
 108.1644961  28.5279782  14.3490600 107.9876600  30.0050270  14.6300190
 107.0615573  31.2065368  15.2275228 107.3538547  31.7670426  14.5087593
 107.5714193  31.4993929  15.9828387  93.9551536  23.4787796  14.5049444
  93.7575936  22.8857157  13.7800511  93.3998200  23.1740007  15.2225383
 101.9348260  23.3710903  16.6244037 101.9896870  22.4184739  16.5486514
 101.1239462  23.5270342  17.1085336  99.8740620  21.9887963  14.3834416
  99.0608485  22.2882133  14.7899608 100.3699614  21.5943651  15.1008898
 102.0249198  31.9845720  16.3168681 101.9825377  32.2106566  15.3877213
 102.9411897  31.7509094  16.4654482 105.4714832  22.4529787  23.2149310
 105.8264219  22.6801260  24.0743776 106.1186963  22.7848164  22.5926565
  99.3654695  19.5606318  19.9995651 100.0054074  19.4195077  19.3018614
  98.5332225  19.2740832  19.6234253 111.2281948  27.6424750  18.9309911
 111.6618455  27.5500039  19.7792965 111.9413529  27.6182250  18.2929927
 100.1414999  28.8608749  16.1130644 100.9355597  28.3659069  15.9113219
  99.4306691  28.3326612  15.7498349 104.9609843  31.2426844  20.4643011
 105.0146865  31.8117780  21.2320727 104.0924624  31.4128729  20.0997048
  96.4497762  23.0051830  12.1890396  95.5195350  22.9436286  12.4060358
  96.5455234  22.4827783  11.3927037  96.3683311  19.5306643  14.7768638
  96.6290128  20.4451976  14.6677798  97.1900483  19.0631086  14.9265251
  97.8408236  20.9444400  21.9467462  98.5131290  20.7361762  21.2980111
  97.0138023  20.7466486  21.5072695 112.0897498  27.6848451  21.4642796
 112.2833388  28.5894261  21.7102071 111.9898116  27.2255870  22.2981381
 103.7433808  17.5706341  23.9633123 103.0961724  18.2696291  23.8697600
 104.5134824  18.0042485  24.3309372 107.1512606  27.8355193  27.0383677
 106.9998113  27.6065745  26.1213760 107.1417286  28.7925795  27.0515022
 103.9197943  25.4087106  22.0229943 104.8490003  25.5598266  21.8498910
 103.4988973  25.4971127  21.1678590 102.7186275  29.4337771  19.7928481
 102.5797360  29.0656555  20.6654419 101.9300871  29.9485410  19.6212438
 103.3134427  34.5346867  11.1354017 103.4886182  34.0634910  11.9499640
 102.6267215  35.1612633  11.3635278 104.2691490  28.8119373  17.1817318
 103.9341322  28.7720143  18.0774968 103.7695435  28.1464089  16.7087729
  98.2435734  24.2187003  22.7069900  98.1055532  23.4867242  23.3081439
  99.1540657  24.1295903  22.4254087 100.8718034  23.9306963  22.1953579
 101.5817653  23.2900155  22.1540198 100.8287343  24.1819857  23.1179760
 108.8604813  30.8674316  25.1160158 108.8017359  30.1833536  24.4490741
 109.2624331  31.6093306  24.6640784  99.5846968  20.9172181  24.0149219
  99.0484325  20.4662919  24.6670815  98.9963677  21.0518089  23.2719683
  97.8795512  37.6836230  17.9093877  98.1192110  38.3154754  18.5872896
  97.0364708  37.3324270  18.1959237 108.8622220  28.8313900  23.3474138
 107.9748999  28.4939822  23.4700537 109.4320771  28.0996931  23.5842904
  90.5151367  25.1637992  16.6717190  91.2022407  24.8499722  16.0838205
  90.3599496  26.0679356  16.3984441  95.3186090  20.0528188  21.1002213
  95.2344278  19.4453858  20.3652623  94.4968796  20.5437207  21.1011710
 102.3923374  33.4915352  20.3135381 102.3193545  34.2970324  20.8254686
 101.9500767  33.6907318  19.4883403 102.1813153  32.7287122  13.8238203
 101.3980675  33.2708802  13.9176427 102.8805899  33.2461102  14.2232444
 105.4909803  18.5381752  16.4672408 105.9878503  17.7851714  16.1473479
 104.7196785  18.5746068  15.9015618 113.3439561  24.2422117  18.1090700
 113.3329437  25.1246833  17.7384633 112.4756940  23.8893668  17.9145237
 104.8522057  33.3902186  22.4693540 105.5650029  34.0249651  22.3969441
 104.3612086  33.4866052  21.6533542 106.5739584  27.2953439  14.0410832
 105.6395863  27.4154901  13.8715536 106.7516253  26.3925906  13.7770842
 102.0744772  20.6799135  16.1944093 101.7042560  20.1270175  16.8824998
 102.5703865  20.0757268  15.6419093  99.9033971  31.1396630  23.2899111
 100.6043430  31.7733113  23.4428505  99.4329086  31.4811361  22.5294750
 108.0288367  29.4814580  11.5747018 108.3048211  29.3671174  12.4840892
 107.1592865  29.0832064  11.5359191 107.9328798  15.5051345  18.6151767
 107.0191878  15.7355572  18.7833974 108.3621900  15.5889789  19.4665800
 107.7035257  23.6941237  21.1151661 107.0506707  23.9417145  20.4604114
 108.0815637  22.8805375  20.7814138 104.6642431  33.7300930  15.2179831
 104.8464825  32.9122586  15.6807584 105.4875417  33.9468623  14.7804721
 104.9984596  32.6569116  12.4794880 105.5272363  32.1461570  11.8665042
 105.2612816  32.3411646  13.3440413 103.7522830  24.4361048  27.6017698
 103.0763467  24.3355178  28.2720073 104.5750464  24.2800262  28.0653695
  95.5001689  30.6732985  20.2230213  96.0855126  29.9276673  20.3558118
  95.3026527  30.9836942  21.1066877  98.3540344  33.7084232  15.2392656
  97.6850719  34.1930360  14.7556696  98.2153214  33.9553453  16.1536034
  90.0919344  23.2438585  18.9434657  90.1303443  22.7102176  19.7371775
  89.5859636  22.7173791  18.3245634 102.4945613  35.7427976  21.8375314
 103.0463921  35.9059597  22.6024399 102.8351806  36.3332414  21.1655339
  97.4710106  18.0903126  22.4397199  97.5351432  18.9517956  22.0274597
  97.4077226  17.4777127  21.7069557  96.9462378  20.1626258  26.0870233
  97.5734417  19.7803335  26.7007758  96.0890297  19.9440460  26.4525926
 107.3456487  30.5689233  27.6923969 107.8896391  31.1819191  27.1978923
 106.7643332  31.1268812  28.2090982  93.7227921  21.9702687  12.0188588
  94.0181362  21.0613366  11.9655642  92.8215957  21.9490427  11.6969590
 105.6314000  33.6909951  18.8238996 105.5065139  32.8899691  18.3149942
 106.2893091  34.1856145  18.3352966  97.2522168  20.0458684  18.0016137
  96.5308754  20.6594651  17.8623610  98.0415424  20.5816449  17.9232783
 107.6948908  31.4918971  20.4518546 106.7479244  31.3724323  20.3796873
 108.0431681  30.6041469  20.5344808 100.0548482  17.3813110  24.2756788
 100.5782883  17.6275407  25.0383098  99.8360815  18.2133145  23.8559926
  95.4515763  19.6516785  12.1427913  95.1228469  18.7714164  11.9603019
  95.8055133  19.5964454  13.0304302 104.6995342  31.2871688  16.6522899
 104.5520304  30.3588395  16.8330469 105.5248835  31.3091778  16.1679974
  98.5657586  19.9389755  12.5103391  98.9053658  20.4675676  11.7881999
  99.0129706  20.2770161  13.2861957 108.3029463  32.1100246  17.7387771
 109.2276011  31.9043108  17.6012223 108.1344767  31.8616647  18.6477113
 101.2601027  18.3226805  21.9606459 100.9197847  17.5234618  22.3627139
 100.5540033  18.6228516  21.3883292 101.9117499  15.4076118  20.4133782
 102.7343568  14.9336596  20.2912672 102.1555562  16.1866602  20.9132468
  99.4356077  22.0995238  18.2225761  99.2900658  22.4135541  19.1150042
  98.9581281  22.7180139  17.6696659 101.2952460  19.0897786  18.2706650
 101.2814029  18.1938880  17.9338948 102.0124888  19.0968450  18.9044936
 103.1478591  19.5235127  20.3159778 102.8896369  20.4452197  20.3144108
 102.6163631  19.1265561  21.0060242 108.0924780  32.6285914  13.0949863
 108.2661657  32.0632336  12.3423715 108.5853671  33.4286809  12.9129353
  93.9101739  24.6400583  21.1613422  93.3655208  25.4160391  21.2933696
  94.7881089  24.9871387  21.0032543 100.6989356  17.9712167  13.5394220
 100.8205267  17.0428813  13.7385108 100.4091398  17.9850853  12.6272536
 103.5680547  15.6567077  16.6760940 103.5902243  15.7206410  15.7212920
 103.9848606  14.8171586  16.8701446 109.0799952  31.9452678  10.1946761
 109.7750857  32.5659371  10.4134076 109.4223102  31.0948029  10.4699139
  94.6967761  23.7670479  24.0543579  93.9549497  23.9153114  24.6408209
  94.3760506  24.0278745  23.1910328 102.6411424  33.3086457  23.8523969
 102.9498550  33.0635604  24.7246668 103.4386906  33.5133096  23.3642839
 102.6632036  35.4624367  16.0829345 102.2237026  34.9700746  16.7762202
 103.4140153  34.9197335  15.8421420  95.1424375  31.6535908  16.0853973
  95.9682395  31.3539680  15.7052617  94.7918427  30.8843530  16.5343762
 100.1105908  31.0062376  18.1551647  99.4885917  30.3433081  17.8553875
 100.7810775  31.0323508  17.4725295  93.3432980  29.5722234  17.0442907
  92.5064888  29.1444409  16.8626908  93.3156625  29.7654678  17.9813698
 100.1830436  19.4844164  27.7484153 100.2318591  20.3606287  27.3661922
 100.7252950  18.9421557  27.1755796 110.6685281  30.0285287  27.0285290
 109.8780825  30.0109426  26.4889789 110.4318636  30.5673581  27.7834327
 110.7883156  26.8777754  24.3418018 110.8381161  26.7127761  25.2833541
 110.6797080  26.0105013  23.9515899  99.6719415  29.5566299  11.6310107
  99.8207535  30.2401764  10.9776780 100.4785859  29.5371389  12.1459563
 108.0786919  22.8608682  25.6577325 108.9796782  22.7215147  25.3661323
 108.1534893  23.0263137  26.5975503 102.4129724  20.2375536  24.5030511
 101.5433034  20.5309103  24.2313100 102.6489204  20.8215981  25.2237775
 112.2901353  29.2974695  24.5860040 111.9986162  29.6604676  25.4223501
 111.6773484  28.5841703  24.4073372 110.5388541  24.4207310  23.0540098
 111.0142663  24.6134956  22.2458949 109.6154107  24.4766496  22.8083482
  97.4272048  25.5831477  12.6371176  97.1818090  24.6793807  12.8351386
  97.5967963  25.5848627  11.6950654 105.1168758  16.4555153  22.0195932
 105.6350702  17.1916180  21.6942420 104.7623891  16.7619147  22.8542691
  96.6967696  21.3159835  10.1357338  96.0036941  21.3904190   9.4797374
  96.4519447  20.5520178  10.6578855 103.1714821  32.0514430   9.1021855
 102.5988788  32.6704617   8.6492327 103.7447614  32.6013791   9.6361777
 109.2390210  21.2973070  21.2868404 110.1907633  21.3971168  21.3080628
 109.0693661  20.5051338  21.7966488 107.2604590  18.3828653  21.4727805
 106.6654522  18.6633666  20.7774293 106.9754287  18.8722554  22.2444546
 106.3912080  32.3351580  10.2330437 107.3242754  32.2697142  10.4363313
 106.3035293  33.1707847   9.7744970 111.7178288  24.5179190  20.4010703
 111.6854608  23.5795190  20.5870387 112.3278912  24.5963226  19.6676528
 111.8672777  21.3090233  20.4468986 111.3511825  20.5248690  20.2598915
 112.7512725  20.9808950  20.6115506 115.6170135  23.7203059  20.1391191
 114.8903299  23.5859024  19.5307683 115.2017422  24.0279888  20.9447909
 103.4400312  27.4392989  27.9038564 104.3603321  27.6171588  28.0978611
 103.4049895  26.4949034  27.7518264  92.6582477  22.6331582  16.8291839
  92.3385261  21.7796891  16.5366213  92.1115905  22.8480161  17.5849806
  96.4362384  25.3494023  20.5461345  96.6548394  26.2811131  20.5649379
  96.8488158  24.9901998  21.3316149 101.3090249  20.9227229  29.9364094
 101.2086976  21.8721586  29.8676185 101.0911792  20.5945468  29.0640164
  92.5270737  26.2534494  18.7984960  91.8334208  25.8388447  18.2854915
  93.2743728  26.2955030  18.2018379 101.1721520  24.3524368  28.7529156
 100.6888601  25.1524728  28.9593045 101.2582459  24.3632313  27.7996600
  94.4407479  26.1852748  16.6750975  94.4178167  26.2840435  15.7232858
  94.7508116  27.0317898  16.9968142  97.0994857  28.2428903  20.7897590
  98.0538111  28.2112845  20.7227521  96.9007381  27.7819526  21.6047816
  97.6894239  26.8130019  23.3568387  98.5087128  27.3074097  23.3803225
  97.9631047  25.8961987  23.3285955  95.4545086  33.7848522  17.8067788
  95.3199554  33.0248923  17.2405786  95.0377148  34.5089422  17.3396577
  98.6114212  34.6817839  18.0186230  98.4946596  35.6263272  17.9164921
  97.7906658  34.3791401  18.4072030  92.9429153  21.1468153  24.0560585
  93.5888017  20.6367107  24.5447810  92.7346305  21.8836834  24.6304010
 105.4682546  28.2149000  29.5552725 106.3373705  28.3889652  29.1939360
 104.9889297  29.0343417  29.4328454  99.6368726  35.3346101  21.2342159
 100.5395973  35.3669711  21.5508654  99.4106096  34.4046552  21.2488495
 101.3922328  34.0877088  17.8952237 100.4417959  34.0878949  17.7816610
 101.6954814  33.3409822  17.3788272  97.2826644  18.2935770  28.1535599
  98.1458106  17.9372574  28.3638923  96.7092055  17.9549664  28.8411003
 117.1275021  39.9237626  18.9598000 117.7653431  39.8044373  18.2561340
 117.0095864  40.8718470  19.0185952 113.9364728  39.8765054  18.8959524
 113.5983239  39.7606119  18.0080059 114.8054496  39.4756219  18.8760531
 109.7951543  41.7300531  14.8856415 109.2316408  41.6390467  14.1172703
 109.6803938  40.9100435  15.3658908 114.4184511  41.0299906  24.8545730
 114.4073151  40.6352704  23.9826234 114.5805150  40.2965978  25.4479501
 107.3415975  43.2251722  17.7240636 108.1337267  42.8842547  17.3086935
 107.5812625  43.3346697  18.6442789 115.3751102  45.3971498  10.1970880
 114.7239082  45.9825579   9.8104894 116.1695465  45.9277693  10.2565918
 109.3006729  42.4860635  10.5958015 110.0737605  41.9389622  10.4570890
 109.6532128  43.3504885  10.8072476 111.1391772  43.8137018  23.8024914
 110.8481638  44.7182648  23.6871580 111.7748756  43.8553545  24.5168984
 112.0647979  41.1913866  20.3926274 112.6611551  40.9669889  19.6783237
 112.1222950  40.4498612  20.9951721 116.6816290  37.6489080  16.0351208
 117.4679379  37.2308503  15.6841625 116.9454994  38.5535172  16.2032856
 116.8526367  43.0861930  10.7339865 116.2172200  43.1596557  11.4460769
 116.5223774  43.6755529  10.0558944 111.3569296  40.5481407  10.4300840
 111.2405554  39.8726311  11.0981924 111.4671556  40.0613781   9.6132993
 113.7000837  40.0091555  14.1347529 113.3359044  39.4822176  14.8460450
 114.5567953  39.6190024  13.9614014 119.6050137  31.2985887  21.3978795
 119.2733462  32.1681298  21.1740010 119.0095751  30.9822171  22.0772825
 116.0981657  43.4998433  20.7974708 115.7982380  44.4023472  20.6890515
 115.7532716  43.2330616  21.6495861 109.5494138  39.9512230  16.8311412
 108.6244635  39.8188444  17.0389104 109.7978552  40.7306449  17.3281354
 119.4978801  36.0180973  18.4772145 118.5895678  35.9496382  18.1830906
 119.4466396  36.4952918  19.3053970 113.3195545  37.4939112  10.1155544
 113.1995170  37.9396163  10.9541024 112.6248133  37.8424429   9.5569082
 106.9102949  39.5945504  17.6655201 107.0395331  39.8479982  18.5794613
 106.2300401  40.1873212  17.3459856 111.0802437  50.2642753  13.7645675
 111.0026466  51.2150579  13.8434156 110.4764080  49.9188626  14.4220602
 113.5719666  37.4370619  26.4207042 112.7953000  37.9964539  26.4109907
 114.2110229  37.9227402  26.9421912 121.3640447  34.2197412  20.2550019
 120.7214827  34.5129945  19.6089813 120.8595376  34.1050332  21.0603216
 111.8266039  40.2456072  25.9825009 112.5680723  40.7841116  25.7059833
 111.1203024  40.8722361  26.1396561 117.3021378  42.3885213  24.5797171
 117.7104734  41.9467623  23.8351803 116.5798640  41.8137840  24.8331364
 113.6552448  37.3257820  21.9530728 114.5013644  37.7497233  22.0965377
 113.5951086  36.6691444  22.6469291 117.6250193  42.9486403  18.3349460
 116.9959055  43.1132117  17.6325527 117.2375855  43.3628013  19.1060424
 121.5039425  43.8840841  15.6893823 120.8190463  44.2639743  15.1390857
 121.5883274  44.4936168  16.4225771 116.8051894  34.9862188  23.6111901
 116.5612826  35.7404248  23.0746177 117.0811824  35.3647535  24.4459148
 118.7590357  41.5300800  22.2889167 118.9707252  42.1732560  21.6123548
 118.7120105  40.6963117  21.8211097 116.3616585  34.1418621  19.1925739
 115.5001064  34.4399874  19.4842477 116.3879020  34.3589020  18.2606772
 113.1778155  42.6860811  15.5999545 113.6416500  42.9648514  14.8104167
 112.9134953  41.7844256  15.4172635 110.0702236  42.2332293  18.5379308
 110.6403593  42.6619561  17.8996792 110.6610348  41.9514878  19.2363494
 112.1147041  38.8083964  12.4089110 112.8171084  39.2605007  12.8763036
 111.7827669  38.1667783  13.0369003 110.5627402  37.3995720  26.7840319
 109.9326063  38.0812001  27.0175716 110.4563490  37.2878802  25.8393457
 105.8572375  37.0667516  17.7106243 105.0671429  37.3225045  17.2346354
 106.3483622  37.8815854  17.8158284 119.8736184  44.4072756  20.4611524
 120.6953628  44.0052943  20.1794206 119.8698587  44.3040990  21.4127640
 107.8087120  37.4312096  14.6689720 107.0118284  37.5430790  15.1873216
 107.5812712  37.7698748  13.8030611 113.6392788  43.9556799  22.6172235
 113.7037220  44.4177206  23.4530407 112.9303712  43.3254164  22.7454545
 104.1410078  37.3198007  20.1421234 104.3918116  38.2045017  20.4078810
 104.6769626  37.1402608  19.3696326 113.3540806  45.6224906  12.4851215
 113.2186480  46.4676442  12.9136063 113.8950618  45.8244184  11.7217149
 109.8408145  31.7016486  29.1465570 109.4475091  31.1482685  29.8213215
 110.6574286  32.0127065  29.5372088 106.8070203  43.1400344  13.0579140
 107.3194724  43.9343595  13.2084705 107.4592916  42.4426635  12.9912742
 108.6165088  46.2566101  15.1401893 108.7931716  47.1784065  14.9522877
 109.4121921  45.9424520  15.5696273 112.7576106  33.1174365  26.7385827
 113.4985820  33.7181519  26.6590289 112.9894029  32.3752003  26.1803869
 107.9017444  38.3030733  25.0164057 107.7870959  37.4015990  25.3171155
 107.0461962  38.5494429  24.6648873 114.9809282  46.2448473  26.6151557
 114.5373136  45.4584852  26.2972462 115.6426496  46.4327623  25.9495448
 109.7396403  47.7744275  21.1412236 110.2903828  47.6461338  20.3689230
 108.9007879  48.0739164  20.7907128 117.0790520  46.5251273  24.6432958
 117.0608995  47.3460154  24.1513228 118.0010440  46.4005348  24.8683100
 113.5363574  44.0395402  25.4856467 114.0691911  43.2783691  25.2555775
 113.0077655  43.7469054  26.2280621 116.7033269  29.1455468  21.0150109
 116.3597539  30.0357110  20.9389219 117.0712232  28.9557126  20.1519694
 104.7719120  41.4688999  13.8338711 105.6094342  41.8786007  13.6172418
 104.9497387  40.5288441  13.8038905 114.2530663  33.9813780  14.5807782
 113.3972259  33.5920631  14.4013421 114.6657615  34.0605741  13.7207568
 115.7829810  31.5160123  18.9799342 115.2794605  31.4790259  18.1667147
 116.0760416  32.4252866  19.0395998 112.0272695  31.5998853  17.9865524
 112.8925692  31.4041662  17.6271413 112.0950204  31.3709205  18.9134880
 114.9016287  43.1681395  12.9975279 114.3737648  42.4334154  12.6848516
 114.4003790  43.9456071  12.7515247 119.8809133  41.3630415  18.1142325
 119.2232807  42.0529677  18.2022454 120.6849532  41.7526847  18.4576311
 109.6335014  33.8301061  15.3581890 110.2078766  33.6076243  14.6255083
 110.2205997  33.8989756  16.1110492 118.6914592  39.7174788  16.1646267
 119.2046473  40.3504780  16.6667977 119.3415816  39.1175984  15.7989627
 109.9604602  35.8605522   9.3777776 109.1241914  36.1980209   9.6987050
 109.8209371  35.7254502   8.4404913 111.9357682  30.7042310  14.0856960
 111.2822095  30.3891327  13.4613575 111.8938156  30.0818050  14.8116783
 115.9536966  49.6959112   8.9206938 115.2798665  49.9990809   9.5291896
 116.3402788  50.4988193   8.5712395 115.1695423  37.1924244  18.4104607
 114.2517984  37.4139191  18.2526295 115.5855566  37.2670554  17.5516315
 115.9530470  38.5915659  13.5407288 116.7002289  39.1037056  13.2314410
 116.2222060  38.2699712  14.4011681 114.2257120  41.0874200  10.5234242
 113.3168340  40.8033233  10.6206712 114.2552204  41.5073279   9.6637549
 119.4576388  44.6980789  14.2925409 119.0038715  43.8571699  14.3490600
 118.8270355  45.3342188  14.6300190 117.9009327  46.5357286  15.2275228
 118.1932302  47.0962343  14.5087593 118.4107948  46.8285847  15.9828387
 104.7945291  38.8079714  14.5049444 104.5969691  38.2149075  13.7800511
 104.2391955  38.5031924  15.2225383 112.7742015  38.7002821  16.6244037
 112.8290624  37.7476657  16.5486514 111.9633217  38.8562260  17.1085336
 110.7134374  37.3179880  14.3834416 109.9002240  37.6174051  14.7899608
 111.2093369  36.9235569  15.1008898 112.8642952  47.3137637  16.3168681
 112.8219131  47.5398484  15.3877213 113.7805651  47.0801012  16.4654482
 116.3108586  37.7821705  23.2149310 116.6657974  38.0093178  24.0743776
 116.9580717  38.1140082  22.5926565 110.2048449  34.8898236  19.9995651
 110.8447829  34.7486995  19.3018614 109.3725980  34.6032749  19.6234253
 122.0675703  42.9716668  18.9309911 122.5012209  42.8791957  19.7792965
 122.7807283  42.9474168  18.2929927 110.9808753  44.1900666  16.1130644
 111.7749352  43.6950986  15.9113219 110.2700445  43.6618529  15.7498349
 115.8003598  46.5718762  20.4643011 115.8540620  47.1409698  21.2320727
 114.9318379  46.7420647  20.0997048 107.2891517  38.3343748  12.1890396
 106.3589105  38.2728203  12.4060358 107.3848989  37.8119701  11.3927037
 107.2077066  34.8598561  14.7768638 107.4683883  35.7743894  14.6677798
 108.0294238  34.3923003  14.9265251 108.6801991  36.2736318  21.9467462
 109.3525044  36.0653680  21.2980111 107.8531777  36.0758404  21.5072695
 122.9291252  43.0140368  21.4642796 123.1227142  43.9186179  21.7102071
 122.8291870  42.5547787  22.2981381 114.5827563  32.8998259  23.9633123
 113.9355478  33.5988209  23.8697600 115.3528578  33.3334403  24.3309372
 117.9906361  43.1647111  27.0383677 117.8391867  42.9357663  26.1213760
 117.9811040  44.1217713  27.0515022 114.7591697  40.7379024  22.0229943
 115.6883757  40.8890183  21.8498910 114.3382727  40.8263045  21.1678590
 113.5580029  44.7629688  19.7928481 113.4191115  44.3948473  20.6654419
 112.7694625  45.2777328  19.6212438 114.1528181  49.8638785  11.1354017
 114.3279937  49.3926828  11.9499640 113.4660969  50.4904551  11.3635278
 115.1085244  44.1411291  17.1817318 114.7735077  44.1012061  18.0774968
 114.6089190  43.4756007  16.7087729 109.0829488  39.5478921  22.7069900
 108.9449286  38.8159160  23.3081439 109.9934412  39.4587821  22.4254087
 111.7111789  39.2598880  22.1953579 112.4211407  38.6192073  22.1540198
 111.6681097  39.5111775  23.1179760 119.6998568  46.1966234  25.1160158
 119.6411114  45.5125454  24.4490741 120.1018086  46.9385224  24.6640784
 110.4240723  36.2464098  24.0149219 109.8878080  35.7954837  24.6670815
 109.8357431  36.3810007  23.2719683 108.7189266  53.0128147  17.9093877
 108.9585865  53.6446672  18.5872896 107.8758463  52.6616188  18.1959237
 119.7015975  44.1605818  23.3474138 118.8142754  43.8231739  23.4700537
 120.2714526  43.4288849  23.5842904 101.3545122  40.4929909  16.6717190
 102.0416162  40.1791639  16.0838205 101.1993251  41.3971274  16.3984441
 106.1579844  35.3820106  21.1002213 106.0738033  34.7745775  20.3652623
 105.3362550  35.8729124  21.1011710 113.2317128  48.8207270  20.3135381
 113.1587300  49.6262241  20.8254686 112.7894521  49.0199236  19.4883403
 113.0206908  48.0579040  13.8238203 112.2374430  48.6000720  13.9176427
 113.7199653  48.5753020  14.2232444 116.3303558  33.8673669  16.4672408
 116.8272257  33.1143632  16.1473479 115.5590539  33.9037986  15.9015618
 124.1833315  39.5714035  18.1090700 124.1723192  40.4538750  17.7384633
 123.3150695  39.2185586  17.9145237 115.6915812  48.7194104  22.4693540
 116.4043784  49.3541569  22.3969441 115.2005840  48.8157970  21.6533542
 117.4133339  42.6245357  14.0410832 116.4789617  42.7446819  13.8715536
 117.5910007  41.7217823  13.7770842 112.9138527  36.0091052  16.1944093
 112.5436314  35.4562093  16.8824998 113.4097619  35.4049186  15.6419093
 110.7427725  46.4688547  23.2899111 111.4437185  47.1025030  23.4428505
 110.2722840  46.8103279  22.5294750 118.8682121  44.8106497  11.5747018
 119.1441965  44.6963092  12.4840892 117.9986620  44.4123982  11.5359191
 118.7722553  30.8343263  18.6151767 117.8585633  31.0647490  18.7833974
 119.2015654  30.9181707  19.4665800 118.5429011  39.0233155  21.1151661
 117.8900461  39.2709062  20.4604114 118.9209391  38.2097293  20.7814138
 115.5036185  49.0592848  15.2179831 115.6858580  48.2414504  15.6807584
 116.3269171  49.2760540  14.7804721 115.8378351  47.9861033  12.4794880
 116.3666117  47.4753488  11.8665042 116.1006570  47.6703563  13.3440413
 114.5916584  39.7652966  27.6017698 113.9157221  39.6647095  28.2720073
 115.4144218  39.6092180  28.0653695 106.3395443  46.0024902  20.2230213
 106.9248880  45.2568590  20.3558118 106.1420282  46.3128859  21.1066877
 109.1934099  49.0376150  15.2392656 108.5244474  49.5222277  14.7556696
 109.0546968  49.2845370  16.1536034 100.9313098  38.5730503  18.9434657
 100.9697198  38.0394093  19.7371775 100.4253391  38.0465708  18.3245634
 113.3339367  51.0719893  21.8375314 113.8857675  51.2351515  22.6024399
 113.6745561  51.6624331  21.1655339 108.3103860  33.4195043  22.4397199
 108.3745187  34.2809874  22.0274597 108.2470981  32.8069045  21.7069557
 107.7856133  35.4918176  26.0870233 108.4128172  35.1095253  26.7007758
 106.9284052  35.2732378  26.4525926 118.1850241  45.8981151  27.6923969
 118.7290145  46.5111109  27.1978923 117.6037086  46.4560729  28.2090982
 104.5621676  37.2994605  12.0188588 104.8575117  36.3905283  11.9655642
 103.6609711  37.2782344  11.6969590 116.4707754  49.0201869  18.8238996
 116.3458894  48.2191609  18.3149942 117.1286846  49.5148062  18.3352966
 108.0915923  35.3750601  18.0016137 107.3702508  35.9886569  17.8623610
 108.8809178  35.9108366  17.9232783 118.5342663  46.8210889  20.4518546
 117.5872998  46.7016240  20.3796873 118.8825436  45.9333387  20.5344808
 110.8942236  32.7105028  24.2756788 111.4176638  32.9567324  25.0383098
 110.6754569  33.5425063  23.8559926 106.2909517  34.9808702  12.1427913
 105.9622223  34.1006081  11.9603019 106.6448888  34.9256371  13.0304302
 115.5389096  46.6163605  16.6522899 115.3914059  45.6880313  16.8330469
 116.3642590  46.6383696  16.1679974 109.4051340  35.2681672  12.5103391
 109.7447413  35.7967594  11.7881999 109.8523461  35.6062078  13.2861957
 119.1423218  47.4392164  17.7387771 120.0669765  47.2335025  17.6012223
 118.9738521  47.1908565  18.6477113 112.0994781  33.6518723  21.9606459
 111.7591602  32.8526536  22.3627139 111.3933787  33.9520434  21.3883292
 112.7511253  30.7368035  20.4133782 113.5737322  30.2628514  20.2912672
 112.9949317  31.5158519  20.9132468 110.2749832  37.4287156  18.2225761
 110.1294413  37.7427459  19.1150042 109.7975035  38.0472056  17.6696659
 112.1346215  34.4189704  18.2706650 112.1207783  33.5230797  17.9338948
 112.8518643  34.4260368  18.9044936 113.9872345  34.8527044  20.3159778
 113.7290123  35.7744115  20.3144108 113.4557386  34.4557479  21.0060242
 118.9318534  47.9577831  13.0949863 119.1055412  47.3924254  12.3423715
 119.4247425  48.7578726  12.9129353 104.7495494  39.9692500  21.1613422
 104.2048962  40.7452308  21.2933696 105.6274844  40.3163305  21.0032543
 111.5383111  33.3004084  13.5394220 111.6599022  32.3720731  13.7385108
 111.2485153  33.3142770  12.6272536 114.4074301  30.9858995  16.6760940
 114.4295998  31.0498328  15.7212920 114.8242360  30.1463503  16.8701446
 119.9193707  47.2744596  10.1946761 120.6144611  47.8951288  10.4134076
 120.2616857  46.4239947  10.4699139 105.5361516  39.0962397  24.0543579
 104.7943252  39.2445032  24.6408209 105.2154260  39.3570662  23.1910328
 113.4805178  48.6378375  23.8523969 113.7892305  48.3927522  24.7246668
 114.2780660  48.8425013  23.3642839 113.5025791  50.7916285  16.0829345
 113.0630781  50.2992663  16.7762202 114.2533907  50.2489252  15.8421420
 105.9818129  46.9827825  16.0853973 106.8076149  46.6831597  15.7052617
 105.6312181  46.2135448  16.5343762 110.9499663  46.3354294  18.1551647
 110.3279672  45.6724999  17.8553875 111.6204530  46.3615426  17.4725295
 104.1826735  44.9014152  17.0442907 103.3458643  44.4736326  16.8626908
 104.1550380  45.0946595  17.9813698 111.0224190  34.8136082  27.7484153
 111.0712346  35.6898205  27.3661922 111.5646704  34.2713475  27.1755796
 121.5079036  45.3577205  27.0285290 120.7174580  45.3401344  26.4889789
 121.2712390  45.8965499  27.7834327 121.6276911  42.2069671  24.3418018
 121.6774916  42.0419679  25.2833541 121.5190834  41.3396930  23.9515899
 110.5113170  44.8858217  11.6310107 110.6601290  45.5693681  10.9776780
 111.3179613  44.8663307  12.1459563 118.9180673  38.1900599  25.6577325
 119.8190536  38.0507064  25.3661323 118.9928648  38.3555054  26.5975503
 113.2523479  35.5667454  24.5030511 112.3826788  35.8601020  24.2313100
 113.4882959  36.1507899  25.2237775 123.1295108  44.6266613  24.5860040
 122.8379916  44.9896593  25.4223501 122.5167239  43.9133621  24.4073372
 121.3782296  39.7499227  23.0540098 121.8536418  39.9426874  22.2458949
 120.4547861  39.8058413  22.8083482 108.2665803  40.9123395  12.6371176
 108.0211844  40.0085725  12.8351386 108.4361717  40.9140545  11.6950654
 115.9562512  31.7847071  22.0195932 116.4744456  32.5208098  21.6942420
 115.6017645  32.0911064  22.8542691 107.5361450  36.6451752  10.1357338
 106.8430695  36.7196107   9.4797374 107.2913202  35.8812096  10.6578855
 114.0108575  47.3806347   9.1021855 113.4382542  47.9996535   8.6492327
 114.5841369  47.9305709   9.6361777 120.0783965  36.6264988  21.2868404
 121.0301388  36.7263085  21.3080628 119.9087415  35.8343256  21.7966488
 118.0998344  33.7120571  21.4727805 117.5048277  33.9925584  20.7774293
 117.8148041  34.2014472  22.2444546 117.2305835  47.6643498  10.2330437
 118.1636508  47.5989059  10.4363313 117.1429048  48.4999764   9.7744970
 122.5572043  39.8471107  20.4010703 122.5248363  38.9087108  20.5870387
 123.1672666  39.9255144  19.6676528 122.7066531  36.6382151  20.4468986
 122.1905580  35.8540607  20.2598915 123.5906480  36.3100867  20.6115506
 126.4563890  39.0494977  20.1391191 125.7297053  38.9150942  19.5307683
 126.0411177  39.3571805  20.9447909 114.2794066  42.7684906  27.9038564
 115.1997076  42.9463505  28.0978611 114.2443649  41.8240952  27.7518264
 103.4976231  37.9623500  16.8291839 103.1779015  37.1088808  16.5366213
 102.9509659  38.1772078  17.5849806 107.2756139  40.6785941  20.5461345
 107.4942148  41.6103049  20.5649379 107.6881912  40.3193915  21.3316149
 112.1484004  36.2519147  29.9364094 112.0480731  37.2013504  29.8676185
 111.9305546  35.9237386  29.0640164 103.3664491  41.5826412  18.7984960
 102.6727963  41.1680364  18.2854915 104.1137482  41.6246948  18.2018379
 112.0115274  39.6816286  28.7529156 111.5282356  40.4816646  28.9593045
 112.0976213  39.6924230  27.7996600 105.2801234  41.5144665  16.6750975
 105.2571922  41.6132353  15.7232858 105.5901870  42.3609816  16.9968142
 107.9388612  43.5720820  20.7897590 108.8931865  43.5404763  20.7227521
 107.7401135  43.1111444  21.6047816 108.5287994  42.1421936  23.3568387
 109.3480883  42.6366015  23.3803225 108.8024801  41.2253905  23.3285955
 106.2938840  49.1140440  17.8067788 106.1593308  48.3540841  17.2405786
 105.8770903  49.8381340  17.3396577 109.4507966  50.0109757  18.0186230
 109.3340350  50.9555189  17.9164921 108.6300412  49.7083318  18.4072030
 103.7822908  36.4760070  24.0560585 104.4281772  35.9659024  24.5447810
 103.5740059  37.2128752  24.6304010 116.3076300  43.5440918  29.5552725
 117.1767460  43.7181570  29.1939360 115.8283052  44.3635335  29.4328454
 110.4762480  50.6638019  21.2342159 111.3789727  50.6961629  21.5508654
 110.2499850  49.7338470  21.2488495 112.2316082  49.4169005  17.8952237
 111.2811713  49.4170867  17.7816610 112.5348568  48.6701740  17.3788272
 108.1220399  33.6227687  28.1535599 108.9851860  33.2664492  28.3638923
 107.5485810  33.2841582  28.8411003 127.9668776  55.2529544  18.9598000
 128.6047186  55.1336291  18.2561340 127.8489619  56.2010388  19.0185952
 124.7758482  55.2056972  18.8959524 124.4376994  55.0898036  18.0080059
 125.6448250  54.8048137  18.8760531 120.6345298  57.0592448  14.8856415
 120.0710163  56.9682385  14.1172703 120.5197693  56.2392353  15.3658908
 125.2578265  56.3591823  24.8545730 125.2466906  55.9644622  23.9826234
 125.4198905  55.6257896  25.4479501 118.1809730  58.5543640  17.7240636
 118.9731022  58.2134464  17.3086935 118.4206380  58.6638615  18.6442789
 126.2144857  60.7263416  10.1970880 125.5632836  61.3117496   9.8104894
 127.0089219  61.2569611  10.2565918 120.1400484  57.8152553  10.5958015
 120.9131360  57.2681540  10.4570890 120.4925883  58.6796802  10.8072476
 121.9785526  59.1428935  23.8024914 121.6875392  60.0474566  23.6871580
 122.6142511  59.1845463  24.5168984 122.9041733  56.5205784  20.3926274
 123.5005305  56.2961806  19.6783237 122.9616705  55.7790529  20.9951721
 127.5210044  52.9780998  16.0351208 128.3073134  52.5600421  15.6841625
 127.7848749  53.8827090  16.2032856 127.6920122  58.4153848  10.7339865
 127.0565955  58.4888474  11.4460769 127.3617528  59.0047447  10.0558944
 122.1963050  55.8773325  10.4300840 122.0799308  55.2018228  11.0981924
 122.3065310  55.3905699   9.6132993 124.5394591  55.3383472  14.1347529
 124.1752798  54.8114093  14.8460450 125.3961707  54.9481941  13.9614014
 130.4443892  46.6277805  21.3978795 130.1127217  47.4973216  21.1740010
 129.8489505  46.3114089  22.0772825 126.9375411  58.8290351  20.7974708
 126.6376134  59.7315390  20.6890515 126.5926471  58.5622534  21.6495861
 120.3887893  55.2804148  16.8311412 119.4638389  55.1480362  17.0389104
 120.6372306  56.0598367  17.3281354 130.3372555  51.3472891  18.4772145
 129.4289432  51.2788299  18.1830906 130.2860151  51.8244836  19.3053970
 124.1589299  52.8231029  10.1155544 124.0388924  53.2688080  10.9541024
 123.4641887  53.1716347   9.5569082 117.7496704  54.9237421  17.6655201
 117.8789085  55.1771900  18.5794613 117.0694155  55.5165129  17.3459856
 121.9196191  65.5934671  13.7645675 121.8420221  66.5442496  13.8434156
 121.3157835  65.2480544  14.4220602 124.4113421  52.7662537  26.4207042
 123.6346755  53.3256457  26.4109907 125.0503984  53.2519320  26.9421912
 132.2034202  49.5489329  20.2550019 131.5608582  49.8421863  19.6089813
 131.6989130  49.4342250  21.0603216 122.6659793  55.5747990  25.9825009
 123.4074478  56.1133034  25.7059833 121.9596779  56.2014279  26.1396561
 128.1415133  57.7177130  24.5797171 128.5498489  57.2759541  23.8351803
 127.4192394  57.1429758  24.8331364 124.4946203  52.6549737  21.9530728
 125.3407398  53.0789151  22.0965377 124.4344841  51.9983362  22.6469291
 128.4643947  58.2778321  18.3349460 127.8352810  58.4424035  17.6325527
 128.0769610  58.6919931  19.1060424 132.3433179  59.2132759  15.6893823
 131.6584218  59.5931660  15.1390857 132.4277029  59.8228086  16.4225771
 127.6445648  50.3154106  23.6111901 127.4006580  51.0696166  23.0746177
 127.9205579  50.6939453  24.4459148 129.5984111  56.8592718  22.2889167
 129.8101006  57.5024478  21.6123548 129.5513859  56.0255034  21.8211097
 127.2010340  49.4710539  19.1925739 126.3394819  49.7691792  19.4842477
 127.2272775  49.6880937  18.2606772 124.0171909  58.0152729  15.5999545
 124.4810255  58.2940432  14.8104167 123.7528707  57.1136174  15.4172635
 120.9095990  57.5624211  18.5379308 121.4797347  57.9911479  17.8996792
 121.5004102  57.2806795  19.2363494 122.9540795  54.1375882  12.4089110
 123.6564839  54.5896925  12.8763036 122.6221424  53.4959700  13.0369003
 121.4021157  52.7287638  26.7840319 120.7719818  53.4103919  27.0175716
 121.2957245  52.6170720  25.8393457 116.6966129  52.3959434  17.7106243
 115.9065183  52.6516963  17.2346354 117.1877377  53.2107772  17.8158284
 130.7129939  59.7364673  20.4611524 131.5347383  59.3344861  20.1794206
 130.7092342  59.6332908  21.4127640 118.6480875  52.7604013  14.6689720
 117.8512038  52.8722708  15.1873216 118.4206467  53.0990666  13.8030611
 124.4786542  59.2848717  22.6172235 124.5430975  59.7469124  23.4530407
 123.7697466  58.6546082  22.7454545 114.9803832  52.6489925  20.1421234
 115.2311871  53.5336935  20.4078810 115.5163381  52.4694526  19.3696326
 124.1934560  60.9516824  12.4851215 124.0580235  61.7968360  12.9136063
 124.7344373  61.1536102  11.7217149 120.6801900  47.0308404  29.1465570
 120.2868845  46.4774603  29.8213215 121.4968040  47.3418982  29.5372088
 117.6463957  58.4692262  13.0579140 118.1588478  59.2635512  13.2084705
 118.2986670  57.7718553  12.9912742 119.4558842  61.5858018  15.1401893
 119.6325470  62.5075983  14.9522877 120.2515676  61.2716438  15.5696273
 123.5969861  48.4466283  26.7385827 124.3379574  49.0473436  26.6590289
 123.8287783  47.7043921  26.1803869 118.7411199  53.6322650  25.0164057
 118.6264714  52.7307908  25.3171155 117.8855716  53.8786347  24.6648873
 125.8203036  61.5740391  26.6151557 125.3766891  60.7876769  26.2972462
 126.4820250  61.7619541  25.9495448 120.5790158  63.1036192  21.1412236
 121.1297583  62.9753256  20.3689230 119.7401633  63.4031081  20.7907128
 127.9184274  61.8543191  24.6432958 127.9002750  62.6752072  24.1513228
 128.8404195  61.7297266  24.8683100 124.3757329  59.3687320  25.4856467
 124.9085665  58.6075608  25.2555775 123.8471410  59.0760972  26.2280621
 127.5427024  44.4747386  21.0150109 127.1991293  45.3649028  20.9389219
 127.9105986  44.2849044  20.1519694 115.6112874  56.7980916  13.8338711
 116.4488096  57.2077925  13.6172418 115.7891142  55.8580359  13.8038905
 125.0924417  49.3105698  14.5807782 124.2366014  48.9212548  14.4013421
 125.5051369  49.3897659  13.7207568 126.6223564  46.8452041  18.9799342
 126.1188360  46.8082176  18.1667147 126.9154171  47.7544784  19.0395998
 122.8666450  46.9290771  17.9865524 123.7319447  46.7333580  17.6271413
 122.9343959  46.7001123  18.9134880 125.7410041  58.4973313  12.9975279
 125.2131403  57.7626072  12.6848516 125.2397544  59.2747989  12.7515247
 130.7202887  56.6922333  18.1142325 130.0626562  57.3821594  18.2022454
 131.5243287  57.0818765  18.4576311 120.4728769  49.1592979  15.3581890
 121.0472521  48.9368160  14.6255083 121.0599751  49.2281673  16.1110492
 129.5308346  55.0466706  16.1646267 130.0440228  55.6796698  16.6667977
 130.1809570  54.4467901  15.7989627 120.7998356  51.1897440   9.3777776
 119.9635668  51.5272126   9.6987050 120.6603126  51.0546420   8.4404913
 122.7751437  46.0334228  14.0856960 122.1215849  45.7183245  13.4613575
 122.7331911  45.4109968  14.8116783 126.7930720  65.0251030   8.9206938
 126.1192419  65.3282727   9.5291896 127.1796542  65.8280110   8.5712395
 126.0089177  52.5216161  18.4104607 125.0911738  52.7431108  18.2526295
 126.4249321  52.5962472  17.5516315 126.7924225  53.9207577  13.5407288
 127.5396044  54.4328974  13.2314410 127.0615814  53.5991630  14.4011681
 125.0650875  56.4166118  10.5234242 124.1562094  56.1325150  10.6206712
 125.0945959  56.8365196   9.6637549 130.2970142  60.0272707  14.2925409
 129.8432469  59.1863617  14.3490600 129.6664109  60.6634106  14.6300190
 128.7403082  61.8649204  15.2275228 129.0326056  62.4254261  14.5087593
 129.2501702  62.1577765  15.9828387 115.6339045  54.1371632  14.5049444
 115.4363445  53.5440992  13.7800511 115.0785709  53.8323842  15.2225383
 123.6135769  54.0294738  16.6244037 123.6684379  53.0768575  16.5486514
 122.8026971  54.1854177  17.1085336 121.5528129  52.6471798  14.3834416
 120.7395994  52.9465969  14.7899608 122.0487123  52.2527487  15.1008898
 123.7036707  62.6429555  16.3168681 123.6612886  62.8690401  15.3877213
 124.6199406  62.4092930  16.4654482 127.1502341  53.1113622  23.2149310
 127.5051728  53.3385096  24.0743776 127.7974472  53.4431999  22.5926565
 121.0442204  50.2190154  19.9995651 121.6841583  50.0778913  19.3018614
 120.2119734  49.9324667  19.6234253 132.9069457  58.3008585  18.9309911
 133.3405964  58.2083874  19.7792965 133.6201038  58.2766086  18.2929927
 121.8202508  59.5192584  16.1130644 122.6143106  59.0242904  15.9113219
 121.1094200  58.9910447  15.7498349 126.6397352  61.9010679  20.4643011
 126.6934374  62.4701616  21.2320727 125.7712133  62.0712565  20.0997048
 118.1285271  53.6635666  12.1890396 117.1982859  53.6020121  12.4060358
 118.2242743  53.1411618  11.3927037 118.0470820  50.1890479  14.7768638
 118.3077637  51.1035812  14.6677798 118.8687992  49.7214921  14.9265251
 119.5195745  51.6028236  21.9467462 120.1918799  51.3945598  21.2980111
 118.6925532  51.4050322  21.5072695 133.7685007  58.3432286  21.4642796
 133.9620897  59.2478097  21.7102071 133.6685625  57.8839705  22.2981381
 125.4221317  48.2290177  23.9633123 124.7749232  48.9280126  23.8697600
 126.1922333  48.6626321  24.3309372 128.8300115  58.4939029  27.0383677
 128.6785622  58.2649580  26.1213760 128.8204795  59.4509630  27.0515022
 125.5985452  56.0670942  22.0229943 126.5277512  56.2182101  21.8498910
 125.1776482  56.1554962  21.1678590 124.3973784  60.0921606  19.7928481
 124.2584869  59.7240390  20.6654419 123.6088380  60.6069245  19.6212438
 124.9921936  65.1930702  11.1354017 125.1673691  64.7218746  11.9499640
 124.3054724  65.8196469  11.3635278 125.9478999  59.4703209  17.1817318
 125.6128831  59.4303979  18.0774968 125.4482944  58.8047925  16.7087729
 119.9223243  54.8770839  22.7069900 119.7843041  54.1451077  23.3081439
 120.8328166  54.7879739  22.4254087 122.5505543  54.5890798  22.1953579
 123.2605162  53.9483990  22.1540198 122.5074852  54.8403693  23.1179760
 130.5392322  61.5258151  25.1160158 130.4804868  60.8417371  24.4490741
 130.9411840  62.2677141  24.6640784 121.2634477  51.5756016  24.0149219
 120.7271834  51.1246754  24.6670815 120.6751186  51.7101925  23.2719683
 119.5583021  68.3420065  17.9093877 119.7979619  68.9738589  18.5872896
 118.7152217  67.9908105  18.1959237 130.5409729  59.4897735  23.3474138
 129.6536508  59.1523657  23.4700537 131.1108280  58.7580766  23.5842904
 112.1938876  55.8221827  16.6717190 112.8809916  55.5083557  16.0838205
 112.0387005  56.7263192  16.3984441 116.9973599  50.7112024  21.1002213
 116.9131787  50.1037693  20.3652623 116.1756305  51.2021042  21.1011710
 124.0710883  64.1499188  20.3135381 123.9981054  64.9554159  20.8254686
 123.6288276  64.3491153  19.4883403 123.8600662  63.3870958  13.8238203
 123.0768184  63.9292638  13.9176427 124.5593408  63.9044937  14.2232444
 127.1697312  49.1965587  16.4672408 127.6666012  48.4435549  16.1473479
 126.3984294  49.2329904  15.9015618 135.0227070  54.9005953  18.1090700
 135.0116946  55.7830668  17.7384633 134.1544449  54.5477503  17.9145237
 126.5309566  64.0486022  22.4693540 127.2437538  64.6833486  22.3969441
 126.0399595  64.1449888  21.6533542 128.2527093  57.9537274  14.0410832
 127.3183372  58.0738737  13.8715536 128.4303762  57.0509741  13.7770842
 123.7532281  51.3382970  16.1944093 123.3830069  50.7854010  16.8824998
 124.2491374  50.7341104  15.6419093 121.5821480  61.7980465  23.2899111
 122.2830939  62.4316948  23.4428505 121.1116595  62.1395197  22.5294750
 129.7075876  60.1398415  11.5747018 129.9835719  60.0255009  12.4840892
 128.8380374  59.7415900  11.5359191 129.6116307  46.1635181  18.6151767
 128.6979387  46.3939407  18.7833974 130.0409409  46.2473625  19.4665800
 129.3822766  54.3525073  21.1151661 128.7294216  54.6000980  20.4604114
 129.7603146  53.5389211  20.7814138 126.3429940  64.3884766  15.2179831
 126.5252334  63.5706422  15.6807584 127.1662926  64.6052458  14.7804721
 126.6772105  63.3152951  12.4794880 127.2059872  62.8045405  11.8665042
 126.9400325  62.9995481  13.3440413 125.4310339  55.0944884  27.6017698
 124.7550976  54.9939013  28.2720073 126.2537973  54.9384097  28.0653695
 117.1789198  61.3316820  20.2230213 117.7642635  60.5860508  20.3558118
 116.9814036  61.6420777  21.1066877 120.0327853  64.3668068  15.2392656
 119.3638228  64.8514195  14.7556696 119.8940723  64.6137288  16.1536034
 111.7706853  53.9022420  18.9434657 111.8090952  53.3686011  19.7371775
 111.2647145  53.3757626  18.3245634 124.1733122  66.4011811  21.8375314
 124.7251430  66.5643433  22.6024399 124.5139315  66.9916249  21.1655339
 119.1497615  48.7486961  22.4397199 119.2138941  49.6101792  22.0274597
 119.0864735  48.1360963  21.7069557 118.6249887  50.8210093  26.0870233
 119.2521926  50.4387171  26.7007758 117.7677806  50.6024295  26.4525926
 129.0243996  61.2273069  27.6923969 129.5683900  61.8403027  27.1978923
 128.4430841  61.7852647  28.2090982 115.4015430  52.6286523  12.0188588
 115.6968871  51.7197201  11.9655642 114.5003466  52.6074262  11.6969590
 127.3101509  64.3493787  18.8238996 127.1852648  63.5483526  18.3149942
 127.9680600  64.8439980  18.3352966 118.9309677  50.7042519  18.0016137
 118.2096263  51.3178487  17.8623610 119.7202933  51.2400284  17.9232783
 129.3736417  62.1502807  20.4518546 128.4266753  62.0308158  20.3796873
 129.7219190  61.2625305  20.5344808 121.7335991  48.0396946  24.2756788
 122.2570392  48.2859242  25.0383098 121.5148324  48.8716980  23.8559926
 117.1303272  50.3100620  12.1427913 116.8015978  49.4297999  11.9603019
 117.4842642  50.2548289  13.0304302 126.3782851  61.9455523  16.6522899
 126.2307813  61.0172230  16.8330469 127.2036344  61.9675614  16.1679974
 120.2445095  50.5973590  12.5103391 120.5841167  51.1259511  11.7881999
 120.6917215  50.9353996  13.2861957 129.9816972  62.7684082  17.7387771
 130.9063520  62.5626943  17.6012223 129.8132276  62.5200483  18.6477113
 122.9388536  48.9810641  21.9606459 122.5985356  48.1818454  22.3627139
 122.2327542  49.2812352  21.3883292 123.5905008  46.0659953  20.4133782
 124.4131077  45.5920431  20.2912672 123.8343071  46.8450437  20.9132468
 121.1143586  52.7579074  18.2225761 120.9688167  53.0719377  19.1150042
 120.6368790  53.3763974  17.6696659 122.9739969  49.7481622  18.2706650
 122.9601538  48.8522715  17.9338948 123.6912397  49.7552285  18.9044936
 124.8266100  50.1818962  20.3159778 124.5683878  51.1036033  20.3144108
 124.2951140  49.7849396  21.0060242 129.7712289  63.2869749  13.0949863
 129.9449166  62.7216172  12.3423715 130.2641180  64.0870644  12.9129353
 115.5889248  55.2984418  21.1613422 115.0442717  56.0744226  21.2933696
 116.4668598  55.6455223  21.0032543 122.3776865  48.6296002  13.5394220
 122.4992776  47.7012648  13.7385108 122.0878907  48.6434688  12.6272536
 125.2468055  46.3150912  16.6760940 125.2689752  46.3790246  15.7212920
 125.6636114  45.4755421  16.8701446 130.7587461  62.6036513  10.1946761
 131.4538366  63.2243206  10.4134076 131.1010611  61.7531865  10.4699139
 116.3755270  54.4254314  24.0543579 115.6337006  54.5736950  24.6408209
 116.0548015  54.6862580  23.1910328 124.3198933  63.9670293  23.8523969
 124.6286059  63.7219439  24.7246668 125.1174415  64.1716931  23.3642839
 124.3419545  66.1208202  16.0829345 123.9024535  65.6284581  16.7762202
 125.0927662  65.5781170  15.8421420 116.8211884  62.3119743  16.0853973
 117.6469904  62.0123515  15.7052617 116.4705936  61.5427366  16.5343762
 121.7893417  61.6646211  18.1551647 121.1673426  61.0016916  17.8553875
 122.4598284  61.6907343  17.4725295 115.0220489  60.2306070  17.0442907
 114.1852397  59.8028244  16.8626908 114.9944134  60.4238513  17.9813698
 121.8617945  50.1427999  27.7484153 121.9106100  51.0190122  27.3661922
 122.4040459  49.6005392  27.1755796 132.3472790  60.6869123  27.0285290
 131.5568334  60.6693261  26.4889789 132.1106145  61.2257416  27.7834327
 132.4670665  57.5361589  24.3418018 132.5168670  57.3711596  25.2833541
 132.3584589  56.6688848  23.9515899 121.3506924  60.2150135  11.6310107
 121.4995044  60.8985599  10.9776780 122.1573368  60.1955225  12.1459563
 129.7574428  53.5192517  25.6577325 130.6584291  53.3798982  25.3661323
 129.8322402  53.6846972  26.5975503 124.0917233  50.8959372  24.5030511
 123.2220542  51.1892938  24.2313100 124.3276713  51.4799817  25.2237775
 133.9688862  59.9558531  24.5860040 133.6773670  60.3188511  25.4223501
 133.3560993  59.2425539  24.4073372 132.2176050  55.0791145  23.0540098
 132.6930172  55.2718791  22.2458949 131.2941616  55.1350331  22.8083482
 119.1059557  56.2415312  12.6371176 118.8605599  55.3377642  12.8351386
 119.2755472  56.2432463  11.6950654 126.7956267  47.1138989  22.0195932
 127.3138211  47.8500016  21.6942420 126.4411400  47.4202982  22.8542691
 118.3755205  51.9743670  10.1357338 117.6824450  52.0488025   9.4797374
 118.1306956  51.2104014  10.6578855 124.8502330  62.7098265   9.1021855
 124.2776297  63.3288452   8.6492327 125.4235123  63.2597627   9.6361777
 130.9177719  51.9556905  21.2868404 131.8695142  52.0555003  21.3080628
 130.7481170  51.1635174  21.7966488 128.9392099  49.0412488  21.4727805
 128.3442031  49.3217501  20.7774293 128.6541796  49.5306389  22.2444546
 128.0699589  62.9935415  10.2330437 129.0030263  62.9280977  10.4363313
 127.9822802  63.8291682   9.7744970 133.3965797  55.1763025  20.4010703
 133.3642117  54.2379026  20.5870387 134.0066421  55.2547062  19.6676528
 133.5460286  51.9674068  20.4468986 133.0299334  51.1832525  20.2598915
 134.4300234  51.6392785  20.6115506 137.2957644  54.3786894  20.1391191
 136.5690808  54.2442859  19.5307683 136.8804931  54.6863723  20.9447909
 125.1187821  58.0976824  27.9038564 126.0390830  58.2755423  28.0978611
 125.0837404  57.1532869  27.7518264 114.3369986  53.2915418  16.8291839
 114.0172770  52.4380726  16.5366213 113.7903414  53.5063996  17.5849806
 118.1149893  56.0077859  20.5461345 118.3335903  56.9394967  20.5649379
 118.5275667  55.6485833  21.3316149 122.9877758  51.5811064  29.9364094
 122.8874485  52.5305421  29.8676185 122.7699301  51.2529303  29.0640164
 114.2058246  56.9118329  18.7984960 113.5121717  56.4972282  18.2854915
 114.9531237  56.9538866  18.2018379 122.8509029  55.0108203  28.7529156
 122.3676110  55.8108563  28.9593045 122.9369968  55.0216148  27.7996600
 116.1194988  56.8436583  16.6750975 116.0965676  56.9424270  15.7232858
 116.4295625  57.6901734  16.9968142 118.7782366  58.9012738  20.7897590
 119.7325620  58.8696680  20.7227521 118.5794890  58.4403362  21.6047816
 119.3681748  57.4713854  23.3568387 120.1874637  57.9657933  23.3803225
 119.6418556  56.5545822  23.3285955 117.1332595  64.4432358  17.8067788
 116.9987063  63.6832758  17.2405786 116.7164657  65.1673257  17.3396577
 120.2901721  65.3401675  18.0186230 120.1734105  66.2847107  17.9164921
 119.4694167  65.0375236  18.4072030 114.6216662  51.8051988  24.0560585
 115.2675526  51.2950942  24.5447810 114.4133814  52.5420670  24.6304010
 127.1470055  58.8732835  29.5552725 128.0161214  59.0473488  29.1939360
 126.6676806  59.6927252  29.4328454 121.3156235  65.9929936  21.2342159
 122.2183482  66.0253547  21.5508654 121.0893605  65.0630387  21.2488495
 123.0709837  64.7460923  17.8952237 122.1205468  64.7462785  17.7816610
 123.3742323  63.9993658  17.3788272 118.9614153  48.9519605  28.1535599
 119.8245615  48.5956410  28.3638923 118.3879564  48.6133500  28.8411003
 138.8062530  70.5821461  18.9598000 139.4440940  70.4628209  18.2561340
 138.6883373  71.5302305  19.0185952 135.6152237  70.5348889  18.8959524
 135.2770748  70.4189954  18.0080059 136.4842005  70.1340055  18.8760531
 131.4739052  72.3884366  14.8856415 130.9103917  72.2974303  14.1172703
 131.3591447  71.5684270  15.3658908 136.0972020  71.6883741  24.8545730
 136.0860660  71.2936539  23.9826234 136.2592659  70.9549814  25.4479501
 129.0203484  73.8835557  17.7240636 129.8124776  73.5426382  17.3086935
 129.2600134  73.9930533  18.6442789 132.8179281  74.4720853  23.8024914
 132.5269147  75.3766484  23.6871580 133.4536265  74.5137381  24.5168984
 133.7435488  71.8497702  20.3926274 134.3399060  71.6253724  19.6783237
 133.8010459  71.1082447  20.9951721 138.3603799  68.3072915  16.0351208
 139.1466888  67.8892338  15.6841625 138.6242503  69.2119007  16.2032856
 135.3788346  70.6675390  14.1347529 135.0146553  70.1406011  14.8460450
 136.2355462  70.2773859  13.9614014 137.7769166  74.1582268  20.7974708
 137.4769889  75.0607307  20.6890515 137.4320225  73.8914452  21.6495861
 131.2281647  70.6096065  16.8311412 130.3032144  70.4772279  17.0389104
 131.4766061  71.3890285  17.3281354 141.1766310  66.6764809  18.4772145
 140.2683187  66.6080217  18.1830906 141.1253905  67.1536754  19.3053970
 134.9983054  68.1522947  10.1155544 134.8782679  68.5979998  10.9541024
 134.3035642  68.5008265   9.5569082 128.5890458  70.2529339  17.6655201
 128.7182840  70.5063818  18.5794613 127.9087910  70.8457047  17.3459856
 135.2507175  68.0954454  26.4207042 134.4740509  68.6548374  26.4109907
 135.8897738  68.5811237  26.9421912 133.5053548  70.9039908  25.9825009
 134.2468232  71.4424952  25.7059833 132.7990533  71.5306196  26.1396561
 138.9808887  73.0469048  24.5797171 139.3892243  72.6051459  23.8351803
 138.2586149  72.4721676  24.8331364 135.3339957  67.9841655  21.9530728
 136.1801153  68.4081068  22.0965377 135.2738595  67.3275279  22.6469291
 139.3037702  73.6070239  18.3349460 138.6746564  73.7715953  17.6325527
 138.9163364  74.0211848  19.1060424 138.4839403  65.6446023  23.6111901
 138.2400335  66.3988084  23.0746177 138.7599333  66.0231371  24.4459148
 140.4377865  72.1884636  22.2889167 140.6494761  72.8316395  21.6123548
 140.3907614  71.3546952  21.8211097 138.0404094  64.8002456  19.1925739
 137.1788573  65.0983710  19.4842477 138.0666529  65.0172855  18.2606772
 134.8565664  73.3444647  15.5999545 135.3204009  73.6232350  14.8104167
 134.5922462  72.4428091  15.4172635 131.7489745  72.8916128  18.5379308
 132.3191102  73.3203397  17.8996792 132.3397857  72.6098713  19.2363494
 133.7934550  69.4667799  12.4089110 134.4958593  69.9188843  12.8763036
 133.4615178  68.8251618  13.0369003 132.2414911  68.0579556  26.7840319
 131.6113572  68.7395837  27.0175716 132.1350999  67.9462637  25.8393457
 127.5359884  67.7251352  17.7106243 126.7458938  67.9808880  17.2346354
 128.0271131  68.5399690  17.8158284 129.4874629  68.0895931  14.6689720
 128.6905793  68.2014625  15.1873216 129.2600221  68.4282583  13.8030611
 135.3180297  74.6140634  22.6172235 135.3824729  75.0761042  23.4530407
 134.6091221  73.9837999  22.7454545 125.8197587  67.9781842  20.1421234
 126.0705625  68.8628852  20.4078810 126.3557135  67.7986444  19.3696326
 131.5195654  62.3600322  29.1465570 131.1262600  61.8066520  29.8213215
 132.3361794  62.6710900  29.5372088 128.4857712  73.7984180  13.0579140
 128.9982232  74.5927430  13.2084705 129.1380425  73.1010470  12.9912742
 130.2952597  76.9149936  15.1401893 130.4719225  77.8367901  14.9522877
 131.0909430  76.6008355  15.5696273 134.4363615  63.7758201  26.7385827
 135.1773329  64.3765354  26.6590289 134.6681538  63.0335839  26.1803869
 129.5804953  68.9614568  25.0164057 129.4658468  68.0599825  25.3171155
 128.7249471  69.2078265  24.6648873 136.6596791  76.9032308  26.6151557
 136.2160645  76.1168687  26.2972462 137.3214004  77.0911459  25.9495448
 131.4183912  78.4328110  21.1412236 131.9691337  78.3045173  20.3689230
 130.5795388  78.7322999  20.7907128 138.7578029  77.1835108  24.6432958
 138.7396504  78.0043989  24.1513228 139.6797949  77.0589183  24.8683100
 135.2151083  74.6979238  25.4856467 135.7479420  73.9367526  25.2555775
 134.6865164  74.4052890  26.2280621 138.3820778  59.8039304  21.0150109
 138.0385047  60.6940945  20.9389219 138.7499741  59.6140961  20.1519694
 126.4506629  72.1272834  13.8338711 127.2881851  72.5369843  13.6172418
 126.6284896  71.1872276  13.8038905 135.9318172  64.6397616  14.5807782
 135.0759768  64.2504466  14.4013421 136.3445124  64.7189576  13.7207568
 137.4617318  62.1743959  18.9799342 136.9582114  62.1374094  18.1667147
 137.7547925  63.0836702  19.0395998 133.7060204  62.2582689  17.9865524
 134.5713201  62.0625497  17.6271413 133.7737713  62.0293040  18.9134880
 131.3122523  64.4884896  15.3581890 131.8866275  64.2660078  14.6255083
 131.8993506  64.5573591  16.1110492 140.3702101  70.3758623  16.1646267
 140.8833982  71.0088615  16.6667977 141.0203325  69.7759819  15.7989627
 131.6392111  66.5189358   9.3777776 130.8029423  66.8564044   9.6987050
 131.4996880  66.3838337   8.4404913 133.6145191  61.3626145  14.0856960
 132.9609603  61.0475163  13.4613575 133.5725665  60.7401886  14.8116783
 136.8482932  67.8508079  18.4104607 135.9305493  68.0723026  18.2526295
 137.2643075  67.9254389  17.5516315 137.6317979  69.2499495  13.5407288
 138.3789798  69.7620892  13.2314410 137.9009569  68.9283547  14.4011681
 126.4732800  69.4663549  14.5049444 126.2757200  68.8732910  13.7800511
 125.9179464  69.1615760  15.2225383 134.4529523  69.3586656  16.6244037
 134.5078133  68.4060492  16.5486514 133.6420726  69.5146095  17.1085336
 132.3921883  67.9763716  14.3834416 131.5789749  68.2757886  14.7899608
 132.8880878  67.5819404  15.1008898 134.5430461  77.9721473  16.3168681
 134.5006640  78.1982319  15.3877213 135.4593160  77.7384847  16.4654482
 137.9896095  68.4405540  23.2149310 138.3445483  68.6677013  24.0743776
 138.6368226  68.7723917  22.5926565 131.8835958  65.5482071  19.9995651
 132.5235337  65.4070830  19.3018614 131.0513489  65.2616585  19.6234253
 132.6596262  74.8484502  16.1130644 133.4536861  74.3534822  15.9113219
 131.9487954  74.3202365  15.7498349 137.4791107  77.2302597  20.4643011
 137.5328129  77.7993533  21.2320727 136.6105888  77.4004482  20.0997048
 128.9679026  68.9927583  12.1890396 128.0376614  68.9312039  12.4060358
 129.0636498  68.4703536  11.3927037 128.8864575  65.5182396  14.7768638
 129.1471392  66.4327729  14.6677798 129.7081747  65.0506839  14.9265251
 130.3589500  66.9320153  21.9467462 131.0312553  66.7237515  21.2980111
 129.5319286  66.7342239  21.5072695 136.2615072  63.5582094  23.9633123
 135.6142987  64.2572044  23.8697600 137.0316087  63.9918238  24.3309372
 139.6693870  73.8230946  27.0383677 139.5179376  73.5941498  26.1213760
 139.6598549  74.7801548  27.0515022 136.4379206  71.3962859  22.0229943
 137.3671266  71.5474019  21.8498910 136.0170236  71.4846880  21.1678590
 135.2367538  75.4213524  19.7928481 135.0978624  75.0532308  20.6654419
 134.4482134  75.9361163  19.6212438 136.7872753  74.7995126  17.1817318
 136.4522586  74.7595896  18.0774968 136.2876699  74.1339842  16.7087729
 130.7616997  70.2062756  22.7069900 130.6236795  69.4742995  23.3081439
 131.6721921  70.1171656  22.4254087 133.3899298  69.9182716  22.1953579
 134.0998916  69.2775908  22.1540198 133.3468606  70.1695611  23.1179760
 132.1028232  66.9047934  24.0149219 131.5665589  66.4538672  24.6670815
 131.5144940  67.0393842  23.2719683 130.3976775  83.6711983  17.9093877
 130.6373374  84.3030507  18.5872896 129.5545972  83.3200023  18.1959237
 123.0332631  71.1513745  16.6717190 123.7203671  70.8375475  16.0838205
 122.8780760  72.0555109  16.3984441 127.8367353  66.0403941  21.1002213
 127.7525542  65.4329611  20.3652623 127.0150059  66.5312960  21.1011710
 134.9104637  79.4791105  20.3135381 134.8374809  80.2846077  20.8254686
 134.4682030  79.6783071  19.4883403 138.0091067  64.5257505  16.4672408
 138.5059766  63.7727467  16.1473479 137.2378048  64.5621821  15.9015618
 137.3703321  79.3777939  22.4693540 138.0831293  80.0125404  22.3969441
 136.8793349  79.4741805  21.6533542 139.0920848  73.2829192  14.0410832
 138.1577126  73.4030654  13.8715536 139.2697516  72.3801659  13.7770842
 134.5926036  66.6674888  16.1944093 134.2223823  66.1145928  16.8824998
 135.0885128  66.0633021  15.6419093 132.4215234  77.1272383  23.2899111
 133.1224694  77.7608866  23.4428505 131.9510349  77.4687114  22.5294750
 140.4510062  61.4927098  18.6151767 139.5373142  61.7231325  18.7833974
 140.8803163  61.5765542  19.4665800 140.2216520  69.6816990  21.1151661
 139.5687970  69.9292898  20.4604114 140.5996900  68.8681128  20.7814138
 136.2704093  70.4236801  27.6017698 135.5944730  70.3230931  28.2720073
 137.0931727  70.2676015  28.0653695 128.0182952  76.6608738  20.2230213
 128.6036389  75.9152426  20.3558118 127.8207791  76.9712695  21.1066877
 130.8721608  79.6959985  15.2392656 130.2031983  80.1806113  14.7556696
 130.7334477  79.9429206  16.1536034 122.6100607  69.2314338  18.9434657
 122.6484707  68.6977929  19.7371775 122.1040900  68.7049544  18.3245634
 135.0126876  81.7303729  21.8375314 135.5645184  81.8935350  22.6024399
 135.3533070  82.3208167  21.1655339 129.9891369  64.0778879  22.4397199
 130.0532696  64.9393709  22.0274597 129.9258490  63.4652880  21.7069557
 129.4643642  66.1502011  26.0870233 130.0915681  65.7679088  26.7007758
 128.6071561  65.9316213  26.4525926 139.8637750  76.5564986  27.6923969
 140.4077654  77.1694945  27.1978923 139.2824595  77.1144565  28.2090982
 126.2409185  67.9578440  12.0188588 126.5362626  67.0489119  11.9655642
 125.3397220  67.9366180  11.6969590 138.1495263  79.6785704  18.8238996
 138.0246403  78.8775444  18.3149942 138.8074355  80.1731898  18.3352966
 129.7703432  66.0334437  18.0016137 129.0490017  66.6470404  17.8623610
 130.5596687  66.5692202  17.9232783 140.2130172  77.4794724  20.4518546
 139.2660507  77.3600076  20.3796873 140.5612945  76.5917222  20.5344808
 132.5729745  63.3688863  24.2756788 133.0964147  63.6151160  25.0383098
 132.3542078  64.2008898  23.8559926 127.9697026  65.6392538  12.1427913
 127.6409732  64.7589917  11.9603019 128.3236397  65.5840207  13.0304302
 137.2176605  77.2747441  16.6522899 137.0701568  76.3464148  16.8330469
 138.0430099  77.2967531  16.1679974 131.0838849  65.9265508  12.5103391
 131.4234922  66.4551429  11.7881999 131.5310970  66.2645914  13.2861957
 133.7782290  64.3102558  21.9606459 133.4379111  63.5110371  22.3627139
 133.0721296  64.6104269  21.3883292 134.4298762  61.3951871  20.4133782
 135.2524831  60.9212349  20.2912672 134.6736826  62.1742355  20.9132468
 131.9537341  68.0870991  18.2225761 131.8081921  68.4011295  19.1150042
 131.4762544  68.7055892  17.6696659 133.8133724  65.0773539  18.2706650
 133.7995292  64.1814633  17.9338948 134.5306152  65.0844203  18.9044936
 135.6659854  65.5110880  20.3159778 135.4077632  66.4327950  20.3144108
 135.1344895  65.1141314  21.0060242 126.4283003  70.6276336  21.1613422
 125.8836471  71.4036144  21.2933696 127.3062353  70.9747140  21.0032543
 133.2170620  63.9587920  13.5394220 133.3386531  63.0304566  13.7385108
 132.9272662  63.9726606  12.6272536 136.0861810  61.6442830  16.6760940
 136.1083507  61.7082163  15.7212920 136.5029869  60.8047339  16.8701446
 127.2149025  69.7546232  24.0543579 126.4730761  69.9028867  24.6408209
 126.8941769  70.0154498  23.1910328 135.1592687  79.2962210  23.8523969
 135.4679814  79.0511357  24.7246668 135.9568169  79.5008849  23.3642839
 127.6605638  77.6411661  16.0853973 128.4863658  77.3415433  15.7052617
 127.3099690  76.8719283  16.5343762 132.6287172  76.9938129  18.1551647
 132.0067181  76.3308834  17.8553875 133.2992039  77.0199261  17.4725295
 125.8614244  75.5597987  17.0442907 125.0246152  75.1320162  16.8626908
 125.8337889  75.7530431  17.9813698 132.7011699  65.4719917  27.7484153
 132.7499855  66.3482040  27.3661922 133.2434213  64.9297310  27.1755796
 134.9310988  66.2251289  24.5030511 134.0614297  66.5184856  24.2313100
 135.1670468  66.8091734  25.2237775 129.9453312  71.5707230  12.6371176
 129.6999353  70.6669560  12.8351386 130.1149226  71.5724380  11.6950654
 137.6350021  62.4430906  22.0195932 138.1531965  63.1791933  21.6942420
 137.2805154  62.7494900  22.8542691 129.2148959  67.3035588  10.1357338
 128.5218204  67.3779943   9.4797374 128.9700711  66.5395931  10.6578855
 139.7785853  64.3704406  21.4727805 139.1835786  64.6509419  20.7774293
 139.4935550  64.8598307  22.2444546 135.9581575  73.4268742  27.9038564
 136.8784585  73.6047341  28.0978611 135.9231158  72.4824787  27.7518264
 125.1763740  68.6207335  16.8291839 124.8566524  67.7672644  16.5366213
 124.6297168  68.8355914  17.5849806 128.9543648  71.3369776  20.5461345
 129.1729657  72.2686884  20.5649379 129.3669421  70.9777751  21.3316149
 133.8271513  66.9102982  29.9364094 133.7268240  67.8597339  29.8676185
 133.6093055  66.5821221  29.0640164 125.0452000  72.2410247  18.7984960
 124.3515472  71.8264200  18.2854915 125.7924991  72.2830783  18.2018379
 133.6902783  70.3400121  28.7529156 133.2069865  71.1400481  28.9593045
 133.7763722  70.3508066  27.7996600 126.9588743  72.1728501  16.6750975
 126.9359431  72.2716188  15.7232858 127.2689379  73.0193651  16.9968142
 129.6176121  74.2304656  20.7897590 130.5719374  74.1988598  20.7227521
 129.4188644  73.7695279  21.6047816 130.2075503  72.8005772  23.3568387
 131.0268392  73.2949850  23.3803225 130.4812310  71.8837740  23.3285955
 127.9726349  79.7724275  17.8067788 127.8380817  79.0124676  17.2405786
 127.5558412  80.4965175  17.3396577 131.1295475  80.6693592  18.0186230
 131.0127859  81.6139025  17.9164921 130.3087921  80.3667154  18.4072030
 125.4610417  67.1343906  24.0560585 126.1069280  66.6242860  24.5447810
 125.2527568  67.8712587  24.6304010 137.9863809  74.2024753  29.5552725
 138.8554969  74.3765405  29.1939360 137.5070561  75.0219170  29.4328454
 132.1549989  81.3221854  21.2342159 133.0577236  81.3545464  21.5508654
 131.9287359  80.3922305  21.2488495 133.9103591  80.0752841  17.8952237
 132.9599222  80.0754702  17.7816610 134.2136077  79.3285575  17.3788272
 129.8007908  64.2811523  28.1535599 130.6639369  63.9248328  28.3638923
 129.2273319  63.9425417  28.8411003 136.6591341  83.3073760  20.1421234
 136.9099380  84.1920770  20.4078810 137.1950890  83.1278361  19.3696326
 140.4198708  84.2906486  25.0164057 140.3052223  83.3891743  25.3171155
 139.5643225  84.5370182  24.6648873 138.6761108  81.3695859  21.1002213
 138.5919296  80.7621528  20.3652623 137.8543814  81.8604877  21.1011710
 133.4494362  84.5606256  18.9434657 133.4878461  84.0269846  19.7371775
 132.9434654  84.0341461  18.3245634 140.8285124  79.4070796  22.4397199
 140.8926450  80.2685627  22.0274597 140.7652244  78.7944798  21.7069557
 140.3037396  81.4793929  26.0870233 140.9309435  81.0971006  26.7007758
 139.4465315  81.2608131  26.4525926 137.2676757  85.9568254  21.1613422
 136.7230225  86.7328061  21.2933696 138.1456107  86.3039058  21.0032543
 138.0542779  85.0838150  24.0543579 137.3124515  85.2320785  24.6408209
 137.7335524  85.3446415  23.1910328 136.3004171  82.4635823  24.0560585
 136.9463035  81.9534777  24.5447810 136.0921322  83.2004505  24.6304010
   2.8493409  75.9094113 109.8667037   3.5818581  75.3393330 110.1004866
   2.0932764  75.5215714 110.3073542   2.1309139  72.5427212 113.1832869
   1.4883519  72.8359745 112.5372664   1.6264067  72.4280132 113.9886066
   2.2708117  82.2070642 108.6176674   1.5859155  82.5869543 108.0673707
   2.3551966  82.8165968 109.3508622   0.6404876  82.7302556 113.3894375
   1.4622320  82.3282743 113.1077056   0.6367279  82.6270790 114.3410490
   8.7310869  79.0741305 109.7379346   7.9774578  78.5048703 109.5823351
   8.8658411  79.0403969 110.6849981   2.4086518  80.2126235 104.3858568
   1.6315961  79.8737394 103.9413730   3.0877999  80.2178858 103.7113533
   2.8075015  79.2269941 106.8481490   2.6692913  79.4171537 105.9202679
   2.4511234  79.9889324 107.3049541   2.8344394  81.2946468 111.8592761
   3.2680901  81.2021757 112.7075815   3.5475975  81.2703969 111.2212777
   3.6959944  81.3370169 114.3925646   3.8895834  82.2415979 114.6384921
   3.5960562  80.8777588 115.2264231   4.9502007  77.8943835 111.0373550
   4.9391883  78.7768551 110.6667483   4.0819387  77.5415386 110.8428087
   1.5674582  76.7892476 107.5043716   2.0335034  77.6220468 107.4304019
   2.0182082  76.3237458 108.2088975   5.5526617  79.0444055 107.6423013
   5.9957763  78.2951380 107.2442136   4.6753127  79.0354191 107.2596745
   0.6862398  85.5974396 103.1229612   1.3813303  86.2181089 103.3416926
   1.0285549  84.7469747 103.3981990   2.5853822  83.0474102 104.6516942
   3.1105146  83.3861375 103.9266262   2.4976174  82.1121117 104.4680077
   2.2747728  83.6807005 119.9568140   1.4843271  83.6631144 119.4172640
   2.0381082  84.2195299 120.7117177   2.3945603  80.5299472 117.2700869
   2.4443608  80.3649479 118.2116392   2.2859526  79.6626731 116.8798750
   3.8963800  82.9496413 117.5142890   3.6048608  83.3126394 118.3506351
   3.2835931  82.2363422 117.3356223   5.0959482  80.5149293 110.0345461
   5.9306373  80.9539097 110.1983021   5.2318611  80.0387946 109.2153706
   2.1450988  78.0729028 115.9822948   2.6205109  78.2656674 115.1741800
   1.2216553  78.1288214 115.7366332   0.8452657  74.9494788 114.2151254
   1.7970080  75.0492886 114.2363478   0.6756107  74.1573057 114.7249338
   0.6262543  85.3039168 100.1217235   0.5476175  84.9699032 101.0152993
   1.4472210  85.7960936 100.1208707   3.3240735  78.1700908 113.3293554
   3.2917055  77.2316908 113.5153238   3.9341358  78.2484944 112.5959379
   3.4735223  74.9611951 113.3751837   2.9574272  74.1770408 113.1881766
   4.3575172  74.6330668 113.5398356   1.1345950  68.7052967 109.3347650
   0.9370771  68.3968055 110.2190982   1.7445656  69.4314606 109.4645579
   9.1417284  79.2316915 112.4699590   9.8720673  78.9702203 113.0307294
   8.5324230  78.4945636 112.5101658   7.2232582  77.3724777 113.0674042
   6.4965745  77.2380742 112.4590533   6.8079868  77.6801606 113.8730760
   2.4037818  72.8809010 109.3633533   3.1798208  73.3705463 109.6358149
   1.6785952  73.3067064 109.8205402   4.8410376  73.5936629 110.4207473
   5.4354867  73.3532365 109.7100782   4.9136960  72.8743760 111.0481010
   2.8369111  74.1606757 106.6879603   2.5806046  73.7603393 107.5187811
   2.2121979  74.8750551 106.5629742   7.1481449  76.9002830 109.1950894
   6.5881007  76.9696019 109.9682457   6.5424953  76.7243815 108.4750391
   8.7337468  93.5759344 111.8880850   9.3715878  93.4566091 111.1844190
   8.6158311  94.5240188 111.9468802   5.5427174  93.5286772 111.8242375
   5.2045685  93.4127837 110.9362910   6.4116942  93.1277937 111.8043381
   1.4013990  95.3822249 107.8139266   0.8378855  95.2912186 107.0455554
   1.2866385  94.5622153 108.2941758   6.0246957  94.6821624 117.7828580
   6.0135598  94.2874422 116.9109084   6.1867596  93.9487697 118.3762352
   6.9813548  99.0493216 103.1253731   6.3301528  99.6347297 102.7387745
   7.7757911  99.5799411 103.1848768   0.9069175  96.1382353 103.5240865
   1.6800051  95.5911341 103.3853741   1.2594574  97.0026603 103.7355326
   3.6710425  94.8435584 113.3209124   4.2673997  94.6191607 112.6066087
   3.7285396  94.1020330 113.9234572   3.2435453  92.2975020 101.1559315
   3.4960974  91.7756541 100.3942778   2.3060012  92.1341165 101.2585999
   8.2878736  91.3010798 108.9634058   9.0741825  90.8830221 108.6124475
   8.5517440  92.2056890 109.1315707   8.4588813  96.7383648 103.6622715
   7.8234646  96.8118275 104.3743620   8.1286220  97.3277247 102.9841794
  13.6887163  91.2386031 109.8667037  14.4212335  90.6685248 110.1004866
  12.9326519  90.8507632 110.3073542   2.9631742  94.2003126 103.3583690
   2.8468000  93.5248029 104.0264774   3.0734002  93.7135499 102.5415843
   5.3063283  93.6613273 107.0630379   4.9421490  93.1343894 107.7743301
   6.1630399  93.2711742 106.8896865  11.2112584  84.9507605 114.3261645
  10.8795908  85.8203016 114.1022860  10.6158197  84.6343889 115.0055676
   4.9468770  88.6903172 102.0591728   5.1143172  89.5583409 102.4262199
   4.7565939  88.8530454 101.1353017   7.7044103  97.1520151 113.7257558
   7.4044826  98.0545190 113.6173365   7.3595163  96.8852334 114.5778711
  11.1041247  89.6702691 111.4054995  10.1958124  89.6018100 111.1113756
  11.0528843  90.1474636 112.2336821   4.9257991  91.1460830 103.0438395
   4.8057616  91.5917881 103.8823875   4.2310579  91.4946148 102.4851933
   2.6864883 103.9164472 106.6928526   2.6088913 104.8672297 106.7717006
   2.0826527 103.5710344 107.3503452   5.1782113  91.0892337 119.3489893
   4.4015447  91.6486257 119.3392757   5.8172676  91.5749120 119.8704763
  12.9702893  87.8719130 113.1832869  12.3277274  88.1651663 112.5372664
  12.4657822  87.7572050 113.9886066  10.6243057  91.6182303 103.8718729
  11.5360913  91.8509690 103.6966426  10.1152704  92.2019347 103.3093807
   8.9083825  96.0406931 117.5080021   9.3167181  95.5989341 116.7634654
   8.1861086  95.4659558 117.7614214   5.2614895  90.9779538 114.8813578
   6.1076090  91.4018951 115.0248227   5.2013532  90.3213162 115.5752141
   9.2312639  96.6008121 111.2632310   8.6021502  96.7653836 110.5608378
   8.8438301  97.0149731 112.0343274  13.1101871  97.5362559 108.6176674
  12.4252909  97.9161461 108.0673707  13.1945721  98.1457886 109.3508622
   8.4114340  88.6383906 116.5394752   8.1675272  89.3925966 116.0029027
   8.6874271  89.0169254 117.3741999  10.3652803  95.1822518 115.2172017
  10.5769698  95.8254278 114.5406398  10.3182551  94.3484835 114.7493947
   7.9679032  87.7940339 112.1208589   7.1063511  88.0921593 112.4125327
   7.9941466  88.0110738 111.1889622   4.7840601  96.3382530 108.5282395
   5.2478947  96.6170233 107.7387018   4.5197399  95.4365974 108.3455486
   1.6764682  95.8854011 111.4662158   2.2466039  96.3141279 110.8279643
   2.2672794  95.6036596 112.1646344   3.7209487  92.4605682 105.3371960
   4.4233531  92.9126726 105.8045887   3.3890116  91.8189501 105.9651853
  11.4798631  98.0594474 113.3894375  12.3016074  97.6574661 113.1077056
  11.4761034  97.9562708 114.3410490  19.5704624  94.4033222 109.7379346
  18.8168332  93.8340620 109.5823351  19.7052165  94.3695887 110.6849981
   4.9603252  99.2746625 105.4134066   4.8248927 100.1198160 105.8418913
   5.5013064  99.4765902 104.6499999   4.3638552  86.7696083 119.6668677
   5.1048266  87.3703237 119.5873140   4.5956475  86.0273721 119.1086720
   8.6852966 100.1772991 117.5715809   8.6671442 100.9981872 117.0796078
   9.6072886 100.0527066 117.7965950   8.3095715  82.7977186 113.9432959
   7.9659985  83.6878828 113.8672070   8.6774678  82.6078844 113.0802544
   8.2745998  92.7885798 102.4505394   7.7592622  93.5590402 102.6893782
   8.0023307  92.1150934 103.0738456   5.8593109  87.6335498 107.5090632
   5.0034706  87.2442349 107.3296271   6.2720061  87.7127459 106.6490418
   7.3892256  85.1681842 111.9082192   6.8857051  85.1311977 111.0949998
   7.6822863  86.0774584 111.9678849   3.6335142  85.2520571 110.9148374
   4.4988138  85.0563380 110.5554263   3.7012651  85.0230923 111.8417731
  13.2480272  95.5418152 104.3858568  12.4709715  95.2029312 103.9413730
  13.9271753  95.5470775 103.7113533   8.0632301  90.6612890 104.2765175
   7.7582437  90.9759039 105.1275318   9.0162743  90.7394310 104.3192508
   6.5078733  96.8203113 105.9258129   5.9800095  96.0855873 105.6131367
   6.0066236  97.5977789 105.6798098  11.4871579  95.0152133 111.0425176
  10.8295254  95.7051395 111.1305304  12.2911978  95.4048565 111.3859162
   1.2397461  87.4822779 108.2864741   1.8141213  87.2597961 107.5537934
   1.8268443  87.5511474 109.0393342  10.2977038  93.3696506 109.0929117
  10.8108920  94.0026498 109.5950827  10.9478262  92.7697702 108.7272477
   1.5667048  89.5127240 102.3060626   0.7304360  89.8501927 102.6269901
   1.4271818  89.3776220 101.3687763   3.5420128  84.3564028 107.0139810
   2.8884541  84.0413045 106.3896425   3.5000603  83.7339769 107.7399633
   4.6531333  94.6383323  98.9293102   3.7458395  94.4072577  99.1284251
   5.1502365  93.8420942  99.1167084   7.5599412 103.3480830 101.8489788
   6.8861111 103.6512527 102.4574746   7.9465234 104.1509911 101.4995246
   6.7757869  90.8445962 111.3387458   5.8580430  91.0660909 111.1809146
   7.1918012  90.9192272 110.4799165   7.5592917  92.2437377 106.4690138
   8.3064736  92.7558775 106.1597260   7.8284506  91.9221430 107.3294532
   5.8319567  94.7395918 103.4517092   4.9230786  94.4554951 103.5489562
   5.8614651  95.1594997 102.5920399  11.0638834  98.3502508 107.2208260
  10.6101161  97.5093417 107.2773450  10.4332801  98.9863906 107.5583040
  10.0071754  89.2794494 108.4508927   9.2694511  88.7671880 108.7819170
  10.2598527  88.8394875 107.6392204   9.5071773 100.1879004 108.1558078
   9.7994748 100.7484061 107.4370444  10.0170394 100.4807565 108.9111237
  10.1083381  82.0570746 109.0450697  10.4142258  81.1968109 108.7576612
  10.8335986  82.6488366 108.8449691   4.3804461  92.3524539 109.5526888
   4.4353071  91.3998375 109.4769364   3.5695663  92.5083978 110.0368186
   5.5295655  96.2804662 100.7905171   5.0915085  95.5640521 100.3310808
   6.2706095  96.5080777 100.2290262   2.3196821  90.9701598 107.3117267
   1.5064686  91.2695769 107.7182459   2.8155815  90.5757287 108.0291749
   4.4705399 100.9659355 109.2451531   4.4281577 101.1920202 108.3160063
   5.3868097 100.7322730 109.3937332   7.9171032  91.4343423 116.1432160
   8.2720420  91.6614896 117.0026626   8.5643164  91.7661800 115.5209416
  13.6468769  94.5561859 106.8481490  13.5086668  94.7463455 105.9202679
  13.2904988  95.3181242 107.3049541   1.8110895  88.5419954 112.9278502
   2.4510275  88.4008713 112.2301465   0.9788426  88.2554467 112.5517104
  13.6738149  96.6238386 111.8592761  14.1074656  96.5313675 112.7075815
  14.3869730  96.5995886 111.2212777   2.5871199  97.8422384 109.0413494
   3.3811798  97.3472705 108.8396069   1.8762892  97.3140247 108.6781200
   7.4066044 100.2240480 113.3925862   7.4603066 100.7931416 114.1603578
   6.5380825 100.3942365 113.0279899  14.5353699  96.6662086 114.3925646
  14.7289589  97.5707897 114.6384921  14.4354317  96.2069506 115.2264231
   6.1890009  86.5519977 116.8915974   5.5417924  87.2509927 116.7980450
   6.9591025  86.9856121 117.2592222   9.5968807  96.8168829 119.9666527
   9.4454314  96.5879381 119.0496611   9.5873487  97.7739431 119.9797872
   6.3654144  94.3900742 114.9512793   7.2946204  94.5411902 114.7781761
   5.9445174  94.4784763 114.0961440   5.1642475  98.4151406 112.7211331
   5.0253561  98.0470191 113.5937269   4.3757072  98.9299046 112.5495289
   5.7590627 103.5160503 104.0636868   5.9342383 103.0448546 104.8782490
   5.0723415 104.1426269 104.2918128   6.7147691  97.7933009 110.1100169
   6.3797523  97.7533779 111.0057819   6.2151636  97.1277725 109.6370579
   9.6506882  95.1389043 100.3837229   9.0336053  94.4135872 100.2870281
   9.1823371  95.8998404 100.0404303   3.3174235  92.9120598 115.1236430
   4.0273854  92.2713791 115.0823048   3.2743543  93.1633493 116.0462610
  11.3061014  99.8487952 118.0443009  11.2473560  99.1647172 117.3773592
  11.7080532 100.5906942 117.5923635   2.0303169  89.8985816 116.9432069
   1.4940526  89.4476555 117.5953666   1.4419878  90.0331725 116.2002534
   1.4405428  89.3574468  99.5058533   0.5634894  89.2363268  99.1420779
   1.9163181  88.5660546  99.2537421  11.3078421  97.8127536 116.2756989
  10.4205200  97.4753457 116.3983387  11.8776972  97.0810567 116.5125754
   4.6269354 101.7100758 106.7521053   3.8436876 102.2522438 106.8459278
   5.3262099 102.2274738 107.1515295   7.9366004  87.5195388 109.3955259
   8.4334704  86.7665350 109.0756329   7.1652986  87.5559704 108.8298468
  15.7895762  93.2235753 111.0373550  15.7785638  94.1060468 110.6667483
  14.9213141  92.8707304 110.8428087   7.2978258 102.3715822 115.3976390
   8.0106230 103.0063287 115.3252292   6.8068287 102.4679688 114.5816392
   9.0195785  96.2767075 106.9693682   8.0852064  96.3968537 106.7998386
   9.1972453  95.3739542 106.7053692   4.5200973  89.6612771 109.1226943
   4.1498761  89.1083811 109.8107849   5.0160065  89.0570904 108.5701943
  12.4068336  92.1184394 107.5043716  12.8728788  92.9512386 107.4304019
  12.8575837  91.6529376 108.2088975  10.4744567  98.4628215 104.5029868
  10.7504411  98.3484810 105.4123742   9.6049066  98.0645700 104.4642041
  10.3784999  84.4864981 111.5434618   9.4648079  84.7169208 111.7116825
  10.8078101  84.5703425 112.3948650  10.1491458  92.6754873 114.0434512
   9.4962908  92.9230780 113.3886964  10.5271837  91.8619011 113.7096989
   7.1098631 102.7114566 108.1462682   7.2921026 101.8936222 108.6090434
   7.9331617 102.9282258 107.7087572   7.4440797 101.6382751 105.4077730
   7.9728563 101.1275206 104.7947893   7.7069016 101.3225281 106.2723263
   8.0770201 102.6723587 111.7521847   7.9521340 101.8713327 111.2432792
   8.7349292 103.1669780 111.2635817  10.1405109 100.4732607 113.3801397
   9.1935445 100.3537958 113.3079724  10.4887882  99.5855105 113.4627658
   2.5004682  86.3626746 117.2039639   3.0239084  86.6089043 117.9665948
   2.2817016  87.1946781 116.7842776   7.1451542 100.2685323 109.5805749
   6.9976505  99.3402031 109.7613319   7.9705036 100.2905414 109.0962824
   1.0113787  88.9203390 105.4386241   1.3509859  89.4489312 104.7164850
   1.4585907  89.2583797 106.2144808  10.7485664 101.0913882 110.6670622
  11.6732212 100.8856743 110.5295073  10.5800968 100.8430283 111.5759963
   3.7057228  87.3040441 114.8889309   3.3654048  86.5048254 115.2909989
   2.9996234  87.6042152 114.3166143   4.3573699  84.3889754 113.3416632
   5.1799769  83.9150232 113.2195523   4.6011763  85.1680237 113.8415319
   2.9981934  87.4178012 103.6379534   3.7190296  87.7959265 103.1343251
   2.3747238  88.1366889 103.7414512   7.1413057  88.1223161 104.5737866
   7.3576671  89.0047799 104.2726695   6.6607124  87.7309374 103.8443508
   1.8812278  91.0808874 111.1508611   1.7356859  91.3949177 112.0432893
   1.4037482  91.6993775 110.5979510   3.7408661  88.0711422 111.1989501
   3.7270230  87.1752515 110.8621799   4.4581089  88.0782086 111.8327787
   5.5934792  88.5048762 113.2442628   5.3352570  89.4265833 113.2426958
   5.0619832  88.1079197 113.9343092  10.5380980 101.6099549 106.0232713
  10.7117858 101.0445972 105.2706566  11.0309872 102.4100444 105.8412203
   3.1445557  86.9525802 106.4677071   3.2661468  86.0242449 106.6667958
   2.8547599  86.9664488 105.5555386   6.0136747  84.6380713 109.6043791
   6.0358444  84.7020046 108.6495770   6.4304806  83.7985222 109.7984297
  16.3920372  94.3735972 107.6423013  16.8351518  93.6243298 107.2442136
  15.5146882  94.3646109 107.2596745  11.5256153 100.9266314 103.1229612
  12.2207058 101.5473007 103.3416926  11.8679303 100.0761665 103.3981990
  13.4247576  98.3766019 104.6516942  13.9498900  98.7153292 103.9266262
  13.3369929  97.4413035 104.4680077   5.1088237 104.4438003 109.0112196
   4.6693227 103.9514381 109.7045052   5.8596354 103.9010970 108.7704271
   2.5562109  99.9876012 111.0834497   1.9342118  99.3246717 110.7836725
   3.2266976 100.0137144 110.4008145  13.1141482  99.0098923 119.9568140
  12.3237026  98.9923062 119.4172640  12.8774837  99.5487217 120.7117177
  13.2339357  95.8591389 117.2700869  13.2837362  95.6941397 118.2116392
  13.1253281  94.9918648 116.8798750   2.1175616  98.5379935 104.5592958
   2.2663736  99.2215400 103.9059631   2.9242059  98.5185025 105.0742414
  10.5243120  91.8422317 118.5860176  11.4252982  91.7028782 118.2944173
  10.5991094  92.0076772 119.5258353   4.8585925  89.2189172 117.4313362
   3.9889234  89.5122738 117.1595950   5.0945405  89.8029617 118.1520626
  14.7357554  98.2788331 117.5142890  14.4442362  98.6418312 118.3506351
  14.1229685  97.5655339 117.3356223  15.9353236  95.8441211 110.0345461
  16.7700128  96.2831015 110.1983021  16.0712365  95.3679864 109.2153706
  12.9844742  93.4020946 115.9822948  13.4598864  93.5948592 115.1741800
  12.0610308  93.4580131 115.7366332   7.5624959  85.4368789 114.9478782
   8.0806903  86.1729816 114.6225271   7.2080092  85.7432782 115.7825541
   7.8137553  81.8569072 110.4679679   8.0939307  81.1892261 111.0940105
   8.5988160  82.0498167 109.9554343   5.6171021 101.0328066 102.0304705
   5.0444988 101.6518253 101.5775177   6.1903815 101.5827427 102.5644627
  11.6846411  90.2786706 114.2151254  12.6363834  90.3784803 114.2363478
  11.5149862  89.4864974 114.7249338   9.7060791  87.3642289 114.4010655
   9.1110723  87.6447302 113.7057144   9.4210487  87.8536190 115.1727396
   8.8368281 101.3165216 103.1613288   9.7698954 101.2510777 103.3646163
   8.7491494 102.1521483 102.7027820  11.4656298 100.6331086 100.1217235
  11.3869929 100.2990950 101.0152993  12.2865965 101.1252854 100.1208707
  14.1634489  93.4992825 113.3293554  14.1310809  92.5608826 113.5153238
  14.7735113  93.5776862 112.5959379   6.0017820  92.3688878  99.3720758
   6.9476925  92.2395086  99.4409176   5.6232065  91.6303540  99.8490186
  14.3128978  90.2903869 113.3751837  13.7968026  89.5062325 113.1881766
  15.1968926  89.9622585 113.5398356  11.9739704  84.0344884 109.3347650
  11.7764526  83.7259973 110.2190982  12.5839410  84.7606523 109.4645579
  19.9811039  94.5608832 112.4699590  20.7114427  94.2994120 113.0307294
  19.3717984  93.8237554 112.5101658  18.0626336  92.7016695 113.0674042
  17.3359500  92.5672660 112.4590533  17.6473623  93.0093523 113.8730760
   4.1860737  90.2938855  99.3075643   3.2792192  89.9971967  99.3838357
   4.4636718  89.9968673  98.4409929   5.8022803  84.8375744 105.4619884
   4.9923531  84.4922829 105.8375130   6.4907220  84.5283288 106.0507496
   7.7313351  83.9153791 107.0844181   8.2844390  84.3349245 107.7434204
   7.9683437  82.9889539 107.1267137   2.9559522  87.1525790  99.4487622
   3.8178686  87.4780688  99.7083440   3.1409866  86.3657286  98.9360688
  11.1092158  86.0254316 106.5922845  10.5290827  86.6839120 106.2100898
  10.8428091  85.2031661 106.1810263   9.5595725  85.4259374 108.7944165
  10.0595503  85.5375909 107.9858484  10.2031332  85.1220427 109.4344974
   9.8917036  88.1854407 105.6479193   9.0042891  88.4704057 105.4299388
  10.3071025  88.0248170 104.8006470  13.2431572  88.2100928 109.3633533
  14.0191962  88.6997380 109.6358149  12.5179706  88.6358982 109.8205402
  15.6804131  88.9228547 110.4207473  16.2748622  88.6824283 109.7100782
  15.7530715  88.2035678 111.0481010   9.0360250  97.9499081  99.7427213
   9.7396100  98.1549084 100.3584869   8.3122898  98.5175843 100.0076297
   9.8658060  93.7008943 105.8629484   9.8093261  94.1577494 105.0237116
  10.4186402  92.9399627 105.6852326  13.6762866  89.4898675 106.6879603
  13.4199800  89.0895310 107.5187811  13.0515734  90.2042469 106.5629742
  17.9875204  92.2294748 109.1950894  17.4274762  92.2987937 109.9682457
  17.3818707  92.0535732 108.4750391  10.9446947  98.3881611 101.7925673
  11.7792551  97.9562809 101.6103148  10.7831290  98.2163624 102.7202568
  10.5992839  94.8913724 103.1582013  10.5441643  94.7257995 102.2170457
   9.9738894  95.5989757 103.3144202   3.9088965  84.3921833 102.7367331
   3.8967635  85.3363673 102.8935602   4.8012387  84.2091978 102.4426792
   3.8378529 103.0690723 110.8235088   2.8874160 103.0692585 110.7099460
   4.1411015 102.3223458 110.3071122   7.7241084  80.9864610 106.9913268
   6.9573480  80.4323096 107.1369950   8.1351789  81.0586478 107.8527420
  19.5731222 108.9051262 111.8880850  20.2109632 108.7858009 111.1844190
  19.4552065 109.8532106 111.9468802  16.3820928 108.8578690 111.8242375
  16.0439440 108.7419755 110.9362910  17.2510697 108.4569855 111.8043381
  12.2407744 110.7114166 107.8139266  11.6772609 110.6204103 107.0455554
  12.1260139 109.8914071 108.2941758  16.8640711 110.0113542 117.7828580
  16.8529352 109.6166340 116.9109084  17.0261351 109.2779614 118.3762352
   9.7872176 112.2065358 110.6523486  10.5793468 111.8656183 110.2369786
  10.0268826 112.3160333 111.5725640  17.8207303 114.3785134 103.1253731
  17.1695283 114.9639214 102.7387745  18.6151666 114.9091329 103.1848768
  11.7462930 111.4674271 103.5240865  12.5193806 110.9203258 103.3853741
  12.0988329 112.3318520 103.7355326  14.5104179 110.1727502 113.3209124
  15.1067752 109.9483524 112.6066087  14.5679151 109.4312247 113.9234572
  14.0829208 107.6266937 101.1559315  14.3354728 107.1048459 100.3942778
  13.1453767 107.4633083 101.2585999  19.1272491 106.6302716 108.9634058
  19.9135580 106.2122139 108.6124475  19.3911195 107.5348808 109.1315707
  19.2982568 112.0675566 103.6622715  18.6628401 112.1410192 104.3743620
  18.9679974 112.6569165 102.9841794  24.5280918 106.5677949 109.8667037
  25.2606090 105.9977166 110.1004866  23.7720273 106.1799549 110.3073542
  13.8025497 109.5295043 103.3583690  13.6861755 108.8539947 104.0264774
  13.9127756 109.0427417 102.5415843  16.1457037 108.9905190 107.0630379
  15.7815245 108.4635811 107.7743301  17.0024153 108.6003659 106.8896865
  22.0506338 100.2799523 114.3261645  21.7189663 101.1494934 114.1022860
  21.4551951  99.9635807 115.0055676  15.7862524 104.0195090 102.0591728
  15.9536927 104.8875326 102.4262199  15.5959694 104.1822372 101.1353017
  18.5437858 112.4812069 113.7257558  18.2438581 113.3837108 113.6173365
  18.1988917 112.2144252 114.5778711  11.9950339 108.9325866 109.7594263
  11.0700836 108.8002080 109.9671954  12.2434752 109.7120085 110.2564205
  21.9435001 104.9994609 111.4054995  21.0351879 104.9310018 111.1113756
  21.8922597 105.4766554 112.2336821  15.7651745 106.4752748 103.0438395
  15.6451371 106.9209798 103.8823875  15.0704334 106.8238065 102.4851933
   9.3559150 108.5759139 110.5938052   9.4851531 108.8293618 111.5077463
   8.6756601 109.1686847 110.2742707  13.5258637 119.2456389 106.6928526
  13.4482667 120.1964214 106.7717006  12.9220281 118.9002262 107.3503452
  16.0175867 106.4184255 119.3489893  15.2409201 106.9778175 119.3392757
  16.6566430 106.9041038 119.8704763  23.8096648 103.2011047 113.1832869
  23.1671028 103.4943581 112.5372664  23.3051576 103.0863968 113.9886066
  21.4636811 106.9474221 103.8718729  22.3754668 107.1801607 103.6966426
  20.9546459 107.5311265 103.3093807  19.7477579 111.3698849 117.5080021
  20.1560935 110.9281259 116.7634654  19.0254841 110.7951476 117.7614214
  16.1008649 106.3071455 114.8813578  16.9469844 106.7310869 115.0248227
  16.0407287 105.6505080 115.5752141  20.0706394 111.9300039 111.2632310
  19.4415256 112.0945753 110.5608378  19.6832056 112.3441649 112.0343274
  23.9495626 112.8654477 108.6176674  23.2646664 113.2453378 108.0673707
  24.0339475 113.4749804 109.3508622  19.2508095 103.9675824 116.5394752
  19.0069026 104.7217884 116.0029027  19.5268025 104.3461171 117.3741999
  21.2046557 110.5114436 115.2172017  21.4163453 111.1546196 114.5406398
  21.1576306 109.6776753 114.7493947  18.8072786 103.1232257 112.1208589
  17.9457265 103.4213510 112.4125327  18.8335221 103.3402656 111.1889622
  15.6234356 111.6674447 108.5282395  16.0872701 111.9462150 107.7387018
  15.3591154 110.7657892 108.3455486  12.5158437 111.2145929 111.4662158
  13.0859794 111.6433197 110.8279643  13.1066549 110.9328513 112.1646344
  14.5603242 107.7897600 105.3371960  15.2627285 108.2418643 105.8045887
  14.2283870 107.1481418 105.9651853   8.3028576 106.0481152 110.6389094
   7.5127630 106.3038681 110.1629204   8.7939823 106.8629490 110.7441134
  22.3192385 113.3886391 113.3894375  23.1409829 112.9866579 113.1077056
  22.3154788 113.2854626 114.3410490  10.2543321 106.4125732 107.5972571
   9.4574484 106.5244426 108.1156066  10.0268913 106.7512384 106.7313461
  30.4098378 109.7325140 109.7379346  29.6562087 109.1632538 109.5823351
  30.5445919 109.6987804 110.6849981  15.7997006 114.6038542 105.4134066
  15.6642681 115.4490078 105.8418913  16.3406819 114.8057820 104.6499999
   9.2526404 112.1213980 105.9861991   9.7650924 112.9157231 106.1367555
   9.9049117 111.4240271 105.9195592  11.0621288 115.2379737 108.0684744
  11.2387917 116.1597701 107.8805728  11.8578122 114.9238156 108.4979124
  15.2032307 102.0988001 119.6668677  15.9442020 102.6995154 119.5873140
  15.4350230 101.3565639 119.1086720  19.5246721 115.5064909 117.5715809
  19.5065196 116.3273790 117.0796078  20.4466641 115.3818984 117.7965950
  19.1489470  98.1269104 113.9432959  18.8053739  99.0170746 113.8672070
  19.5168433  97.9370762 113.0802544   7.2175321 110.4502635 106.7621561
   8.0550543 110.8599643 106.5455269   7.3953588 109.5102077 106.7321755
  19.1139753 108.1177715 102.4505394  18.5986376 108.8882320 102.6893782
  18.8417061 107.4442851 103.0738456  16.6986864 102.9627416 107.5090632
  15.8428460 102.5734266 107.3296271  17.1113815 103.0419377 106.6490418
  18.2286010 100.4973759 111.9082192  17.7250806 100.4603894 111.0949998
  18.5216617 101.4066502 111.9678849  14.4728896 100.5812489 110.9148374
  15.3381893 100.3855298 110.5554263  14.5406405 100.3522841 111.8417731
  24.0874027 110.8710070 104.3858568  23.3103470 110.5321229 103.9413730
  24.7665508 110.8762693 103.7113533  18.9026056 105.9904807 104.2765175
  18.5976191 106.3050956 105.1275318  19.8556498 106.0686227 104.3192508
  17.3472488 112.1495031 105.9258129  16.8193849 111.4147790 105.6131367
  16.8459990 112.9269707 105.6798098  22.3265334 110.3444051 111.0425176
  21.6689008 111.0343312 111.1305304  23.1305733 110.7340483 111.3859162
  12.0791215 102.8114697 108.2864741  12.6534967 102.5889878 107.5537934
  12.6662198 102.8803391 109.0393342  21.1370792 108.6988424 109.0929117
  21.6502674 109.3318416 109.5950827  21.7872016 108.0989619 108.7272477
  12.4060802 104.8419158 102.3060626  11.5698115 105.1793844 102.6269901
  12.2665572 104.7068138 101.3687763  14.3813883  99.6855946 107.0139810
  13.7278295  99.3704963 106.3896425  14.3394357  99.0631686 107.7399633
  15.4925088 109.9675241  98.9293102  14.5852150 109.7364494  99.1284251
  15.9896120 109.1712860  99.1167084  18.3993167 118.6772748 101.8489788
  17.7254865 118.9804445 102.4574746  18.7858989 119.4801828 101.4995246
  17.6151623 106.1737879 111.3387458  16.6974185 106.3952826 111.1809146
  18.0311767 106.2484190 110.4799165  18.3986671 107.5729295 106.4690138
  19.1458490 108.0850692 106.1597260  18.6678261 107.2513348 107.3294532
  16.6713321 110.0687836 103.4517092  15.7624541 109.7846869 103.5489562
  16.7008405 110.4886914 102.5920399  21.9032589 113.6794425 107.2208260
  21.4494916 112.8385335 107.2773450  21.2726555 114.3155824 107.5583040
  20.8465508 104.6086411 108.4508927  20.1088265 104.0963797 108.7819170
  21.0992282 104.1686793 107.6392204  20.3465528 115.5170922 108.1558078
  20.6388502 116.0775979 107.4370444  20.8564148 115.8099483 108.9111237
  20.9477136  97.3862663 109.0450697  21.2536012  96.5260027 108.7576612
  21.6729740  97.9780283 108.8449691   7.2401492 107.7893350 107.4332295
   7.0425891 107.1962711 106.7083361   6.6848156 107.4845560 108.1508233
  15.2198215 107.6816456 109.5526888  15.2746825 106.7290293 109.4769364
  14.4089417 107.8375895 110.0368186  16.3689409 111.6096579 100.7905171
  15.9308839 110.8932438 100.3310808  17.1099850 111.8372694 100.2290262
  13.1590575 106.2993516 107.3117267  12.3458441 106.5987687 107.7182459
  13.6549569 105.9049205 108.0291749  15.3099153 116.2951273 109.2451531
  15.2675332 116.5212119 108.3160063  16.2261852 116.0614648 109.3937332
  18.7564787 106.7635341 116.1432160  19.1114175 106.9906814 117.0026626
  19.4036918 107.0953717 115.5209416  24.4862524 109.8853776 106.8481490
  24.3480422 110.0755372 105.9202679  24.1298743 110.6473159 107.3049541
  12.6504650 103.8711872 112.9278502  13.2904029 103.7300631 112.2301465
  11.8182181 103.5846385 112.5517104  24.5131903 111.9530303 111.8592761
  24.9468410 111.8605593 112.7075815  25.2263484 111.9287804 111.2212777
  13.4264954 113.1714302 109.0413494  14.2205552 112.6764622 108.8396069
  12.7156646 112.6432165 108.6781200  18.2459798 115.5532398 113.3925862
  18.2996821 116.1223334 114.1603578  17.3774580 115.7234283 113.0279899
   9.7347717 107.3157384 105.1173247   8.8045305 107.2541839 105.3343209
   9.8305189 106.7933337 104.3209888   9.6533266 103.8412197 107.7051488
   9.9140084 104.7557530 107.5960649  10.4750439 103.3736639 107.8548101
  11.1258192 105.2549954 114.8750313  11.7981245 105.0467316 114.2262962
  10.2987978 105.0572040 114.4355545  25.3747453 111.9954004 114.3925646
  25.5683343 112.8999815 114.6384921  25.2748071 111.5361423 115.2264231
  17.0283764 101.8811895 116.8915974  16.3811679 102.5801844 116.7980450
  17.7984779 102.3148039 117.2592222  20.4362562 112.1460747 119.9666527
  20.2848068 111.9171299 119.0496611  20.4267241 113.1031348 119.9797872
  17.2047898 109.7192660 114.9512793  18.1339958 109.8703819 114.7781761
  16.7838928 109.8076680 114.0961440  16.0036230 113.7443324 112.7211331
  15.8647316 113.3762108 113.5937269  15.2150826 114.2590963 112.5495289
  16.5984382 118.8452420 104.0636868  16.7736138 118.3740464 104.8782490
  15.9117170 119.4718187 104.2918128  17.5541445 113.1224927 110.1100169
  17.2191278 113.0825697 111.0057819  17.0545391 112.4569643 109.6370579
  20.4900637 110.4680961 100.3837229  19.8729807 109.7427789 100.2870281
  20.0217125 111.2290321 100.0404303  14.1567990 108.2412516 115.1236430
  14.8667608 107.6005708 115.0823048  14.1137298 108.4925411 116.0462610
  22.1454768 115.1779869 118.0443009  22.0867314 114.4939090 117.3773592
  22.5474287 115.9198859 117.5923635  12.8696924 105.2277734 116.9432069
  12.3334281 104.7768472 117.5953666  12.2813632 105.3623643 116.2002534
  12.2799183 104.6866385  99.5058533  11.4028649 104.5655186  99.1420779
  12.7556936 103.8952464  99.2537421  22.1472176 113.1419453 116.2756989
  21.2598954 112.8045375 116.3983387  22.7170727 112.4102485 116.5125754
   8.6036045 104.3633742 114.0285064   8.5194234 103.7559411 113.2935474
   7.7818751 104.8542760 114.0294560  15.4663109 117.0392676 106.7521053
  14.6830631 117.5814356 106.8459278  16.1655854 117.5566655 107.1515295
  18.7759759 102.8487305 109.3955259  19.2728458 102.0957268 109.0756329
  18.0046740 102.8851622 108.8298468  26.6289516 108.5527671 111.0373550
  26.6179392 109.4352386 110.6667483  25.7606896 108.1999222 110.8428087
  18.1372013 117.7007740 115.3976390  18.8499985 118.3355205 115.3252292
  17.6462041 117.7971606 114.5816392  19.8589539 111.6058992 106.9693682
  18.9245818 111.7260455 106.7998386  20.0366208 110.7031459 106.7053692
  15.3594727 104.9904688 109.1226943  14.9892515 104.4375729 109.8107849
  15.8553820 104.3862822 108.5701943  23.2462091 107.4476312 107.5043716
  23.7122543 108.2804303 107.4304019  23.6969591 106.9821293 108.2088975
  21.3138322 113.7920133 104.5029868  21.5898166 113.6776728 105.4123742
  20.4442821 113.3937618 104.4642041  21.2178754  99.8156899 111.5434618
  20.3041833 100.0461126 111.7116825  21.6471855  99.8995343 112.3948650
  20.9885212 108.0046791 114.0434512  20.3356662 108.2522698 113.3886964
  21.3665592 107.1910929 113.7096989  17.9492386 118.0406484 108.1462682
  18.1314780 117.2228140 108.6090434  18.7725372 118.2574176 107.7087572
  18.2834551 116.9674669 105.4077730  18.8122318 116.4567124 104.7947893
  18.5462771 116.6517199 106.2723263  11.6390299 118.0189786 108.1675506
  10.9700675 118.5035913 107.6839546  11.5003169 118.2659006 109.0818885
  10.7560061 102.4008679 115.3680049  10.8201388 103.2623510 114.9557447
  10.6927181 101.7882681 114.6352408   7.0077876 106.2808241 104.9471438
   7.3031318 105.3718919 104.8938492   6.1065912 106.2595980 104.6252441
  18.9163955 118.0015505 111.7521847  18.7915095 117.2005245 111.2432792
  19.5743046 118.4961698 111.2635817  10.5372123 104.3564237 110.9298987
   9.8158709 104.9700205 110.7906460  11.3265379 104.8922002 110.8515633
  20.9798864 115.8024525 113.3801397  20.0329199 115.6829876 113.3079724
  21.3281637 114.9147023 113.4627658  13.3398437 101.6918664 117.2039639
  13.8632839 101.9380960 117.9665948  13.1210770 102.5238698 116.7842776
   8.7365718 103.9622338 105.0710764   8.4078424 103.0819717 104.8885870
   9.0905089 103.9070007 105.9587153  17.9845297 115.5977241 109.5805749
  17.8370259 114.6693948 109.7613319  18.8098790 115.6197332 109.0962824
  11.8507541 104.2495308 105.4386241  12.1903614 104.7781229 104.7164850
  12.2979662 104.5875714 106.2144808  21.5879419 116.4205800 110.6670622
  22.5125966 116.2148661 110.5295073  21.4194722 116.1722201 111.5759963
  14.5450982 102.6332359 114.8889309  14.2047802 101.8340172 115.2909989
  13.8389988 102.9334070 114.3166143  15.1967454  99.7181671 113.3416632
  16.0193523  99.2442149 113.2195523  15.4405517 100.4972155 113.8415319
  13.8375688 102.7469930 103.6379534  14.5584051 103.1251182 103.1343251
  13.2140992 103.4658806 103.7414512  17.9806811 103.4515079 104.5737866
  18.1970426 104.3339717 104.2726695  17.5000878 103.0601292 103.8443508
  12.7206033 106.4100792 111.1508611  12.5750613 106.7241095 112.0432893
  12.2431236 107.0285692 110.5979510  14.5802415 103.4003340 111.1989501
  14.5663984 102.5044433 110.8621799  15.2974844 103.4074004 111.8327787
  16.4328546 103.8340680 113.2442628  16.1746324 104.7557751 113.2426958
  15.9013587 103.4371115 113.9343092  21.3774735 116.9391467 106.0232713
  21.5511612 116.3737890 105.2706566  21.8703626 117.7392362 105.8412203
  13.9839311 102.2817720 106.4677071  14.1055223 101.3534366 106.6667958
  13.6941354 102.2956406 105.5555386  16.8530502  99.9672631 109.6043791
  16.8752199 100.0311964 108.6495770  17.2698561  99.1277139 109.7984297
  27.2314126 109.7027890 107.6423013  27.6745272 108.9535215 107.2442136
  26.3540636 109.6938026 107.2596745  22.3649907 116.2558232 103.1229612
  23.0600812 116.8764924 103.3416926  22.7073058 115.4053583 103.3981990
  24.2641331 113.7057937 104.6516942  24.7892655 114.0445210 103.9266262
  24.1763683 112.7704952 104.4680077  15.9481991 119.7729920 109.0112196
  15.5086982 119.2806299 109.7045052  16.6990108 119.2302888 108.7704271
  13.3955863 115.3167929 111.0834497  12.7735873 114.6538634 110.7836725
  14.0660730 115.3429061 110.4008145  23.9535237 114.3390841 119.9568140
  23.1630780 114.3214980 119.4172640  23.7168591 114.8779134 120.7117177
  24.0733112 111.1883307 117.2700869  24.1231117 111.0233315 118.2116392
  23.9647035 110.3210566 116.8798750  12.9569370 113.8671853 104.5592958
  13.1057491 114.5507317 103.9059631  13.7635814 113.8476943 105.0742414
  21.3636874 107.1714235 118.5860176  22.2646737 107.0320700 118.2944173
  21.4384849 107.3368690 119.5258353  15.6979679 104.5481090 117.4313362
  14.8282989 104.8414656 117.1595950  15.9339160 105.1321535 118.1520626
  25.5751308 113.6080249 117.5142890  25.2836117 113.9710229 118.3506351
  24.9623440 112.8947257 117.3356223  26.7746991 111.1733128 110.0345461
  27.6093882 111.6122932 110.1983021  26.9106120 110.6971782 109.2153706
  23.8238497 108.7312863 115.9822948  24.2992618 108.9240510 115.1741800
  22.9004062 108.7872049 115.7366332  10.7122003 109.8937030 105.5654027
  10.4668045 108.9899360 105.7634237  10.8817918 109.8954181 104.6233505
  18.4018713 100.7660707 114.9478782  18.9200657 101.5021734 114.6225271
  18.0473846 101.0724700 115.7825541   9.9817651 105.6265388 103.0640188
   9.2886896 105.7009743 102.4080224   9.7369403 104.8625732 103.5861705
  18.6531307  97.1860989 110.4679679  18.9333061  96.5184178 111.0940105
  19.4381914  97.3790085 109.9554343  16.4564776 116.3619983 102.0304705
  15.8838743 116.9810170 101.5775177  17.0297570 116.9119345 102.5644627
  22.5240166 105.6078623 114.2151254  23.4757589 105.7076721 114.2363478
  22.3543616 104.8156892 114.7249338  20.5454545 102.6934207 114.4010655
  19.9504477 102.9739219 113.7057144  20.2604242 103.1828107 115.1727396
  19.6762036 116.6457133 103.1613288  20.6092709 116.5802695 103.3646163
  19.5885248 117.4813400 102.7027820  22.3050052 115.9623004 100.1217235
  22.2263684 115.6282867 101.0152993  23.1259719 116.4544772 100.1208707
  25.0028244 108.8284743 113.3293554  24.9704564 107.8900744 113.5153238
  25.6128867 108.9068780 112.5959379  16.8411574 107.6980796  99.3720758
  17.7870679 107.5687004  99.4409176  16.4625819 106.9595458  99.8490186
  25.1522732 105.6195786 113.3751837  24.6361781 104.8354243 113.1881766
  26.0362681 105.2914503 113.5398356  22.8133459  99.3636802 109.3347650
  22.6158280  99.0551890 110.2190982  23.4233165 100.0898441 109.4645579
  30.8204793 109.8900750 112.4699590  31.5508182 109.6286038 113.0307294
  30.2111739 109.1529472 112.5101658  28.9020090 108.0308612 113.0674042
  28.1753254 107.8964577 112.4590533  28.4867377 108.3385441 113.8730760
  15.0254492 105.6230772  99.3075643  14.1185947 105.3263885  99.3838357
  15.3030473 105.3260590  98.4409929   5.9432432 106.9437136 109.7574689
   5.6235216 106.0902444 109.4649063   5.3965860 107.1585714 110.5132657
  16.6416557 100.1667662 105.4619884  15.8317286  99.8214747 105.8375130
  17.3300974  99.8575206 106.0507496  18.5707106  99.2445709 107.0844181
  19.1238144  99.6641162 107.7434204  18.8077192  98.3181457 107.1267137
  13.7953276 102.4817708  99.4487622  14.6572440 102.8072606  99.7083440
  13.9803620 101.6949204  98.9360688  21.9485913 101.3546234 106.5922845
  21.3684582 102.0131038 106.2100898  21.6821845 100.5323579 106.1810263
  20.3989479 100.7551292 108.7944165  20.8989257 100.8667826 107.9858484
  21.0425087 100.4512345 109.4344974   7.7257434 110.4958301 109.6033826
   7.7028123 110.5945988 108.6515709   8.0358071 111.3423452 109.9250992
  20.7310791 103.5146324 105.6479193  19.8436646 103.7995975 105.4299388
  21.1464780 103.3540088 104.8006470  24.0825327 103.5392845 109.3633533
  24.8585717 104.0289298 109.6358149  23.3573461 103.9650900 109.8205402
  26.5197885 104.2520465 110.4207473  27.1142376 104.0116201 109.7100782
  26.5924469 103.5327595 111.0481010  19.8754004 113.2790999  99.7427213
  20.5789854 113.4841002 100.3584869  19.1516653 113.8467761 100.0076297
  20.7051814 109.0300860 105.8629484  20.6487016 109.4869412 105.0237116
  21.2580157 108.2691545 105.6852326  24.5156620 104.8190592 106.6879603
  24.2593555 104.4187228 107.5187811  23.8909488 105.5334386 106.5629742
  28.8268958 107.5586665 109.1950894  28.2668516 107.6279855 109.9682457
  28.2212462 107.3827650 108.4750391  21.7840702 113.7173528 101.7925673
  22.6186305 113.2854727 101.6103148  21.6225044 113.5455542 102.7202568
  21.4386594 110.2205642 103.1582013  21.3835397 110.0549913 102.2170457
  20.8132649 110.9281675 103.3144202  14.7482719  99.7213751 102.7367331
  14.7361389 100.6655591 102.8935602  15.6406141  99.5383896 102.4426792
  14.6772283 118.3982641 110.8235088  13.7267914 118.3984503 110.7099460
  14.9804769 117.6515376 110.3071122  18.5634839  96.3156527 106.9913268
  17.7967234  95.7615014 107.1369950  18.9745544  96.3878396 107.8527420
  30.4124977 124.2343179 111.8880850  31.0503387 124.1149927 111.1844190
  30.2945820 125.1824023 111.9468802  27.2214683 124.1870608 111.8242375
  26.8833194 124.0711672 110.9362910  28.0904451 123.7861773 111.8043381
  23.0801499 126.0406084 107.8139266  22.5166364 125.9496021 107.0455554
  22.9653894 125.2205988 108.2941758  27.7034466 125.3405459 117.7828580
  27.6923107 124.9458258 116.9109084  27.8655105 124.6071532 118.3762352
  20.6265931 127.5357276 110.6523486  21.4187222 127.1948100 110.2369786
  20.8662581 127.6452251 111.5725640  22.5856684 126.7966189 103.5240865
  23.3587560 126.2495176 103.3853741  22.9382083 127.6610438 103.7355326
  25.3497934 125.5019420 113.3209124  25.9461506 125.2775442 112.6066087
  25.4072905 124.7604165 113.9234572  24.9222962 122.9558855 101.1559315
  25.1748483 122.4340376 100.3942778  23.9847521 122.7925000 101.2585999
  29.9666245 121.9594633 108.9634058  30.7529334 121.5414056 108.6124475
  30.2304949 122.8640725 109.1315707  30.1376322 127.3967484 103.6622715
  29.5022155 127.4702110 104.3743620  29.8073729 127.9861082 102.9841794
  35.3674672 121.8969866 109.8667037  36.0999844 121.3269083 110.1004866
  34.6114028 121.5091467 110.3073542  24.6419251 124.8586961 103.3583690
  24.5255509 124.1831864 104.0264774  24.7521511 124.3719335 102.5415843
  26.9850792 124.3197108 107.0630379  26.6208999 123.7927729 107.7743301
  27.8417908 123.9295577 106.8896865  32.8900093 115.6091441 114.3261645
  32.5583417 116.4786852 114.1022860  32.2945706 115.2927725 115.0055676
  26.6256279 119.3487008 102.0591728  26.7930681 120.2167244 102.4262199
  26.4353448 119.5114289 101.1353017  29.3831612 127.8103987 113.7257558
  29.0832335 128.7129025 113.6173365  29.0382672 127.5436170 114.5778711
  22.8344094 124.2617783 109.7594263  21.9094590 124.1293998 109.9671954
  23.0828507 125.0412003 110.2564205  32.7828756 120.3286527 111.4054995
  31.8745633 120.2601935 111.1113756  32.7316352 120.8058472 112.2336821
  26.6045500 121.8044665 103.0438395  26.4845125 122.2501716 103.8823875
  25.9098088 122.1529983 102.4851933  20.1952905 123.9051057 110.5938052
  20.3245286 124.1585536 111.5077463  19.5150356 124.4978765 110.2742707
  26.8569622 121.7476172 119.3489893  26.0802956 122.3070092 119.3392757
  27.4960185 122.2332955 119.8704763  34.6490402 118.5302965 113.1832869
  34.0064783 118.8235498 112.5372664  34.1445331 118.4155886 113.9886066
  32.3030566 122.2766138 103.8718729  33.2148422 122.5093525 103.6966426
  31.7940213 122.8603183 103.3093807  30.5871334 126.6990766 117.5080021
  30.9954690 126.2573177 116.7634654  29.8648595 126.1243394 117.7614214
  26.9402404 121.6363373 114.8813578  27.7863599 122.0602787 115.0248227
  26.8801041 120.9796997 115.5752141  30.9100148 127.2591957 111.2632310
  30.2809011 127.4237671 110.5608378  30.5225810 127.6733566 112.0343274
  34.7889380 128.1946395 108.6176674  34.1040418 128.5745296 108.0673707
  34.8733229 128.8041721 109.3508622  30.0901849 119.2967741 116.5394752
  29.8462781 120.0509802 116.0029027  30.3661780 119.6753089 117.3741999
  32.0440312 125.8406354 115.2172017  32.2557207 126.4838114 114.5406398
  31.9970060 125.0068670 114.7493947  29.6466541 118.4524174 112.1208589
  28.7851020 118.7505428 112.4125327  29.6728975 118.6694573 111.1889622
  26.4628110 126.9966365 108.5282395  26.9266456 127.2754068 107.7387018
  26.1984908 126.0949809 108.3455486  23.3552191 126.5437846 111.4662158
  23.9253548 126.9725115 110.8279643  23.9460303 126.2620431 112.1646344
  25.3996996 123.1189517 105.3371960  26.1021040 123.5710561 105.8045887
  25.0677625 122.4773336 105.9651853  19.1422330 121.3773070 110.6389094
  18.3521384 121.6330598 110.1629204  19.6333578 122.1921408 110.7441134
  33.1586140 128.7178309 113.3894375  33.9803583 128.3158496 113.1077056
  33.1548543 128.6146543 114.3410490  21.0937076 121.7417649 107.5972571
  20.2968239 121.8536343 108.1156066  20.8662668 122.0804301 106.7313461
  41.2492133 125.0617058 109.7379346  40.4955841 124.4924456 109.5823351
  41.3839674 125.0279722 110.6849981  26.0426061 117.4279919 119.6668677
  26.7835775 118.0287072 119.5873140  26.2743984 116.6857557 119.1086720
  29.9883224 113.4561022 113.9432959  29.6447494 114.3462663 113.8672070
  30.3562187 113.2662679 113.0802544  18.0569075 125.7794552 106.7621561
  18.8944297 126.1891561 106.5455269  18.2347343 124.8393994 106.7321755
  29.9533507 123.4469633 102.4505394  29.4380131 124.2174238 102.6893782
  29.6810816 122.7734769 103.0738456  27.5380618 118.2919334 107.5090632
  26.6822214 117.9026184 107.3296271  27.9507570 118.3711294 106.6490418
  29.0679765 115.8265677 111.9082192  28.5644560 115.7895812 111.0949998
  29.3610372 116.7358420 111.9678849  25.3122651 115.9104407 110.9148374
  26.1775647 115.7147215 110.5554263  25.3800160 115.6814758 111.8417731
  34.9267781 126.2001988 104.3858568  34.1497224 125.8613147 103.9413730
  35.6059262 126.2054611 103.7113533  29.7419810 121.3196725 104.2765175
  29.4369946 121.6342874 105.1275318  30.6950252 121.3978145 104.3192508
  28.1866242 127.4786948 105.9258129  27.6587604 126.7439708 105.6131367
  27.6853745 128.2561625 105.6798098  33.1659088 125.6735969 111.0425176
  32.5082763 126.3635230 111.1305304  33.9699487 126.0632401 111.3859162
  22.9184970 118.1406615 108.2864741  23.4928722 117.9181796 107.5537934
  23.5055952 118.2095309 109.0393342  31.9764547 124.0280341 109.0929117
  32.4896429 124.6610333 109.5950827  32.6265771 123.4281537 108.7272477
  23.2454557 120.1711076 102.3060626  22.4091869 120.5085762 102.6269901
  23.1059327 120.0360055 101.3687763  25.2207637 115.0147863 107.0139810
  24.5672050 114.6996881 106.3896425  25.1788112 114.3923604 107.7399633
  26.3318842 125.2967159  98.9293102  25.4245904 125.0656412  99.1284251
  26.8289874 124.5004778  99.1167084  28.4545378 121.5029797 111.3387458
  27.5367939 121.7244744 111.1809146  28.8705521 121.5776107 110.4799165
  29.2380426 122.9021213 106.4690138  29.9852245 123.4142610 106.1597260
  29.5072015 122.5805265 107.3294532  27.5107076 125.3979753 103.4517092
  26.6018295 125.1138786 103.5489562  27.5402160 125.8178832 102.5920399
  32.7426343 129.0086343 107.2208260  32.2888670 128.1677253 107.2773450
  32.1120310 129.6447741 107.5583040  31.6859263 119.9378329 108.4508927
  30.9482020 119.4255715 108.7819170  31.9386036 119.4978711 107.6392204
  31.1859282 130.8462840 108.1558078  31.4782257 131.4067897 107.4370444
  31.6957903 131.1391401 108.9111237  31.7870890 112.7154581 109.0450697
  32.0929767 111.8551944 108.7576612  32.5123495 113.3072201 108.8449691
  18.0795246 123.1185268 107.4332295  17.8819646 122.5254628 106.7083361
  17.5241910 122.8137478 108.1508233  26.0591970 123.0108374 109.5526888
  26.1140580 122.0582210 109.4769364  25.2483172 123.1667813 110.0368186
  27.2083164 126.9388497 100.7905171  26.7702593 126.2224356 100.3310808
  27.9493604 127.1664612 100.2290262  23.9984330 121.6285434 107.3117267
  23.1852195 121.9279604 107.7182459  24.4943324 121.2341123 108.0291749
  29.5958541 122.0927258 116.1432160  29.9507929 122.3198731 117.0026626
  30.2430673 122.4245635 115.5209416  35.3256278 125.2145694 106.8481490
  35.1874177 125.4047290 105.9202679  34.9692497 125.9765077 107.3049541
  23.4898404 119.2003789 112.9278502  24.1297784 119.0592548 112.2301465
  22.6575935 118.9138303 112.5517104  35.3525658 127.2822221 111.8592761
  35.7862165 127.1897510 112.7075815  36.0657239 127.2579722 111.2212777
  24.2658708 128.5006220 109.0413494  25.0599307 128.0056540 108.8396069
  23.5550401 127.9724083 108.6781200  20.5741472 122.6449301 105.1173247
  19.6439060 122.5833757 105.3343209  20.6698944 122.1225254 104.3209888
  20.4927021 119.1704114 107.7051488  20.7533838 120.0849448 107.5960649
  21.3144193 118.7028557 107.8548101  21.9651946 120.5841871 114.8750313
  22.6375000 120.3759234 114.2262962  21.1381733 120.3863957 114.4355545
  36.2141208 127.3245922 114.3925646  36.4077098 128.2291732 114.6384921
  36.1141826 126.8653341 115.2264231  27.8677518 117.2103812 116.8915974
  27.2205433 117.9093762 116.7980450  28.6378534 117.6439956 117.2592222
  31.2756316 127.4752665 119.9666527  31.1241823 127.2463216 119.0496611
  31.2660996 128.4323266 119.9797872  28.0441653 125.0484577 114.9512793
  28.9733713 125.1995737 114.7781761  27.6232683 125.1368598 114.0961440
  28.3935200 128.4516844 110.1100169  28.0585032 128.4117614 111.0057819
  27.8939145 127.7861560 109.6370579  31.3294391 125.7972879 100.3837229
  30.7123562 125.0719707 100.2870281  30.8610880 126.5582239 100.0404303
  24.9961744 123.5704434 115.1236430  25.7061363 122.9297626 115.0823048
  24.9531052 123.8217329 116.0462610  32.9848523 130.5071787 118.0443009
  32.9261069 129.8231007 117.3773592  33.3868041 131.2490777 117.5923635
  23.7090678 120.5569652 116.9432069  23.1728035 120.1060390 117.5953666
  23.1207387 120.6915560 116.2002534  23.1192937 120.0158303  99.5058533
  22.2422403 119.8947104  99.1420779  23.5950690 119.2244381  99.2537421
  32.9865930 128.4711371 116.2756989  32.0992709 128.1337293 116.3983387
  33.5564481 127.7394402 116.5125754  19.4429799 119.6925659 114.0285064
  19.3587988 119.0851329 113.2935474  18.6212506 120.1834678 114.0294560
  29.6153513 118.1779223 109.3955259  30.1122213 117.4249185 109.0756329
  28.8440495 118.2143540 108.8298468  37.4683271 123.8819588 111.0373550
  37.4573147 124.7644304 110.6667483  36.6000650 123.5291139 110.8428087
  30.6983294 126.9350910 106.9693682  29.7639573 127.0552373 106.7998386
  30.8759962 126.0323377 106.7053692  26.1988482 120.3196606 109.1226943
  25.8286270 119.7667646 109.8107849  26.6947574 119.7154739 108.5701943
  34.0855845 122.7768229 107.5043716  34.5516297 123.6096221 107.4304019
  34.5363346 122.3113211 108.2088975  32.1532076 129.1212051 104.5029868
  32.4291920 129.0068645 105.4123742  31.2836575 128.7229536 104.4642041
  32.0572508 115.1448816 111.5434618  31.1435588 115.3753043 111.7116825
  32.4865609 115.2287260 112.3948650  31.8278967 123.3338708 114.0434512
  31.1750417 123.5814616 113.3886964  32.2059346 122.5202847 113.7096989
  21.5953816 117.7300597 115.3680049  21.6595142 118.5915428 114.9557447
  21.5320936 117.1174598 114.6352408  17.8471631 121.6100158 104.9471438
  18.1425072 120.7010837 104.8938492  16.9459667 121.5887898 104.6252441
  21.3765878 119.6856155 110.9298987  20.6552464 120.2992123 110.7906460
  22.1659134 120.2213920 110.8515633  31.8192618 131.1316442 113.3801397
  30.8722954 131.0121794 113.3079724  32.1675391 130.2438940 113.4627658
  24.1792191 117.0210581 117.2039639  24.7026593 117.2672878 117.9665948
  23.9604525 117.8530616 116.7842776  19.5759473 119.2914256 105.0710764
  19.2472179 118.4111635 104.8885870  19.9298843 119.2361925 105.9587153
  22.6901296 119.5787226 105.4386241  23.0297368 120.1073147 104.7164850
  23.1373416 119.9167632 106.2144808  32.4273173 131.7497717 110.6670622
  33.3519721 131.5440579 110.5295073  32.2588477 131.5014119 111.5759963
  25.3844736 117.9624276 114.8889309  25.0441557 117.1632090 115.2909989
  24.6783743 118.2625987 114.3166143  26.0361208 115.0473589 113.3416632
  26.8587278 114.5734067 113.2195523  26.2799272 115.8264073 113.8415319
  24.6769443 118.0761847 103.6379534  25.3977805 118.4543100 103.1343251
  24.0534747 118.7950724 103.7414512  28.8200566 118.7806996 104.5737866
  29.0364180 119.6631634 104.2726695  28.3394633 118.3893210 103.8443508
  23.5599787 121.7392710 111.1508611  23.4144368 122.0533013 112.0432893
  23.0824991 122.3577610 110.5979510  25.4196170 118.7295258 111.1989501
  25.4057739 117.8336351 110.8621799  26.1368598 118.7365921 111.8327787
  27.2722301 119.1632598 113.2442628  27.0140078 120.0849668 113.2426958
  26.7407341 118.7663032 113.9343092  24.8233066 117.6109638 106.4677071
  24.9448977 116.6826284 106.6667958  24.5335108 117.6248324 105.5555386
  27.6924256 115.2964548 109.6043791  27.7145953 115.3603881 108.6495770
  28.1092315 114.4569057 109.7984297  38.0707881 125.0319808 107.6423013
  38.5139027 124.2827133 107.2442136  37.1934391 125.0229944 107.2596745
  33.2043662 131.5850149 103.1229612  33.8994567 132.2056842 103.3416926
  33.5466812 130.7345500 103.3981990  35.1035085 129.0349855 104.6516942
  35.6286409 129.3737128 103.9266262  35.0157438 128.0996870 104.4680077
  34.7928991 129.6682758 119.9568140  34.0024535 129.6506897 119.4172640
  34.5562346 130.2071052 120.7117177  34.9126866 126.5175225 117.2700869
  34.9624871 126.3525232 118.2116392  34.8040789 125.6502484 116.8798750
  32.2030629 122.5006153 118.5860176  33.1040491 122.3612618 118.2944173
  32.2778603 122.6660608 119.5258353  26.5373434 119.8773008 117.4313362
  25.6676743 120.1706574 117.1595950  26.7732914 120.4613453 118.1520626
  36.4145063 128.9372166 117.5142890  36.1229871 129.3002147 118.3506351
  35.8017194 128.2239175 117.3356223  37.6140745 126.5025046 110.0345461
  38.4487637 126.9414850 110.1983021  37.7499874 126.0263699 109.2153706
  34.6632251 124.0604781 115.9822948  35.1386373 124.2532427 115.1741800
  33.7397817 124.1163967 115.7366332  21.5515758 125.2228948 105.5654027
  21.3061800 124.3191278 105.7634237  21.7211672 125.2246099 104.6233505
  29.2412468 116.0952624 114.9478782  29.7594412 116.8313651 114.6225271
  28.8867600 116.4016618 115.7825541  20.8211405 120.9557306 103.0640188
  20.1280650 121.0301661 102.4080224  20.5763157 120.1917649 103.5861705
  29.4925062 112.5152907 110.4679679  29.7726816 111.8476096 111.0940105
  30.2775669 112.7082003 109.9554343  33.3633920 120.9370541 114.2151254
  34.3151343 121.0368639 114.2363478  33.1937371 120.1448810 114.7249338
  31.3848300 118.0226124 114.4010655  30.7898232 118.3031137 113.7057144
  31.0997996 118.5120025 115.1727396  33.1443807 131.2914921 100.1217235
  33.0657438 130.9574785 101.0152993  33.9653474 131.7836689 100.1208707
  35.8421998 124.1576661 113.3293554  35.8098318 123.2192661 113.5153238
  36.4522622 124.2360697 112.5959379  27.6805329 123.0272714  99.3720758
  28.6264434 122.8978922  99.4409176  27.3019574 122.2887376  99.8490186
  35.9916486 120.9487704 113.3751837  35.4755535 120.1646161 113.1881766
  36.8756435 120.6206421 113.5398356  33.6527213 114.6928720 109.3347650
  33.4552035 114.3843808 110.2190982  34.2626919 115.4190359 109.4645579
  41.6598548 125.2192668 112.4699590  42.3901936 124.9577956 113.0307294
  41.0505493 124.4821389 112.5101658  39.7413845 123.3600530 113.0674042
  39.0147009 123.2256495 112.4590533  39.3261132 123.6677359 113.8730760
  25.8648246 120.9522690  99.3075643  24.9579701 120.6555803  99.3838357
  26.1424227 120.6552508  98.4409929  16.7826186 122.2729053 109.7574689
  16.4628971 121.4194362 109.4649063  16.2359615 122.4877632 110.5132657
  27.4810312 115.4959580 105.4619884  26.6711040 115.1506665 105.8375130
  28.1694729 115.1867124 106.0507496  29.4100860 114.5737627 107.0844181
  29.9631899 114.9933080 107.7434204  29.6470946 113.6473375 107.1267137
  24.6347031 117.8109625  99.4487622  25.4966195 118.1364524  99.7083440
  24.8197375 117.0241121  98.9360688  32.7879667 116.6838152 106.5922845
  32.2078336 117.3422956 106.2100898  32.5215600 115.8615496 106.1810263
  31.2383233 116.0843209 108.7944165  31.7383012 116.1959744 107.9858484
  31.8818841 115.7804262 109.4344974  18.5651189 125.8250219 109.6033826
  18.5421877 125.9237906 108.6515709  18.8751825 126.6715370 109.9250992
  31.5704545 118.8438242 105.6479193  30.6830400 119.1287893 105.4299388
  31.9858534 118.6832006 104.8006470  34.9219081 118.8684763 109.3633533
  35.6979471 119.3581216 109.6358149  34.1967215 119.2942817 109.8205402
  37.3591640 119.5812382 110.4207473  37.9536131 119.3408118 109.7100782
  37.4318224 118.8619513 111.0481010  30.7147759 128.6082917  99.7427213
  31.4183609 128.8132919 100.3584869  29.9910407 129.1759679 100.0076297
  31.5445569 124.3592778 105.8629484  31.4880770 124.8161329 105.0237116
  32.0973911 123.5983463 105.6852326  35.3550375 120.1482510 106.6879603
  35.0987309 119.7479146 107.5187811  34.7303243 120.8626304 106.5629742
  39.6662713 122.8878583 109.1950894  39.1062271 122.9571772 109.9682457
  39.0606216 122.7119568 108.4750391  32.6234456 129.0465446 101.7925673
  33.4580060 128.6146644 101.6103148  32.4618799 128.8747460 102.7202568
  32.2780348 125.5497559 103.1582013  32.2229152 125.3841831 102.2170457
  31.6526403 126.2573592 103.3144202  25.5876474 115.0505668 102.7367331
  25.5755143 115.9947508 102.8935602  26.4799896 114.8675814 102.4426792
  29.4028593 111.6448445 106.9913268  28.6360989 111.0906932 107.1369950
  29.8139298 111.7170314 107.8527420  43.7293847 130.9383358 114.3261645
  43.3977172 131.8078769 114.1022860  43.1339460 130.6219642 115.0055676
  45.4884157 133.8594883 113.1832869  44.8458537 134.1527416 112.5372664
  44.9839085 133.7447803 113.9886066  40.4860295 133.7816092 112.1208589
  39.6244774 134.0797346 112.4125327  40.5122730 133.9986491 111.1889622
  36.8819816 132.7571837 119.6668677  37.6229529 133.3578990 119.5873140
  37.1137739 132.0149474 119.1086720  40.8276979 128.7852939 113.9432959
  40.4841248 129.6754581 113.8672070  41.1955941 128.5954597 113.0802544
  38.3774373 133.6211251 107.5090632  37.5215969 133.2318102 107.3296271
  38.7901324 133.7003212 106.6490418  39.9073519 131.1557595 111.9082192
  39.4038315 131.1187730 111.0949998  40.2004126 132.0650337 111.9678849
  36.1516405 131.2396324 110.9148374  37.0169402 131.0439133 110.5554263
  36.2193914 131.0106676 111.8417731  36.0601392 130.3439781 107.0139810
  35.4065804 130.0288798 106.3896425  36.0181866 129.7215522 107.7399633
  42.5253017 135.2670247 108.4508927  41.7875774 134.7547633 108.7819170
  42.7779791 134.8270628 107.6392204  42.6264645 128.0446499 109.0450697
  42.9323521 127.1843862 108.7576612  43.3517249 128.6364119 108.8449691
  38.7071273 132.5395730 116.8915974  38.0599188 133.2385680 116.7980450
  39.4772288 132.9731874 117.2592222  40.4547268 133.5071141 109.3955259
  40.9515967 132.7541103 109.0756329  39.6834249 133.5435457 108.8298468
  42.8966263 130.4740734 111.5434618  41.9829342 130.7044961 111.7116825
  43.3259364 130.5579178 112.3948650  36.8754963 130.3765507 113.3416632
  37.6981032 129.9025985 113.2195523  37.1193026 131.1555990 113.8415319
  38.5318011 130.6256466 109.6043791  38.5539708 130.6895799 108.6495770
  38.9486070 129.7860975 109.7984297  40.0806222 131.4244542 114.9478782
  40.5988166 132.1605569 114.6225271  39.7261355 131.7308535 115.7825541
  40.3318816 127.8444825 110.4679679  40.6120570 127.1768014 111.0940105
  41.1169423 128.0373920 109.9554343  42.2242054 133.3518042 114.4010655
  41.6291986 133.6323055 113.7057144  41.9391751 133.8411943 115.1727396
  46.8310241 136.2779622 113.3751837  46.3149290 135.4938078 113.1881766
  47.7150190 135.9498338 113.5398356  44.4920968 130.0220637 109.3347650
  44.2945789 129.7135726 110.2190982  45.1020673 130.7482276 109.4645579
  38.3204066 130.8251497 105.4619884  37.5104795 130.4798582 105.8375130
  39.0088483 130.5159041 106.0507496  40.2494615 129.9029544 107.0844181
  40.8025653 130.3224998 107.7434204  40.4864701 128.9765292 107.1267137
  43.6273422 132.0130069 106.5922845  43.0472091 132.6714873 106.2100898
  43.3609354 131.1907414 106.1810263  42.0776988 131.4135127 108.7944165
  42.5776766 131.5251662 107.9858484  42.7212596 131.1096180 109.4344974
  42.4098300 134.1730160 105.6479193  41.5224155 134.4579810 105.4299388
  42.8252289 134.0123923 104.8006470  45.7612836 134.1976681 109.3633533
  46.5373226 134.6873133 109.6358149  45.0360970 134.6234735 109.8205402
  48.1985394 134.9104300 110.4207473  48.7929885 134.6700036 109.7100782
  48.2711978 134.1911431 111.0481010  46.1944129 135.4774428 106.6879603
  45.9381064 135.0771063 107.5187811  45.5696997 136.1918222 106.5629742
  36.4270228 130.3797586 102.7367331  36.4148898 131.3239426 102.8935602
  37.3193650 130.1967731 102.4426792  40.2422348 126.9740363 106.9913268
  39.4754743 126.4198849 107.1369950  40.6533053 127.0462231 107.8527420
   2.8493410  52.9156236  96.5912343   3.5818582  52.3455453  96.8250173
   2.0932766  52.5277837  97.0318849   2.1309140  49.5489335  99.9078176
   1.4883520  49.8421868  99.2617971   1.6264069  49.4342255 100.7131373
   2.2708118  59.2132764  95.3421980   1.5859156  59.5931666  94.7919014
   2.3551967  59.8228091  96.0753928   0.6404878  59.7364679 100.1139681
   1.4622321  59.3344866  99.8322363   0.6367280  59.6332913 101.0655797
   8.7310871  56.0803427  96.4624653   7.9774579  55.5110825  96.3068657
   8.8658412  56.0466092  97.4095287   2.4086519  57.2188357  91.1103874
   1.6315962  56.8799517  90.6659036   3.0878000  57.2240980  90.4358839
   2.8075016  56.2332064  93.5726796   2.6692915  56.4233660  92.6447985
   2.4511235  56.9951447  94.0294847   2.8344396  58.3008591  98.5838068
   3.2680902  58.2083880  99.4321122   3.5475976  58.2766091  97.9458084
   3.6959945  58.3432291 101.1170953   3.8895835  59.2478102 101.3630228
   3.5960563  57.8839710 101.9509538   4.9502008  54.9005958  97.7618857
   4.9391885  55.7830673  97.3912790   4.0819388  54.5477509  97.5673394
   1.5674583  53.7954599  94.2289023   2.0335035  54.6282591  94.1549326
   2.0182084  53.3299581  94.9334281   5.5526618  56.0506177  94.3668320
   5.9957764  55.3013503  93.9687443   4.6753129  56.0416314  93.9842052
   0.6862400  62.6036519  89.8474918   1.3813304  63.2243211  90.0662233
   1.0285550  61.7531870  90.1227296   2.5853823  60.0536224  91.3762249
   3.1105147  60.3923497  90.6511569   2.4976175  59.1183240  91.1925384
   2.2747729  60.6869128 106.6813447   1.4843273  60.6693267 106.1417946
   2.0381083  61.2257422 107.4362484   2.3945604  57.5361594 103.9946176
   2.4443609  57.3711602 104.9361698   2.2859527  56.6688853 103.6044056
   3.8963801  59.9558536 104.2388197   3.6048609  60.3188516 105.0751658
   3.2835932  59.2425544 104.0601529   5.0959483  57.5211416  96.7590767
   5.9306374  57.9601220  96.9228328   5.2318612  57.0450069  95.9399013
   2.1450989  55.0791150 102.7068255   2.6205111  55.2718797 101.8987106
   1.2216554  55.1350336 102.4611639   0.8452658  51.9556911 100.9396561
   1.7970081  52.0555008 100.9608785   0.6756108  51.1635179 101.4494645
   0.6262545  62.3101291  86.8462542   0.5476176  61.9761155  87.7398300
   1.4472211  62.8023059  86.8454014   3.3240736  55.1763030 100.0538860
   3.2917056  54.2379031 100.2398544   3.9341359  55.2547067  99.3204685
   3.4735224  51.9674074 100.0997144   2.9574273  51.1832530  99.9127072
   4.3575173  51.6392790 100.2643663   1.1345951  45.7115089  96.0592956
   0.9370772  45.4030177  96.9436288   1.7445657  46.4376728  96.1890886
   9.1417286  56.2379037  99.1944897   9.8720674  55.9764325  99.7552600
   8.5324231  55.5007759  99.2346965   7.2232583  54.3786900  99.7919348
   6.4965746  54.2442865  99.1835840   6.8079870  54.6863728 100.5976066
   2.4037819  49.8871133  96.0878839   3.1798209  50.3767585  96.3603456
   1.6785953  50.3129187  96.5450709   4.8410378  50.5998752  97.1452780
   5.4354868  50.3594488  96.4346088   4.9136961  49.8805882  97.7726316
   2.8369113  51.1668879  93.4124910   2.5806047  50.7665515  94.2433117
   2.2121981  51.8812673  93.2875049   7.1481450  53.9064953  95.9196201
   6.5881008  53.9758142  96.6927763   6.5424954  53.7305937  95.1995697
   8.7337469  70.5821467  98.6126157   9.3715879  70.4628214  97.9089497
   8.6158312  71.5302311  98.6714109   5.5427175  70.5348895  98.5487682
   5.2045687  70.4189959  97.6608216   6.4116943  70.1340060  98.5288688
   1.4013991  72.3884371  94.5384572   0.8378856  72.2974308  93.7700860
   1.2866386  71.5684276  95.0187065   6.0246958  71.6883747 104.5073887
   6.0135599  71.2936545 103.6354391   6.1867598  70.9549819 105.1007659
   6.9813550  76.0555339  89.8499037   6.3301529  76.6409419  89.4633051
   7.7757912  76.5861534  89.9094075   0.9069177  73.1444476  90.2486172
   1.6800053  72.5973463  90.1099048   1.2594576  74.0088725  90.4600633
   2.7454219  74.4720858 103.4553071   2.4544085  75.3766489 103.3399737
   3.3811204  74.5137386 104.1697141   3.6710426  71.8497707 100.0454431
   4.2673998  71.6253729  99.3311394   3.7285398  71.1082452 100.6479879
   3.2435455  69.3037142  87.8804622   3.4960975  68.7818663  87.1188085
   2.3060014  69.1403288  87.9831305   8.2878737  68.3072921  95.6879365
   9.0741827  67.8892344  95.3369782   8.5517442  69.2119013  95.8561013
   8.4588815  73.7445771  90.3868022   7.8234648  73.8180397  91.0988926
   8.1286221  74.3339370  89.7087101  13.6887165  68.2448154  96.5912343
  14.4212336  67.6747371  96.8250173  12.9326520  67.8569754  97.0318849
   2.9631743  71.2065248  90.0828997   2.8468001  70.5310152  90.7510081
   3.0734003  70.7197622  89.2661150   5.3063284  70.6675395  93.7875686
   4.9421491  70.1406016  94.4988607   6.1630400  70.2773864  93.6142171
  11.2112585  61.9569728 101.0506952  10.8795910  62.8265139 100.8268167
  10.6158198  61.6406012 101.7300982   4.9468771  65.6965295  88.7837034
   5.1143174  66.5645531  89.1507505   4.7565940  65.8592577  87.8598324
   7.7044104  74.1582274 100.4502865   7.4044827  75.0607313 100.3418672
   7.3595164  73.8914457 101.3024018  11.1041248  66.6764814  98.1300302
  10.1958126  66.6080222  97.8359063  11.0528844  67.1536759  98.9582128
   4.9257992  68.1522952  89.7683701   4.8057617  68.5980003  90.6069181
   4.2310580  68.5008270  89.2097239   2.6864884  80.9226594  93.4173832
   2.6088914  81.8734419  93.4962313   2.0826528  80.5772467  94.0748759
   5.1782114  68.0954460 106.0735199   4.4015448  68.6548380 106.0638064
   5.8172677  68.5811243 106.5950069  12.9702895  64.8781252  99.9078176
  12.3277275  65.1713786  99.2617971  12.4657823  64.7634173 100.7131373
  10.6243058  68.6244426  90.5964035  11.5360914  68.8571812  90.4211733
  10.1152705  69.2081470  90.0339114   3.4328486  70.9039913 105.6353166
   4.1743171  71.4424957 105.3587990   2.7265472  71.5306202 105.7924718
   8.9083826  73.0469053 104.2325328   9.3167182  72.6051464 103.4879960
   8.1861087  72.4721681 104.4859521   5.2614896  67.9841660 101.6058885
   6.1076091  68.4081074 101.7493534   5.2013534  67.3275285 102.2997448
   9.2312641  73.6070244  97.9877617   8.6021503  73.7715958  97.2853685
   8.8438303  74.0211854  98.7588581  13.1101872  74.5424682  95.3421980
  12.4252911  74.9223583  94.7919014  13.1945722  75.1520009  96.0753928
   8.4114341  65.6446029 103.2640058   8.1675273  66.3988089 102.7274334
   8.6874272  66.0231376 104.0987305  10.3652804  72.1884641 101.9417324
  10.5769699  72.8316401 101.2651705  10.3182552  71.3546957 101.4739254
   7.9679033  64.8002462  98.8453896   7.1063512  65.0983715  99.1370634
   7.9941468  65.0172860  97.9134929   4.7840602  73.3444652  95.2527702
   5.2478948  73.6232355  94.4632324   4.5197401  72.4428097  95.0700792
   1.6764683  72.8916134  98.1907465   2.2466041  73.3203402  97.5524950
   2.2672795  72.6098718  98.8891651   3.7209488  69.4667805  92.0617267
   4.4233532  69.9188848  92.5291193   3.3890117  68.8251623  92.6897160
   2.1689850  68.0579561 106.4368476   1.5388511  68.7395842 106.6703873
   2.0625938  67.9462643 105.4921615  11.4798632  75.0656596 100.1139681
  12.3016076  74.6636784  99.8322363  11.4761035  74.9624831 101.0655797
   5.2455235  74.6140640 102.2700392   5.3099668  75.0761047 103.1058564
   4.5366159  73.9838005 102.3982702  19.5704625  71.4095345  96.4624653
  18.8168333  70.8402743  96.3068657  19.7052166  71.3758009  97.4095287
   4.9603253  76.2808747  92.1379372   4.8248928  77.1260283  92.5664220
   5.5013066  76.4828025  91.3745306   1.4470593  62.3600327 108.7993727
   1.0537538  61.8066526 109.4741372   2.2636733  62.6710905 109.1900245
   4.3638554  63.7758206 106.3913984   5.1048267  64.3765359 106.3118446
   4.5956477  63.0335844 105.8332027   6.5871729  76.9032314 106.2679714
   6.1435584  76.1168692 105.9500619   7.2488943  77.0911464 105.6023605
   1.3458851  78.4328115 100.7940393   1.8966276  78.3045179 100.0217387
   0.5070327  78.7323004 100.4435286   8.6852968  77.1835114 104.2961116
   8.6671443  78.0043995 103.8041385   9.6072888  77.0589189 104.5211257
   5.1426022  74.6979243 105.1384624   5.6754359  73.9367531 104.9083932
   4.6140103  74.4052895 105.8808778   8.3095717  59.8039309 100.6678266
   7.9659986  60.6940951 100.5917376   8.6774679  59.6140967  99.8047851
   8.2745999  69.7947920  89.1750701   7.7592623  70.5652525  89.4139088
   8.0023308  69.1213056  89.7983762   5.8593110  64.6397621  94.2335939
   5.0034707  64.2504471  94.0541578   6.2720062  64.7189582  93.3735725
   7.3892257  62.1743964  98.6327499   6.8857053  62.1374099  97.8195304
   7.6822864  63.0836707  98.6924156   3.6335143  62.2582694  97.6393681
   4.4988140  62.0625503  97.2799570   3.7012652  62.0293046  98.5663037
  13.2480274  72.5480275  91.1103874  12.4709716  72.2091434  90.6659036
  13.9271755  72.5532898  90.4358839   8.0632303  67.6675012  91.0010482
   7.7582438  67.9821161  91.8520625   9.0162745  67.7456432  91.0437815
   6.5078734  73.8265236  92.6503436   5.9800096  73.0917995  92.3376673
   6.0066237  74.6039912  92.4043404  11.4871580  72.0214256  97.7670482
  10.8295255  72.7113517  97.8550611  12.2911980  72.4110688  98.1104469
   1.2397462  64.4884902  95.0110047   1.8141214  64.2660083  94.2783240
   1.8268444  64.5573596  95.7638649  10.2977039  70.3758629  95.8174424
  10.8108921  71.0088621  96.3196134  10.9478263  69.7759824  95.4517784
   1.5667049  66.5189363  89.0305933   0.7304361  66.8564049  89.3515207
   1.4271819  66.3838343  88.0933070   3.5420130  61.3626151  93.7385117
   2.8884542  61.0475168  93.1141732   3.5000604  60.7401891  94.4644940
   4.6531335  71.6445446  85.6538409   3.7458396  71.4134699  85.8529558
   5.1502367  70.8483065  85.8412390   7.5599413  80.3542953  88.5735095
   6.8861112  80.6574650  89.1820053   7.9465235  81.1572033  88.2240552
   6.7757870  67.8508084  98.0632764   5.8580431  68.0723031  97.9054453
   7.1918014  67.9254395  97.2044472   7.5592918  69.2499500  93.1935445
   8.3064737  69.7620897  92.8842567   7.8284507  68.9283553  94.0539838
   5.8319568  71.7458041  90.1762399   4.9230787  71.4617073  90.2734869
   5.8614652  72.1657119  89.3165706  11.0638835  75.3564630  93.9453567
  10.6101163  74.5155540  94.0018757  10.4332802  75.9926029  94.2828347
  10.0071755  66.2856616  95.1754234   9.2694512  65.7734002  95.5064477
  10.2598529  65.8456998  94.3637511   9.5071775  77.1941127  94.8803385
   9.7994749  77.7546184  94.1615750  10.0170395  77.4869688  95.6356544
  10.1083382  59.0632868  95.7696003  10.4142259  58.2030232  95.4821918
  10.8335987  59.6550488  95.5694997   4.3804462  69.3586661  96.2772194
   4.4353072  68.4060498  96.2014671   3.5695664  69.5146100  96.7613493
   5.5295656  73.2866784  87.5150478   5.0915086  72.5702643  87.0556115
   6.2706097  73.5142899  86.9535569   2.3196822  67.9763721  94.0362573
   1.5064688  68.2757892  94.4427765   2.8155816  67.5819410  94.7537055
   4.4705400  77.9721478  95.9696838   4.4281579  78.1982324  95.0405370
   5.3868099  77.7384853  96.1182639   7.9171034  68.4405545 102.8677467
   8.2720421  68.6677019 103.7271933   8.5643165  68.7723922 102.2454722
  13.6468771  71.5623981  93.5726796  13.5086669  71.7525577  92.6447985
  13.2904989  72.3243364  94.0294847   1.8110897  65.5482077  99.6523808
   2.4510276  65.4070836  98.9546772   0.9788427  65.2616590  99.2762410
  13.6738150  73.6300508  98.5838068  14.1074657  73.5375797  99.4321122
  14.3869731  73.6058009  97.9458084   2.5871201  74.8484507  95.7658801
   3.3811799  74.3534827  95.5641376   1.8762893  74.3202370  95.4026506
   7.4066045  77.2302602 100.1171168   7.4603067  77.7993539 100.8848884
   6.5380826  77.4004488  99.7525205  14.5353700  73.6724209 101.1170953
  14.7289590  74.5770020 101.3630228  14.4354318  73.2131628 101.9509538
   6.1890011  63.5582100 103.6161280   5.5417926  64.2572049 103.5225757
   6.9591026  63.9918244 103.9837529   9.5968808  73.8230952 106.6911834
   9.4454315  73.5941503 105.7741917   9.5873488  74.7801553 106.7043179
   6.3654145  71.3962865 101.6758100   7.2946205  71.5474024 101.5027067
   5.9445175  71.4846885 100.8206747   5.1642477  75.4213529  99.4456638
   5.0253562  75.0532313 100.3182576   4.3757073  75.9361168  99.2740596
   5.7590629  80.5222625  90.7882174   5.9342384  80.0510669  91.6027797
   5.0723417  81.1488392  91.0163435   6.7147692  74.7995132  96.8345476
   6.3797524  74.7595902  97.7303125   6.2151637  74.1339848  96.3615886
   0.6891936  70.2062762 102.3598057   0.5511734  69.4743000 102.9609596
   1.5996859  70.1171662 102.0782244   9.6506883  72.1451166  87.1082535
   9.0336054  71.4197994  87.0115588   9.1823372  72.9060526  86.7649609
   3.3174236  69.9182721 101.8481736   4.0273855  69.2775913 101.8068355
   3.2743545  70.1695616 102.7707917  11.3061015  76.8550074 104.7688316
  11.2473561  76.1709294 104.1018899  11.7080533  77.5969064 104.3168942
   2.0303170  66.9047939 103.6677376   1.4940527  66.4538677 104.3198972
   1.4419879  67.0393848 102.9247840   1.4405429  66.3636590  86.2303839
   0.5634896  66.2425391  85.8666086   1.9163182  65.5722669  85.9782728
  11.3078422  74.8189658 103.0002295  10.4205201  74.4815580 103.1228694
  11.8776973  74.0872689 103.2371061   4.8379576  79.4791111  99.9663538
   4.7649747  80.2846082 100.4782843   4.3956969  79.6783076  99.1411560
   4.6269355  78.7162881  93.4766360   3.8436877  79.2584561  93.5704584
   5.3262101  79.2336860  93.8760601   7.9366006  64.5257510  96.1200565
   8.4334705  63.7727472  95.8001636   7.1652987  64.5621827  95.5543775
  15.7895763  70.2297876  97.7618857  15.7785639  71.1122591  97.3912790
  14.9213142  69.8769426  97.5673394   7.2978259  79.3777945 102.1221697
   8.0106231  80.0125409 102.0497599   6.8068288  79.4741811 101.3061699
   9.0195786  73.2829197  93.6938989   8.0852065  73.4030660  93.5243693
   9.1972455  72.3801664  93.4298999   4.5200974  66.6674893  95.8472250
   4.1498762  66.1145933  96.5353156   5.0160067  66.0633027  95.2947250
  12.4068338  69.1246517  94.2289023  12.8728790  69.9574508  94.1549326
  12.8575838  68.6591498  94.9334281   2.3490173  77.1272388 102.9427268
   3.0499632  77.7608871 103.0956662   1.8785288  77.4687120 102.1822907
  10.4744569  75.4690338  91.2275175  10.7504413  75.3546932  92.1369049
   9.6049067  75.0707823  91.1887348  10.3785000  61.4927104  98.2679924
   9.4648080  61.7231330  98.4362131  10.8078102  61.5765548  99.1193957
  10.1491459  69.6816996 100.7679818   9.4962909  69.9292903 100.1132271
  10.5271839  68.8681134 100.4342296   7.1098633  79.7176689  94.8707989
   7.2921027  78.8998345  95.3335741   7.9331619  79.9344381  94.4332879
   7.4440798  78.6444874  92.1323037   7.9728565  78.1337328  91.5193199
   7.7069018  78.3287404  92.9968570   6.1979032  70.4236807 107.2545855
   5.5219669  70.3230936 107.9248231   7.0206666  70.2676020 107.7181853
   4.9401815  81.7303734 101.4903471   5.4920123  81.8935356 102.2552557
   5.2808008  82.3208172 100.8183496   9.7912689  76.5564992 107.3452126
  10.3352593  77.1694950 106.8507081   9.2099534  77.1144570 107.8619139
   8.0770202  79.6785710  98.4767154   7.9521341  78.8775449  97.9678099
   8.7349293  80.1731903  97.9881123  10.1405110  77.4794730 100.1046704
   9.1935446  77.3600081 100.0325030  10.4887883  76.5917228 100.1872965
   2.5004684  63.3688869 103.9284945   3.0239086  63.6151165 104.6911255
   2.2817017  64.2008903 103.5088083   7.1451544  77.2747446  96.3051056
   6.9976506  76.3464153  96.4858626   7.9705037  77.2967537  95.8208131
   1.0113788  65.9265513  92.1631548   1.3509860  66.4551434  91.4410156
   1.4585908  66.2645919  92.9390115  10.7485665  78.0976005  97.3915929
  11.6732213  77.8918866  97.2540380  10.5800969  77.8492406  98.3005270
   3.7057229  64.3102564 101.6134616   3.3654049  63.5110377 102.0155296
   2.9996235  64.6104275 101.0411449   4.3573701  61.3951876 100.0661939
   5.1799770  60.9212354  99.9440829   4.6011764  62.1742360 100.5660625
   2.9981935  64.4240135  90.3624841   3.7190298  64.8021387  89.8588558
   2.3747239  65.1429011  90.4659819   7.1413058  65.1285284  91.2983173
   7.3576672  66.0109921  90.9972001   6.6607125  64.7371497  90.5688815
   1.8812279  68.0870997  97.8753918   1.7356860  68.4011300  98.7678199
   1.4037483  68.7055897  97.3224816   3.7408662  65.0773545  97.9234807
   3.7270231  64.1814638  97.5867105   4.4581090  65.0844208  98.5573093
   5.5934793  65.5110885  99.9687935   5.3352571  66.4327956  99.9672265
   5.0619833  65.1141319 100.6588399  10.5380982  78.6161672  92.7478020
  10.7117859  78.0508095  91.9951872  11.0309873  79.4162567  92.5657510
   3.1445558  63.9587925  93.1922377   3.2661469  63.0304571  93.3913265
   2.8547601  63.9726611  92.2800693   6.0136749  61.6442835  96.3289097
   6.0358445  61.7082169  95.3741077   6.4304808  60.8047344  96.5229603
  16.3920373  71.3798095  94.3668320  16.8351519  70.6305420  93.9687443
  15.5146883  71.3708231  93.9842052  11.5256154  77.9328436  89.8474918
  12.2207059  78.5535129  90.0662233  11.8679304  77.0823788  90.1227296
  13.4247577  75.3828142  91.3762249  13.9498901  75.7215415  90.6511569
  13.3369930  74.4475157  91.1925384   5.0867626  79.2962216 103.5052126
   5.3954752  79.0511362 104.3774825   5.8843108  79.5008854 103.0170996
   5.1088238  81.4500125  95.7357502   4.6693228  80.9576504  96.4290359
   5.8596355  80.9073093  95.4949577   2.5562110  76.9938134  97.8079804
   1.9342119  76.3308839  97.5082032   3.2266977  77.0199266  97.1253452
   2.6286638  65.4719922 107.4012310   2.6774793  66.3482045 107.0190080
   3.1709152  64.9297315 106.8283953  13.1141483  76.0161046 106.6813447
  12.3237027  75.9985185 106.1417946  12.8774838  76.5549339 107.4362484
  13.2339358  72.8653512 103.9946176  13.2837363  72.7003519 104.9361698
  13.1253282  71.9980771 103.6044056   2.1175617  75.5442058  91.2838264
   2.2663737  76.2277522  90.6304937   2.9242061  75.5247148  91.7987720
  10.5243121  68.8484440 105.3105482  11.4252984  68.7090905 105.0189480
  10.5991095  69.0138895 106.2503660   4.8585926  66.2251295 104.1558669
   3.9889236  66.5184861 103.8841257   5.0945407  66.8091740 104.8765932
  14.7357555  75.2850454 104.2388197  14.4442364  75.6480434 105.0751658
  14.1229687  74.5717462 104.0601529  15.9353238  72.8503333  96.7590767
  16.7700129  73.2893137  96.9228328  16.0712366  72.3741987  95.9399013
  12.9844744  70.4083068 102.7068255  13.4598865  70.6010714 101.8987106
  12.0610309  70.4642254 102.4611639   7.5624960  62.4430912 101.6724089
   8.0806904  63.1791939 101.3470578   7.2080093  62.7494905 102.5070848
   7.8137554  58.8631194  97.1924986   8.0939308  58.1954383  97.8185412
   8.5988161  59.0560290  96.6799649   5.6171023  78.0390188  88.7550012
   5.0444990  78.6580375  88.3020484   6.1903816  78.5889550  89.2889934
  11.6846413  67.2848828 100.9396561  12.6363835  67.3846926 100.9608785
  11.5149863  66.4927097 101.4494645   9.7060792  64.3704411 101.1255962
   9.1110724  64.6509424 100.4302450   9.4210489  64.8598312 101.8972703
   8.8368282  78.3227338  89.8858594   9.7698956  78.2572900  90.0891470
   8.7491495  79.1583605  89.4273127  11.4656299  77.6393209  86.8462542
  11.3869931  77.3053072  87.7398300  12.2865966  78.1314977  86.8454014
  14.1634490  70.5054948 100.0538860  14.1310810  69.5670949 100.2398544
  14.7735114  70.5838985  99.3204685   6.0017821  69.3751001  86.0966064
   6.9476926  69.2457209  86.1654482   5.6232066  68.6365663  86.5735493
  14.3128979  67.2965991 100.0997144  13.7968027  66.5124448  99.9127072
  15.1968927  66.9684708 100.2643663  11.9739706  61.0407007  96.0592956
  11.7764527  60.7322095  96.9436288  12.5839411  61.7668646  96.1890886
  19.9811040  71.5670955  99.1944897  20.7114429  71.3056243  99.7552600
  19.3717986  70.8299677  99.2346965  18.0626337  69.7078817  99.7919348
  17.3359501  69.5734782  99.1835840  17.6473624  70.0155646 100.5976066
   5.8856514  73.4268747 107.5566721   6.8059523  73.6047346 107.7506768
   5.8506097  72.4824792 107.4046421   4.1860738  67.3000977  86.0320950
   3.2792194  67.0034090  86.1083663   4.4636719  67.0030795  85.1655236
   5.8022804  61.8437867  92.1865191   4.9923532  61.4984952  92.5620437
   6.4907221  61.5345411  92.7752802   7.7313352  60.9215914  93.8089488
   8.2844391  61.3411367  94.4679511   7.9683439  59.9951662  93.8512444
   3.7546452  66.9102987 109.5892251   3.6543178  67.8597344 109.5204343
   3.5367994  66.5821226 108.7168322   2.9559523  64.1587913  86.1732929
   3.8178687  64.4842811  86.4328746   3.1409867  63.3719408  85.6605995
  11.1092159  63.0316439  93.3168152  10.5290828  63.6901243  92.9346204
  10.8428092  62.2093784  92.9055569   9.5595726  62.4321497  95.5189472
  10.0595504  62.5438031  94.7103791  10.2031334  62.1282550  96.1590281
   3.6177722  70.3400126 108.4057313   3.1344803  71.1400486 108.6121202
   3.7038661  70.3508071 107.4524757   9.8917037  65.1916529  92.3724500
   9.0042892  65.4766180  92.1544695  10.3071026  65.0310293  91.5251777
  13.2431574  65.2163050  96.0878839  14.0191964  65.7059503  96.3603456
  12.5179708  65.6421105  96.5450709  15.6804132  65.9290670  97.1452780
  16.2748623  65.6886406  96.4346088  15.7530716  65.2097800  97.7726316
   9.0360251  74.9561204  86.4672520   9.7396101  75.1611207  87.0830176
   8.3122900  75.5237966  86.7321604   9.8658061  70.7071065  92.5874790
   9.8093263  71.1639617  91.7482423  10.4186404  69.9461750  92.4097633
  13.6762867  66.4960797  93.4124910  13.4199801  66.0957433  94.2433117
  13.0515735  67.2104591  93.2875049  17.9875205  69.2356870  95.9196201
  17.4274763  69.3050060  96.6927763  17.3818708  69.0597855  95.1995697
  10.9446948  75.3943733  88.5170980  11.7792552  74.9624932  88.3348455
  10.7831291  75.2225747  89.4447875  10.5992840  71.8975847  89.8827319
  10.5441644  71.7320118  88.9415764   9.9738896  72.6051879  90.0389509
   7.9138748  74.2024758 109.2080882   8.7829907  74.3765411 108.8467517
   7.4345499  75.0219175 109.0856612   3.9088966  61.3983956  89.4612638
   3.8967636  62.3425795  89.6180909   4.8012388  61.2154101  89.1672099
   2.0824928  81.3221859 100.8870316   2.9852175  81.3545470 101.2036811
   1.8562298  80.3922310 100.9016652   3.8378530  80.0752846  97.5480394
   2.8874161  80.0754708  97.4344767   4.1411016  79.3285581  97.0316429
   7.7241085  57.9926732  93.7158575   6.9573481  57.4385219  93.8615257
   8.1351790  58.0648601  94.5772726  19.5731223  85.9113384  98.6126157
  20.2109633  85.7920132  97.9089497  19.4552066  86.8594228  98.6714109
  16.3820930  85.8640812  98.5487682  16.0439441  85.7481877  97.6608216
  17.2510698  85.4631978  98.5288688  12.2407745  87.7176289  94.5384572
  11.6772610  87.6266226  93.7700860  12.1260140  86.8976193  95.0187065
  16.8640713  87.0175664 104.5073887  16.8529353  86.6228462 103.6354391
  17.0261352  86.2841737 105.1007659   9.7872177  89.2127480  97.3768793
  10.5793469  88.8718305  96.9615092  10.0268827  89.3222456  98.2970946
  17.8207304  91.3847257  89.8499037  17.1695284  91.9701337  89.4633051
  18.6151667  91.9153451  89.9094075  11.7462931  88.4736394  90.2486172
  12.5193807  87.9265381  90.1099048  12.0988330  89.3380643  90.4600633
  13.5847974  89.8012776 103.4553071  13.2937840  90.7058407 103.3399737
  14.2204958  89.8429304 104.1697141  14.5104181  87.1789625 100.0454431
  15.1067753  86.9545647  99.3311394  14.5679152  86.4374370 100.6479879
  14.0829209  84.6329060  87.8804622  14.3354730  84.1110581  87.1188085
  13.1453768  84.4695205  87.9831305  19.1272492  83.6364838  95.6879365
  19.9135581  83.2184261  95.3369782  19.3911196  84.5410930  95.8561013
  19.2982569  89.0737689  90.3868022  18.6628402  89.1472315  91.0988926
  18.9679976  89.6631287  89.7087101  24.5280919  83.5740071  96.5912343
  25.2606091  83.0039288  96.8250173  23.7720275  83.1861672  97.0318849
  13.8025498  86.5357166  90.0828997  13.6861756  85.8602069  90.7510081
  13.9127758  86.0489540  89.2661150  16.1457039  85.9967313  93.7875686
  15.7815246  85.4697934  94.4988607  17.0024155  85.6065782  93.6142171
  22.0506339  77.2861646 101.0506952  21.7189664  78.1557056 100.8268167
  21.4551953  76.9697930 101.7300982  15.7862526  81.0257213  88.7837034
  15.9536928  81.8937449  89.1507505  15.5959695  81.1884494  87.8598324
  18.5437859  89.4874192 100.4502865  18.2438582  90.3899230 100.3418672
  18.1988918  89.2206375 101.3024018  11.9950340  85.9387988  96.4839569
  11.0700837  85.8064202  96.6917261  12.2434754  86.7182208  96.9809512
  21.9435003  82.0056732  98.1300302  21.0351880  81.9372140  97.8359063
  21.8922598  82.4828677  98.9582128  15.7651747  83.4814870  89.7683701
  15.6451372  83.9271921  90.6069181  15.0704335  83.8300188  89.2097239
   9.3559151  85.5821262  97.3183358   9.4851533  85.8355741  98.2322770
   8.6756603  86.1748970  96.9988013  13.5258639  96.2518512  93.4173832
  13.4482668  97.2026337  93.4962313  12.9220282  95.9064384  94.0748759
  16.0175868  83.4246377 106.0735199  15.2409203  83.9840297 106.0638064
  16.6566432  83.9103160 106.5950069  23.8096649  80.2073170  99.9078176
  23.1671029  80.5005703  99.2617971  23.3051578  80.0926090 100.7131373
  21.4636813  83.9536343  90.5964035  22.3754669  84.1863730  90.4211733
  20.9546460  84.5373387  90.0339114  14.2722241  86.2331831 105.6353166
  15.0136925  86.7716875 105.3587990  13.5659226  86.8598119 105.7924718
  19.7477580  88.3760971 104.2325328  20.1560936  87.9343382 103.4879960
  19.0254842  87.8013599 104.4859521  16.1008650  83.3133578 101.6058885
  16.9469846  83.7372991 101.7493534  16.0407288  82.6567202 102.2997448
  20.0706395  88.9362162  97.9877617  19.4415257  89.1007876  97.2853685
  19.6832057  89.3503771  98.7588581  23.9495627  89.8716600  95.3421980
  23.2646665  90.2515501  94.7919014  24.0339476  90.4811926  96.0753928
  19.2508096  80.9737946 103.2640058  19.0069028  81.7280007 102.7274334
  19.5268026  81.3523294 104.0987305  21.2046559  87.5176559 101.9417324
  21.4163454  88.1608318 101.2651705  21.1576307  86.6838875 101.4739254
  18.8072788  80.1294379  98.8453896  17.9457267  80.4275633  99.1370634
  18.8335222  80.3464778  97.9134929  15.6234357  88.6736570  95.2527702
  16.0872702  88.9524273  94.4632324  15.3591155  87.7720014  95.0700792
  12.5158438  88.2208051  98.1907465  13.0859795  88.6495320  97.5524950
  13.1066550  87.9390636  98.8891651  14.5603243  84.7959722  92.0617267
  15.2627286  85.2480766  92.5291193  14.2283871  84.1543541  92.6897160
  13.0083605  83.3871479 106.4368476  12.3782265  84.0687760 106.6703873
  12.9019692  83.2754560 105.4921615   8.3028577  83.0543275  97.3634401
   7.5127631  83.3100803  96.8874511   8.7939824  83.8691613  97.4686441
  22.3192386  90.3948514 100.1139681  23.1409830  89.9928701  99.8322363
  22.3154789  90.2916748 101.0655797  10.2543322  83.4187854  94.3217877
   9.4574486  83.5306548  94.8401373  10.0268915  83.7574506  93.4558768
  16.0848990  89.9432557 102.2700392  16.1493422  90.4052965 103.1058564
  15.3759914  89.3129922 102.3982702   6.5866280  83.3073765  99.7949391
   6.8374318  84.1920775 100.0606967   7.1225828  83.1278367  99.0224483
  30.4098380  86.7387263  96.4624653  29.6562088  86.1694661  96.3068657
  30.5445921  86.7049927  97.4095287  15.7997008  91.6100665  92.1379372
  15.6642682  92.4552201  92.5664220  16.3406820  91.8119942  91.3745306
  12.2864347  77.6892245 108.7993727  11.8931293  77.1358443 109.4741372
  13.1030488  78.0002823 109.1900245   9.2526405  89.1276103  92.7107297
   9.7650926  89.9219353  92.8612862   9.9049118  88.4302393  92.6440899
  11.0621290  92.2441859  94.7930050  11.2387918  93.1659824  94.6051034
  11.8578123  91.9300278  95.2224430  15.2032308  79.1050124 106.3913984
  15.9442022  79.7057277 106.3118446  15.4350231  78.3627762 105.8332027
  10.3473646  84.2906491 104.6692214  10.2327161  83.3891748 104.9699313
   9.4918164  84.5370188 104.3177030  17.4265484  92.2324231 106.2679714
  16.9829338  91.4460610 105.9500619  18.0882698  92.4203382 105.6023605
  12.1852605  93.7620033 100.7940393  12.7360030  93.6337096 100.0217387
  11.3464081  94.0614922 100.4435286  19.5246722  92.5127031 104.2961116
  19.5065197  93.3335912 103.8041385  20.4466642  92.3881106 104.5211257
  15.9819776  90.0271161 105.1384624  16.5148113  89.2659449 104.9083932
  15.4533857  89.7344813 105.8808778  19.1489471  75.1331227 100.6678266
  18.8053741  76.0232868 100.5917376  19.5168434  74.9432884  99.8047851
   7.2175322  87.4564757  93.4866868   8.0550544  87.8661766  93.2700575
   7.3953589  86.5164199  93.4567062  19.1139754  85.1239838  89.1750701
  18.5986377  85.8944442  89.4139088  18.8417062  84.4504974  89.7983762
  16.6986865  79.9689539  94.2335939  15.8428461  79.5796389  94.0541578
  17.1113817  80.0481499  93.3735725  18.2286012  77.5035882  98.6327499
  17.7250807  77.4666017  97.8195304  18.5216618  78.4128625  98.6924156
  14.4728897  77.5874612  97.6393681  15.3381894  77.3917420  97.2799570
  14.5406406  77.3584963  98.5663037  24.0874028  87.8772192  91.1103874
  23.3103471  87.5383352  90.6659036  24.7665509  87.8824816  90.4358839
  18.9026057  82.9966930  91.0010482  18.5976193  83.3113079  91.8520625
  19.8556499  83.0748350  91.0437815  17.3472489  89.1557153  92.6503436
  16.8193850  88.4209913  92.3376673  16.8459992  89.9331830  92.4043404
  22.3265335  87.3506174  97.7670482  21.6689009  88.0405435  97.8550611
  23.1305734  87.7402606  98.1104469  12.0791217  79.8176819  95.0110047
  12.6534968  79.5952001  94.2783240  12.6662199  79.8865514  95.7638649
  21.1370794  85.7050546  95.8174424  21.6502675  86.3380538  96.3196134
  21.7872018  85.1051742  95.4517784  12.4060804  81.8481281  89.0305933
  11.5698116  82.1855967  89.3515207  12.2665573  81.7130260  88.0933070
  14.3813884  76.6918068  93.7385117  13.7278297  76.3767086  93.1141732
  14.3394358  76.0693809  94.4644940  15.4925089  86.9737363  85.6538409
  14.5852151  86.7426617  85.8529558  15.9896121  86.1774983  85.8412390
  18.3993168  95.6834871  88.5735095  17.7254867  95.9866567  89.1820053
  18.7858990  96.4863951  88.2240552  17.6151625  83.1800002  98.0632764
  16.6974186  83.4014949  97.9054453  18.0311768  83.2546312  97.2044472
  18.3986672  84.5791418  93.1935445  19.1458491  85.0912815  92.8842567
  18.6678262  84.2575470  94.0539838  16.6713323  87.0749958  90.1762399
  15.7624542  86.7908991  90.2734869  16.7008406  87.4949037  89.3165706
  21.9032590  90.6856548  93.9453567  21.4494917  89.8447458  94.0018757
  21.2726557  91.3217946  94.2828347  20.8465510  81.6148534  95.1754234
  20.1088266  81.1025920  95.5064477  21.0992283  81.1748915  94.3637511
  20.3465529  92.5233045  94.8803385  20.6388504  93.0838102  94.1615750
  20.8564150  92.8161606  95.6356544  20.9477137  74.3924786  95.7696003
  21.2536014  73.5322149  95.4821918  21.6729742  74.9842406  95.5694997
   7.2401493  84.7955472  94.1577601   7.0425893  84.2024833  93.4328668
   6.6848157  84.4907683  94.8753540  15.2198217  84.6878579  96.2772194
  15.2746826  83.7352415  96.2014671  14.4089419  84.8438018  96.7613493
  16.3689410  88.6158702  87.5150478  15.9308840  87.8994561  87.0556115
  17.1099851  88.8434817  86.9535569  13.1590576  83.3055639  94.0362573
  12.3458442  83.6049809  94.4427765  13.6549571  82.9111327  94.7537055
  15.3099154  93.3013396  95.9696838  15.2675333  93.5274242  95.0405370
  16.2261853  93.0676770  96.1182639  18.7564788  83.7697463 102.8677467
  19.1114176  83.9968936 103.7271933  19.4036919  84.1015840 102.2454722
  24.4862525  86.8915899  93.5726796  24.3480424  87.0817495  92.6447985
  24.1298744  87.6535282  94.0294847  12.6504651  80.8773994  99.6523808
  13.2904031  80.7362753  98.9546772  11.8182182  80.5908508  99.2762410
  24.5131905  88.9592426  98.5838068  24.9468411  88.8667715  99.4321122
  25.2263485  88.9349927  97.9458084  13.4264955  90.1776425  95.7658801
  14.2205554  89.6826745  95.5641376  12.7156648  89.6494288  95.4026506
  18.2459800  92.5594520 100.1171168  18.2996822  93.1285456 100.8848884
  17.3774581  92.7296405  99.7525205   9.7347719  84.3219506  91.8418553
   8.8045307  84.2603962  92.0588515   9.8305191  83.7995459  91.0455195
   9.6533268  80.8474319  94.4296795   9.9140085  81.7619652  94.3205955
  10.4750440  80.3798762  94.5793408  11.1258193  82.2612076 101.5995620
  11.7981246  82.0529439 100.9508268  10.2987980  82.0634162 101.1600852
  25.3747454  89.0016127 101.1170953  25.5683344  89.9061937 101.3630228
  25.2748072  88.5423546 101.9509538  17.0283765  78.8874017 103.6161280
  16.3811680  79.5863967 103.5225757  17.7984780  79.3210161 103.9837529
  20.4362563  89.1522869 106.6911834  20.2848069  88.9233421 105.7741917
  20.4267242  90.1093471 106.7043179  17.2047899  86.7254782 101.6758100
  18.1339959  86.8765942 101.5027067  16.7838929  86.8138803 100.8206747
  16.0036231  90.7505447  99.4456638  15.8647317  90.3824231 100.3182576
  15.2150827  91.2653086  99.2740596  16.5984383  95.8514543  90.7882174
  16.7736139  95.3802586  91.6027797  15.9117171  96.4780309  91.0163435
  17.5541446  90.1287049  96.8345476  17.2191279  90.0887819  97.7303125
  17.0545392  89.4631765  96.3615886  11.5285690  85.5354679 102.3598057
  11.3905488  84.8034918 102.9609596  12.4390614  85.4463579 102.0782244
  20.4900638  87.4743084  87.1082535  19.8729809  86.7489912  87.0115588
  20.0217126  88.2352444  86.7649609  14.1567991  85.2474639 101.8481736
  14.8667609  84.6067831 101.8068355  14.1137299  85.4987534 102.7707917
  22.1454770  92.1841992 104.7688316  22.0867316  91.5001212 104.1018899
  22.5474288  92.9260982 104.3168942  12.8696925  82.2339857 103.6677376
  12.3334282  81.7830595 104.3198972  12.2813633  82.3685765 102.9247840
  11.1645468  99.0003906  97.5622034  11.4042067  99.6322430  98.2401053
  10.3214665  98.6491946  97.8487394  12.2799184  81.6928508  86.2303839
  11.4028650  81.5717309  85.8666086  12.7556937  80.9014586  85.9782728
  22.1472177  90.1481576 103.0002295  21.2598956  89.8107498 103.1228694
  22.7170728  89.4164607 103.2371061   3.8001324  86.4805668  96.3245347
   4.4872364  86.1667398  95.7366362   3.6449453  87.3847032  96.0512598
   8.6036046  81.3695864 100.7530370   8.5194235  80.7621534 100.0180780
   7.7818753  81.8604883 100.7539867  15.6773330  94.8083028  99.9663538
  15.6043502  95.6138000 100.4782843  15.2350723  95.0074994  99.1411560
  15.4663110  94.0454798  93.4766360  14.6830632  94.5876479  93.5704584
  16.1655855  94.5628778  93.8760601  18.7759760  79.8549428  96.1200565
  19.2728460  79.1019390  95.8001636  18.0046742  79.8913744  95.5543775
  26.6289517  85.5589793  97.7618857  26.6179394  86.4414509  97.3912790
  25.7606897  85.2061344  97.5673394  18.1372014  94.7069862 102.1221697
  18.8499986  95.3417327 102.0497599  17.6462042  94.8033728 101.3061699
  19.8589541  88.6121115  93.6938989  18.9245819  88.7322577  93.5243693
  20.0366209  87.7093582  93.4298999  15.3594729  81.9966811  95.8472250
  14.9892516  81.4437851  96.5353156  15.8553821  81.3924944  95.2947250
  23.2462092  84.4538434  94.2289023  23.7122544  85.2866426  94.1549326
  23.6969593  83.9883416  94.9334281  13.1883927  92.4564306 102.9427268
  13.8893387  93.0900789 103.0956662  12.7179042  92.7979037 102.1822907
  21.3138323  90.7982256  91.2275175  21.5898167  90.6838850  92.1369049
  20.4442822  90.3999740  91.1887348  21.2178755  76.8219021  98.2679924
  20.3041835  77.0523248  98.4362131  21.6471856  76.9057465  99.1193957
  20.9885213  85.0108913 100.7679818  20.3356664  85.2584821 100.1132271
  21.3665593  84.1973051 100.4342296  17.9492387  95.0468606  94.8707989
  18.1314782  94.2290262  95.3335741  18.7725373  95.2636299  94.4332879
  18.2834553  93.9736792  92.1323037  18.8122319  93.4629246  91.5193199
  18.5462772  93.6579322  92.9968570  17.0372786  85.7528724 107.2545855
  16.3613423  85.6522854 107.9248231  17.8600420  85.5967938 107.7181853
   8.7851645  91.9900661  99.8758371   9.3705082  91.2444349 100.0086275
   8.5876484  92.3004618 100.7595034  11.6390301  95.0251908  94.8920813
  10.9700676  95.5098036  94.4084853  11.5003170  95.2721129  95.8064192
   3.3769300  84.5606261  98.5962814   3.4153400  84.0269852  99.3899932
   2.8709593  84.0341467  97.9773791  15.7795569  97.0595652 101.4903471
  16.3313877  97.2227273 102.2552557  16.1201763  97.6500090 100.8183496
  10.7560062  79.4070802 102.0925356  10.8201389  80.2685632 101.6802754
  10.6927183  78.7944803 101.3597715  10.2312335  81.4793934 105.7398390
  10.8584374  81.0971011 106.3535915   9.3740254  81.2608136 106.1054083
  20.6306444  91.8856909 107.3452126  21.1746347  92.4986868 106.8507081
  20.0493288  92.4436488 107.8619139   7.0077878  83.2870363  91.6716745
   7.3031319  82.3781042  91.6183799   6.1065913  83.2658103  91.3497747
  18.9163956  95.0077627  98.4767154  18.7915096  94.2067367  97.9678099
  19.5743048  95.5023821  97.9881123  10.5372125  81.3626360  97.6544294
   9.8158710  81.9762327  97.5151767  11.3265380  81.8984125  97.5760940
  20.9798865  92.8086647 100.1046704  20.0329200  92.6891999 100.0325030
  21.3281638  91.9209145 100.1872965  13.3398438  78.6980786 103.9284945
  13.8632840  78.9443083 104.6911255  13.1210771  79.5300821 103.5088083
   8.7365719  80.9684461  91.7956070   8.4078425  80.0881840  91.6131176
   9.0905090  80.9132130  92.6832460  17.9845298  92.6039364  96.3051056
  17.8370261  91.6756071  96.4858626  18.8098792  92.6259454  95.8208131
  11.8507542  81.2557431  92.1631548  12.1903615  81.7843352  91.4410156
  12.2979663  81.5937837  92.9390115  21.5879420  93.4267922  97.3915929
  22.5125967  93.2210784  97.2540380  21.4194723  93.1784323  98.3005270
  14.5450983  79.6394481 101.6134616  14.2047804  78.8402294 102.0155296
  13.8389990  79.9396192 101.0411449  15.1967455  76.7243794 100.0661939
  16.0193524  76.2504272  99.9440829  15.4405519  77.5034278 100.5660625
  13.8375690  79.7532052  90.3624841  14.5584052  80.1313305  89.8588558
  13.2140994  80.4720929  90.4659819  17.9806812  80.4577201  91.2983173
  18.1970427  81.3401839  90.9972001  17.5000880  80.0663415  90.5688815
  12.7206034  83.4162914  97.8753918  12.5750615  83.7303218  98.7678199
  12.2431237  84.0347815  97.3224816  14.5802417  80.4065462  97.9234807
  14.5663985  79.5106556  97.5867105  15.2974845  80.4136126  98.5573093
  16.4328547  80.8402803  99.9687935  16.1746325  81.7619873  99.9672265
  15.9013588  80.4433237 100.6588399  21.3774736  93.9453590  92.7478020
  21.5511614  93.3800012  91.9951872  21.8703627  94.7454485  92.5657510
   7.1951696  85.9568259 100.8141579   6.6505164  86.7328067 100.9461853
   8.0731046  86.3039063 100.6560700  13.9839313  79.2879843  93.1922377
  14.1055224  78.3596489  93.3913265  13.6941355  79.3018529  92.2800693
  16.8530503  76.9734753  96.3289097  16.8752200  77.0374086  95.3741077
  17.2698562  76.1339262  96.5229603  27.2314127  86.7090013  94.3668320
  27.6745273  85.9597338  93.9687443  26.3540638  86.7000149  93.9842052
  22.3649909  93.2620354  89.8474918  23.0600813  93.8827047  90.0662233
  22.7073059  92.4115705  90.1227296   7.9817718  85.0838155 103.7071736
   7.2399454  85.2320790 104.2936366   7.6610462  85.3446421 102.8438485
  24.2641332  90.7120060  91.3762249  24.7892656  91.0507332  90.6511569
  24.1763684  89.7767075  91.1925384  15.9261381  94.6254133 103.5052126
  16.2348507  94.3803280 104.3774825  16.7236863  94.8300772 103.0170996
  15.9481993  96.7792043  95.7357502  15.5086983  96.2868422  96.4290359
  16.6990110  96.2365011  95.4949577   8.4274332  92.9703584  95.7382130
   9.2532351  92.6707356  95.3580774   8.0768384  92.2011206  96.1871919
  13.3955865  92.3230052  97.8079804  12.7735874  91.6600757  97.5082032
  14.0660732  92.3491184  97.1253452   6.6282937  90.8889910  96.6971064
   5.7914845  90.4612085  96.5155065   6.6006582  91.0822354  97.6341855
  13.4680392  80.8011840 107.4012310  13.5168548  81.6773963 107.0190080
  14.0102906  80.2589233 106.8283953  23.9535238  91.3452963 106.6813447
  23.1630782  91.3277102 106.1417946  23.7168592  91.8841257 107.4362484
  24.0733113  88.1945430 103.9946176  24.1231118  88.0295437 104.9361698
  23.9647036  87.3272689 103.6044056  12.9569372  90.8733975  91.2838264
  13.1057492  91.5569440  90.6304937  13.7635815  90.8539065  91.7987720
  21.3636875  84.1776358 105.3105482  22.2646738  84.0382823 105.0189480
  21.4384850  84.3430813 106.2503660  15.6979681  81.5543212 104.1558669
  14.8282990  81.8476779 103.8841257  15.9339161  82.1383657 104.8765932
  25.5751310  90.6142371 104.2388197  25.2836118  90.9772352 105.0751658
  24.9623441  89.9009380 104.0601529  26.7746992  88.1795251  96.7590767
  27.6093883  88.6185055  96.9228328  26.9106121  87.7033904  95.9399013
  23.8238498  85.7374986 102.7068255  24.2992620  85.9302632 101.8987106
  22.9004063  85.7934172 102.4611639  10.7122005  86.8999153  92.2899333
  10.4668047  85.9961483  92.4879544  10.8817919  86.9016303  91.3478811
  18.4018714  77.7722829 101.6724089  18.9200658  78.5083856 101.3470578
  18.0473847  78.0786823 102.5070848   9.9817652  82.6327511  89.7885495
   9.2886897  82.7071866  89.1325531   9.7369404  81.8687854  90.3107012
  18.6531309  74.1923112  97.1924986  18.9333062  73.5246301  97.8185412
  19.4381916  74.3852208  96.6799649  16.4564777  93.3682106  88.7550012
  15.8838744  93.9872293  88.3020484  17.0297571  93.9181468  89.2889934
  22.5240167  82.6140746 100.9396561  23.4757590  82.7138844 100.9608785
  22.3543617  81.8219014 101.4494645  20.5454546  79.6996329 101.1255962
  19.9504479  79.9801342 100.4302450  20.2604243  80.1890230 101.8972703
  19.6762037  93.6519256  89.8858594  20.6092710  93.5864818  90.0891470
  19.5885250  94.4875523  89.4273127  22.3050054  92.9685126  86.8462542
  22.2263685  92.6344990  87.7398300  23.1259720  93.4606894  86.8454014
  25.0028245  85.8346866 100.0538860  24.9704565  84.8962866 100.2398544
  25.6128868  85.9130902  99.3204685  16.8411576  84.7042919  86.0966064
  17.7870680  84.5749127  86.1654482  16.4625821  83.9657581  86.5735493
  25.1522733  82.6257909 100.0997144  24.6361782  81.8416366  99.9127072
  26.0362682  82.2976626 100.2643663  22.8133460  76.3698925  96.0592956
  22.6158281  76.0614013  96.9436288  23.4233166  77.0960564  96.1890886
  30.8204795  86.8962872  99.1944897  31.5508183  86.6348161  99.7552600
  30.2111740  86.1591594  99.2346965  28.9020092  85.0370735  99.7919348
  28.1753255  84.9026700  99.1835840  28.4867379  85.3447564 100.5976066
  16.7250268  88.7560665 107.5566721  17.6453278  88.9339264 107.7506768
  16.6899851  87.8116710 107.4046421  15.0254493  82.6292895  86.0320950
  14.1185948  82.3326008  86.1083663  15.3030474  82.3322713  85.1655236
   5.9432433  83.9499258  96.4819996   5.6235218  83.0964567  96.1894370
   5.3965861  84.1647837  97.2377963   9.7212341  86.6661699 100.1989503
   9.9398350  87.5978807 100.2177536  10.1338115  86.3069674 100.9844306
  16.6416559  77.1729785  92.1865191  15.8317287  76.8276870  92.5620437
  17.3300975  76.8637328  92.7752802  18.5707107  76.2507832  93.8089488
  19.1238145  76.6703285  94.4679511  18.8077193  75.3243580  93.8512444
  14.5940206  82.2394905 109.5892251  14.4936933  83.1889262 109.5204343
  14.3761748  81.9113144 108.7168322  13.7953277  79.4879830  86.1732929
  14.6572441  79.8134729  86.4328746  13.9803622  78.7011326  85.6605995
   5.8120693  87.5702170  98.4513118   5.1184165  87.1556123  97.9383072
   6.5593684  87.6122706  97.8546536  21.9485914  78.3608357  93.3168152
  21.3684583  79.0193161  92.9346204  21.6821847  77.5385701  92.9055569
  20.3989480  77.7613414  95.5189472  20.8989259  77.8729949  94.7103791
  21.0425088  77.4574467  96.1590281  14.4571476  85.6692044 108.4057313
  13.9738558  86.4692404 108.6121202  14.5432415  85.6799989 107.4524757
   7.7257436  87.5020424  96.3279132   7.7028124  87.6008111  95.3761016
   8.0358072  88.3485574  96.6496299  10.3844814  89.5596579 100.4425747
  11.3388067  89.5280521 100.3755678  10.1857337  89.0987202 101.2575973
  10.9744196  88.1297695 103.0096545  11.7937085  88.6241773 103.0331382
  11.2481003  87.2129663 102.9814112  20.7310792  80.5208447  92.3724500
  19.8436647  80.8058098  92.1544695  21.1464781  80.3602210  91.5251777
  24.0825328  80.5454968  96.0878839  24.8585718  81.0351420  96.3603456
  23.3573462  80.9713022  96.5450709  26.5197887  81.2582587  97.1452780
  27.1142377  81.0178323  96.4346088  26.5924470  80.5389718  97.7726316
   8.7395042  95.1016198  97.4595945   8.6049510  94.3416599  96.8933943
   8.3227105  95.8257098  96.9924734  19.8754005  90.2853122  86.4672520
  20.5789855  90.4903124  87.0830176  19.1516654  90.8529884  86.7321604
  20.7051816  86.0362983  92.5874790  20.6487017  86.4931534  91.7482423
  21.2580158  85.2753668  92.4097633  24.5156622  81.8252715  93.4124910
  24.2593556  81.4249351  94.2433117  23.8909490  82.5396509  93.2875049
  28.8268959  84.5648788  95.9196201  28.2668517  84.6341977  96.6927763
  28.2212463  84.3889773  95.1995697  11.8964168  95.9985515  97.6714387
  11.7796552  96.9430948  97.5693078  11.0756615  95.6959077  98.0600187
  21.7840703  90.7235651  88.5170980  22.6186307  90.2916849  88.3348455
  21.6225046  90.5517665  89.4447875  21.4386595  87.2267764  89.8827319
  21.3835399  87.0612036  88.9415764  20.8132650  87.9343797  90.0389509
   6.2279110  82.4635829 103.7088742   6.8737974  81.9534783 104.1975967
   6.0196261  83.2004510 104.2832167  18.7532502  89.5316676 109.2080882
  19.6223662  89.7057328 108.8467517  18.2739254  90.3511093 109.0856612
  14.7482720  76.7275873  89.4612638  14.7361390  77.6717713  89.6180909
  15.6406142  76.5446019  89.1672099  12.9218682  96.6513777 100.8870316
  13.8245929  96.6837387 101.2036811  12.6956052  95.7214228 100.9016652
  14.6772284  95.4044764  97.5480394  13.7267915  95.4046625  97.4344767
  14.9804771  94.6577498  97.0316429  18.5634840  73.3218650  93.7158575
  17.7967236  72.7677137  93.8615257  18.9745545  73.3940519  94.5772726
  10.5676601  79.6103446 107.8063756  11.4308063  79.2540251 108.0167080
   9.9942012  79.2717341 108.4939160  30.4124978 101.2405302  98.6126157
  31.0503388 101.1212049  97.9089497  30.2945821 102.1886146  98.6714109
  27.2214684 101.1932730  98.5487682  26.8833196 101.0773795  97.6608216
  28.0904452 100.7923895  98.5288688  23.0801500 103.0468207  94.5384572
  22.5166365 102.9558143  93.7700860  22.9653895 102.2268111  95.0187065
  27.7034467 102.3467582 104.5073887  27.6923108 101.9520380 103.6354391
  27.8655107 101.6133654 105.1007659  20.6265932 104.5419398  97.3768793
  21.4187224 104.2010223  96.9615092  20.8662582 104.6514373  98.2970946
  28.6601059 106.7139174  89.8499037  28.0089038 107.2993255  89.4633051
  29.4545421 107.2445369  89.9094075  22.5856686 103.8028311  90.2486172
  23.3587562 103.2557298  90.1099048  22.9382085 104.6672561  90.4600633
  24.4241728 105.1304694 103.4553071  24.1331594 106.0350325 103.3399737
  25.0598713 105.1721221 104.1697141  25.3497935 102.5081542 100.0454431
  25.9461507 102.2837565  99.3311394  25.4072907 101.7666288 100.6479879
  24.9222964  99.9620978  87.8804622  25.1748484  99.4402499  87.1188085
  23.9847523  99.7987123  87.9831305  29.9666246  98.9656756  95.6879365
  30.7529336  98.5476179  95.3369782  30.2304951  99.8702848  95.8561013
  30.1376324 104.4029606  90.3868022  29.5022157 104.4764233  91.0988926
  29.8073730 104.9923205  89.7087101  35.3674673  98.9031989  96.5912343
  36.0999845  98.3331206  96.8250173  34.6114029  98.5153590  97.0318849
  24.6419252 101.8649083  90.0828997  24.5255510 101.1893987  90.7510081
  24.7521512 101.3781457  89.2661150  26.9850793 101.3259231  93.7875686
  26.6209000 100.7989852  94.4988607  27.8417909 100.9357700  93.6142171
  32.8900094  92.6153563 101.0506952  32.5583419  93.4848974 100.8268167
  32.2945707  92.2989847 101.7300982  26.6256280  96.3549130  88.7837034
  26.7930683  97.2229367  89.1507505  26.4353449  96.5176412  87.8598324
  29.3831613 104.8166109 100.4502865  29.0832336 105.7191148 100.3418672
  29.0382673 104.5498292 101.3024018  22.8344095 101.2679906  96.4839569
  21.9094591 101.1356120  96.6917261  23.0828508 102.0474125  96.9809512
  32.7828757  97.3348649  98.1300302  31.8745634  97.2664058  97.8359063
  32.7316353  97.8120594  98.9582128  26.6045501  98.8106788  89.7683701
  26.4845126  99.2563839  90.6069181  25.9098089  99.1592105  89.2097239
  20.1952906 100.9113180  97.3183358  20.3245287 101.1647659  98.2322770
  19.5150357 101.5040888  96.9988013  24.3652393 111.5810430  93.4173832
  24.2876423 112.5318255  93.4962313  23.7614037 111.2356302  94.0748759
  26.8569623  98.7538295 106.0735199  26.0802957  99.3132215 106.0638064
  27.4960186  99.2395078 106.5950069  34.6490404  95.5365088  99.9078176
  34.0064784  95.8297621  99.2617971  34.1445332  95.4218008 100.7131373
  32.3030567  99.2828261  90.5964035  33.2148423  99.5155648  90.4211733
  31.7940214  99.8665305  90.0339114  25.1115995 101.5623748 105.6353166
  25.8530680 102.1008792 105.3587990  24.4052981 102.1890037 105.7924718
  30.5871335 103.7052889 104.2325328  30.9954691 103.2635299 103.4879960
  29.8648596 103.1305516 104.4859521  26.9402405  98.6425496 101.6058885
  27.7863600  99.0664909 101.7493534  26.8801043  97.9859120 102.2997448
  30.9100150 104.2654079  97.9877617  30.2809012 104.4299794  97.2853685
  30.5225812 104.6795689  98.7588581  34.7889381 105.2008517  95.3421980
  34.1040420 105.5807419  94.7919014  34.8733231 105.8103844  96.0753928
  30.0901850  96.3029864 103.2640058  29.8462782  97.0571924 102.7274334
  30.3661781  96.6815212 104.0987305  32.0440313 102.8468476 101.9417324
  32.2557208 103.4900236 101.2651705  31.9970061 102.0130793 101.4739254
  29.6466542  95.4586297  98.8453896  28.7851021  95.7567550  99.1370634
  29.6728977  95.6756696  97.9134929  26.4628111 104.0028487  95.2527702
  26.9266457 104.2816190  94.4632324  26.1984910 103.1011932  95.0700792
  23.3552192 103.5499969  98.1907465  23.9253550 103.9787237  97.5524950
  23.9460304 103.2682554  98.8891651  25.3996997 100.1251640  92.0617267
  26.1021041 100.5772684  92.5291193  25.0677626  99.4835459  92.6897160
  23.8477359  98.7163396 106.4368476  23.2176020  99.3979677 106.6703873
  23.7413447  98.6046478 105.4921615  19.1422331  98.3835193  97.3634401
  18.3521385  98.6392721  96.8874511  19.6333579  99.1983530  97.4686441
  33.1586141 105.7240432 100.1139681  33.9803585 105.3220619  99.8322363
  33.1548544 105.6208666 101.0655797  21.0937077  98.7479772  94.3217877
  20.2968240  98.8598466  94.8401373  20.8662669  99.0866424  93.4558768
  26.9242744 105.2724475 102.2700392  26.9887177 105.7344882 103.1058564
  26.2153668 104.6421840 102.3982702  17.4260034  98.6365683  99.7949391
  17.6768073  99.5212693 100.0606967  17.9619583  98.4570285  99.0224483
  41.2492134 102.0679180  96.4624653  40.4955842 101.4986578  96.3068657
  41.3839675 102.0341845  97.4095287  26.6390762 106.9392582  92.1379372
  26.5036437 107.7844118  92.5664220  27.1800575 107.1411860  91.3745306
  23.1258102  93.0184162 108.7993727  22.7325047  92.4650361 109.4741372
  23.9424242  93.3294741 109.1900245  20.0920159 104.4568021  92.7107297
  20.6044680 105.2511271  92.8612862  20.7442872 103.7594311  92.6440899
  21.9015044 107.5733777  94.7930050  22.0781673 108.4951742  94.6051034
  22.6971878 107.2592196  95.2224430  26.0426063  94.4342041 106.3913984
  26.7835776  95.0349195 106.3118446  26.2743986  93.6919679 105.8332027
  21.1867401  99.6198409 104.6692214  21.0720916  98.7183666 104.9699313
  20.3311918  99.8662105 104.3177030  28.2659238 107.5616149 106.2679714
  27.8223093 106.7752528 105.9500619  28.9276452 107.7495300 105.6023605
  23.0246360 109.0911951 100.7940393  23.5753785 108.9629014 100.0217387
  22.1857836 109.3906840 100.4435286  30.3640477 107.8418949 104.2961116
  30.3458952 108.6627830 103.8041385  31.2860397 107.7173024 104.5211257
  26.8213531 105.3563078 105.1384624  27.3541867 104.5951367 104.9083932
  26.2927612 105.0636730 105.8808778  29.9883226  90.4623144 100.6678266
  29.6447495  91.3524786 100.5917376  30.3562188  90.2724802  99.8047851
  18.0569076 102.7856675  93.4866868  18.8944298 103.1953683  93.2700575
  18.2347344 101.8456117  93.4567062  29.9533508 100.4531755  89.1750701
  29.4380132 101.2236360  89.4139088  29.6810817  99.7796892  89.7983762
  27.5380619  95.2981456  94.2335939  26.6822216  94.9088307  94.0541578
  27.9507571  95.3773417  93.3735725  29.0679766  92.8327800  98.6327499
  28.5644562  92.7957935  97.8195304  29.3610373  93.7420542  98.6924156
  25.3122652  92.9166529  97.6393681  26.1775649  92.7209338  97.2799570
  25.3800161  92.6876881  98.5663037  34.9267783 103.2064110  91.1103874
  34.1497225 102.8675270  90.6659036  35.6059263 103.2116733  90.4358839
  29.7419812  98.3258848  91.0010482  29.4369947  98.6404997  91.8520625
  30.6950254  98.4040267  91.0437815  28.1866243 104.4849071  92.6503436
  27.6587605 103.7501830  92.3376673  27.6853746 105.2623747  92.4043404
  33.1659089 102.6798091  97.7670482  32.5082764 103.3697353  97.8550611
  33.9699489 103.0694523  98.1104469  22.9184971  95.1468737  95.0110047
  23.4928723  94.9243919  94.2783240  23.5055953  95.2157432  95.7638649
  31.9764548 101.0342464  95.8174424  32.4896430 101.6672456  96.3196134
  32.6265772 100.4343660  95.4517784  23.2454558  97.1773198  89.0305933
  22.4091870  97.5147885  89.3515207  23.1059328  97.0422178  88.0933070
  25.2207639  92.0209986  93.7385117  24.5672051  91.7059003  93.1141732
  25.1788113  91.3985727  94.4644940  26.3318844 102.3029281  85.6538409
  25.4245905 102.0718535  85.8529558  26.8289876 101.5066900  85.8412390
  29.2386922 111.0126788  88.5735095  28.5648621 111.3158485  89.1820053
  29.6252744 111.8155869  88.2240552  28.4545379  98.5091920  98.0632764
  27.5367940  98.7306867  97.9054453  28.8705523  98.5838230  97.2044472
  29.2380427  99.9083335  93.1935445  29.9852246 100.4204733  92.8842567
  29.5072016  99.5867388  94.0539838  27.5107077 102.4041876  90.1762399
  26.6018296 102.1200909  90.2734869  27.5402161 102.8240955  89.3165706
  32.7426344 106.0148466  93.9453567  32.2888672 105.1739375  94.0018757
  32.1120311 106.6509864  94.2828347  31.6859264  96.9440452  95.1754234
  30.9482021  96.4317838  95.5064477  31.9386038  96.5040833  94.3637511
  31.1859284 107.8524962  94.8803385  31.4782258 108.4130019  94.1615750
  31.6957904 108.1453523  95.6356544  31.7870891  89.7216704  95.7696003
  32.0929768  88.8614067  95.4821918  32.5123496  90.3134324  95.5694997
  18.0795247 100.1247390  94.1577601  17.8819647  99.5316751  93.4328668
  17.5241911  99.8199600  94.8753540  26.0591971 100.0170497  96.2772194
  26.1140581  99.0644333  96.2014671  25.2483173 100.1729936  96.7613493
  27.2083165 103.9450620  87.5150478  26.7702595 103.2286479  87.0556115
  27.9493606 104.1726735  86.9535569  23.9984331  98.6347556  94.0362573
  23.1852197  98.9341727  94.4427765  24.4943325  98.2403245  94.7537055
  26.1492909 108.6305313  95.9696838  26.1069088 108.8566160  95.0405370
  27.0655608 108.3968688  96.1182639  29.5958543  99.0989381 102.8677467
  29.9507930  99.3260854 103.7271933  30.2430674  99.4307758 102.2454722
  35.3256280 102.2207817  93.5726796  35.1874178 102.4109413  92.6447985
  34.9692498 102.9827200  94.0294847  23.4898406  96.2065912  99.6523808
  24.1297785  96.0654671  98.9546772  22.6575936  95.9200425  99.2762410
  35.3525659 104.2884344  98.5838068  35.7862166 104.1959633  99.4321122
  36.0657240 104.2641844  97.9458084  24.2658710 105.5068342  95.7658801
  25.0599308 105.0118662  95.5641376  23.5550402 104.9786205  95.4026506
  29.0853554 107.8886438 100.1171168  29.1390576 108.4577374 100.8848884
  28.2168335 108.0588323  99.7525205  20.5741473  99.6511424  91.8418553
  19.6439061  99.5895880  92.0588515  20.6698945  99.1287377  91.0455195
  20.4927022  96.1766237  94.4296795  20.7533839  97.0911570  94.3205955
  21.3144194  95.7090679  94.5793408  21.9651947  97.5903994 101.5995620
  22.6375001  97.3821356 100.9508268  21.1381734  97.3926080 101.1600852
  36.2141209 104.3308044 101.1170953  36.4077099 105.2353855 101.3630228
  36.1141827 103.8715463 101.9509538  27.8677519  94.2165935 103.6161280
  27.2205435  94.9155885 103.5225757  28.6378535  94.6502079 103.9837529
  31.2756317 104.4814787 106.6911834  31.1241824 104.2525339 105.7741917
  31.2660997 105.4385389 106.7043179  28.0441654 102.0546700 101.6758100
  28.9733714 102.2057859 101.5027067  27.6232684 102.1430721 100.8206747
  26.8429986 106.0797364  99.4456638  26.7041071 105.7116149 100.3182576
  26.0544582 106.5945004  99.2740596  27.4378138 111.1806461  90.7882174
  27.6129893 110.7094504  91.6027797  26.7510926 111.8072227  91.0163435
  28.3935201 105.4578967  96.8345476  28.0585033 105.4179737  97.7303125
  27.8939146 104.7923683  96.3615886  22.3679445 100.8646597 102.3598057
  22.2299243 100.1326836 102.9609596  23.2784368 100.7755497 102.0782244
  31.3294392 102.8035001  87.1082535  30.7123563 102.0781829  87.0115588
  30.8610881 103.5644362  86.7649609  24.9961745 100.5766556 101.8481736
  25.7061364  99.9359749 101.8068355  24.9531054 100.8279451 102.7707917
  32.9848524 107.5133910 104.7688316  32.9261070 106.8293130 104.1018899
  33.3868042 108.2552900 104.3168942  23.7090679  97.5631774 103.6677376
  23.1728036  97.1122513 104.3198972  23.1207388  97.6977683 102.9247840
  22.0039223 114.3295824  97.5622034  22.2435821 114.9614348  98.2401053
  21.1608419 113.9783864  97.8487394  23.1192938  97.0220426  86.2303839
  22.2422405  96.9009226  85.8666086  23.5950691  96.2306504  85.9782728
  32.9865931 105.4773494 103.0002295  32.0992710 105.1399415 103.1228694
  33.5564482 104.7456525 103.2371061  14.6395078 101.8097585  96.3245347
  15.3266118 101.4959315  95.7366362  14.4843207 102.7138950  96.0512598
  19.4429801  96.6987782 100.7530370  19.3587989  96.0913451 100.0180780
  18.6212507  97.1896800 100.7539867  26.5167085 110.1374946  99.9663538
  26.4437256 110.9429917 100.4782843  26.0744478 110.3366912  99.1411560
  26.3056864 109.3746716  93.4766360  25.5224386 109.9168396  93.5704584
  27.0049610 109.8920696  93.8760601  29.6153514  95.1841345  96.1200565
  30.1122214  94.4311308  95.8001636  28.8440496  95.2205662  95.5543775
  37.4683272 100.8881711  97.7618857  37.4573148 101.7706426  97.3912790
  36.6000651 100.5353262  97.5673394  28.9765768 110.0361780 102.1221697
  29.6893740 110.6709245 102.0497599  28.4855797 110.1325646 101.3061699
  30.6983295 103.9413033  93.6938989  29.7639574 104.0614495  93.5243693
  30.8759964 103.0385499  93.4298999  26.1988483  97.3258728  95.8472250
  25.8286271  96.7729769  96.5353156  26.6947576  96.7216862  95.2947250
  34.0855847  99.7830352  94.2289023  34.5516299 100.6158344  94.1549326
  34.5363347  99.3175334  94.9334281  24.0277682 107.7856223 102.9427268
  24.7287141 108.4192706 103.0956662  23.5572797 108.1270955 102.1822907
  32.1532078 106.1274173  91.2275175  32.4291922 106.0130768  92.1369049
  31.2836576 105.7291658  91.1887348  32.0572509  92.1510939  98.2679924
  31.1435589  92.3815166  98.4362131  32.4865611  92.2349383  99.1193957
  31.8278968 100.3400831 100.7679818  31.1750418 100.5876738 100.1132271
  32.2059348  99.5264969 100.4342296  28.7886142 110.3760524  94.8707989
  28.9708536 109.5582180  95.3335741  29.6119128 110.5928216  94.4332879
  29.1228307 109.3028709  92.1323037  29.6516074 108.7921164  91.5193199
  29.3856527 108.9871239  92.9968570  27.8766541 101.0820642 107.2545855
  27.2007178 100.9814771 107.9248231  28.6994175 100.9259856 107.7181853
  19.6245400 107.3192579  99.8758371  20.2098837 106.5736266 100.0086275
  19.4270238 107.6296535 100.7595034  22.4784055 110.3543826  94.8920813
  21.8094430 110.8389954  94.4084853  22.3396925 110.6013046  95.8064192
  14.2163055  99.8898179  98.5962814  14.2547154  99.3561769  99.3899932
  13.7103347  99.3633384  97.9773791  26.6189324 112.3887569 101.4903471
  27.1707632 112.5519191 102.2552557  26.9595517 112.9792007 100.8183496
  21.5953817  94.7362719 102.0925356  21.6595143  95.5977550 101.6802754
  21.5320937  94.1236721 101.3597715  21.0706089  96.8085852 105.7398390
  21.6978128  96.4262929 106.3535915  20.2134008  96.5900054 106.1054083
  31.4700198 107.2148827 107.3452126  32.0140102 107.8278785 106.8507081
  30.8887043 107.7728405 107.8619139  17.8471632  98.6162281  91.6716745
  18.1425073  97.7072959  91.6183799  16.9459668  98.5950020  91.3497747
  29.7557711 110.3369545  98.4767154  29.6308850 109.5359285  97.9678099
  30.4136802 110.8315738  97.9881123  21.3765879  96.6918277  97.6544294
  20.6552465  97.3054245  97.5151767  22.1659135  97.2276042  97.5760940
  31.8192619 108.1378565 100.1046704  30.8722955 108.0183916 100.0325030
  32.1675392 107.2501063 100.1872965  24.1792193  94.0272704 103.9284945
  24.7026595  94.2735000 104.6911255  23.9604526  94.8592739 103.5088083
  19.5759474  96.2976379  91.7956070  19.2472180  95.4173757  91.6131176
  19.9298844  96.2424047  92.6832460  28.8239053 107.9331281  96.3051056
  28.6764015 107.0047989  96.4858626  29.6492546 107.9551372  95.8208131
  22.6901297  96.5849348  92.1631548  23.0297369  97.1135270  91.4410156
  23.1373417  96.9229754  92.9390115  32.4273174 108.7559840  97.3915929
  33.3519722 108.5502701  97.2540380  32.2588478 108.5076241  98.3005270
  25.3844738  94.9686399 101.6134616  25.0441558  94.1694212 102.0155296
  24.6783744  95.2688110 101.0411449  26.0361210  92.0535711 100.0661939
  26.8587279  91.5796190  99.9440829  26.2799273  92.8326195 100.5660625
  24.6769444  95.0823970  90.3624841  25.3977807  95.4605223  89.8588558
  24.0534748  95.8012847  90.4659819  28.8200567  95.7869119  91.2983173
  29.0364181  96.6693757  90.9972001  28.3394634  95.3955332  90.5688815
  23.5599788  98.7454832  97.8753918  23.4144369  99.0595135  98.7678199
  23.0824992  99.3639732  97.3224816  25.4196171  95.7357380  97.9234807
  25.4057740  94.8398473  97.5867105  26.1368599  95.7428044  98.5573093
  27.2722302  96.1694720  99.9687935  27.0140080  97.0911791  99.9672265
  26.7407342  95.7725155 100.6588399  32.2168491 109.2745507  92.7478020
  32.3905368 108.7091930  91.9951872  32.7097382 110.0746402  92.5657510
  18.0345450 101.2860177 100.8141579  17.4898919 102.0619984 100.9461853
  18.9124800 101.6330981 100.6560700  24.8233067  94.6171760  93.1922377
  24.9448978  93.6888407  93.3913265  24.5335110  94.6310446  92.2800693
  27.6924258  92.3026671  96.3289097  27.7145954  92.3666004  95.3741077
  28.1092317  91.4631179  96.5229603  38.0707882 102.0381930  94.3668320
  38.5139028 101.2889256  93.9687443  37.1934392 102.0292067  93.9842052
  33.2043663 108.5912272  89.8474918  33.8994568 109.2118965  90.0662233
  33.5466813 107.7407623  90.1227296  18.8211472 100.4130073 103.7071736
  18.0793208 100.5612708 104.2936366  18.5004217 100.6738338 102.8438485
  35.1035086 106.0411977  91.3762249  35.6286410 106.3799250  90.6511569
  35.0157439 105.1058993  91.1925384  26.7655135 109.9546051 103.5052126
  27.0742261 109.7095198 104.3774825  27.5630617 110.1592689 103.0170996
  26.7875747 112.1083961  95.7357502  26.3480737 111.6160339  96.4290359
  27.5383864 111.5656928  95.4949577  19.2668086 108.2995502  95.7382130
  20.0926106 107.9999273  95.3580774  18.9162138 107.5303124  96.1871919
  24.2349619 107.6521970  97.8079804  23.6129628 106.9892675  97.5082032
  24.9054486 107.6783102  97.1253452  17.4676691 106.2181828  96.6971064
  16.6308599 105.7904002  96.5155065  17.4400337 106.4114271  97.6341855
  24.3074147  96.1303758 107.4012310  24.3562302  97.0065881 107.0190080
  24.8496661  95.5881151 106.8283953  34.7928992 106.6744881 106.6813447
  34.0024536 106.6569020 106.1417946  34.5562347 107.2133175 107.4362484
  34.9126867 103.5237347 103.9946176  34.9624872 103.3587355 104.9361698
  34.8040791 102.6564606 103.6044056  23.7963126 106.2025893  91.2838264
  23.9451246 106.8861357  90.6304937  24.6029570 106.1830983  91.7987720
  32.2030630  99.5068275 105.3105482  33.1040493  99.3674740 105.0189480
  32.2778604  99.6722730 106.2503660  26.5373435  96.8835130 104.1558669
  25.6676745  97.1768696 103.8841257  26.7732915  97.4675575 104.8765932
  36.4145064 105.9434289 104.2388197  36.1229873 106.3064269 105.0751658
  35.8017196 105.2301297 104.0601529  37.6140747 103.5087169  96.7590767
  38.4487638 103.9476973  96.9228328  37.7499875 103.0325822  95.9399013
  34.6632252 101.0666904 102.7068255  35.1386374 101.2594550 101.8987106
  33.7397818 101.1226089 102.4611639  21.5515759 102.2291071  92.2899333
  21.3061801 101.3253401  92.4879544  21.7211674 102.2308221  91.3478811
  29.2412469  93.1014747 101.6724089  29.7594413  93.8375774 101.3470578
  28.8867602  93.4078740 102.5070848  20.8211407  97.9619428  89.7885495
  20.1280652  98.0363783  89.1325531  20.5763159  97.1979772  90.3107012
  29.4925063  89.5215030  97.1924986  29.7726817  88.8538219  97.8185412
  30.2775670  89.7144125  96.6799649  27.2958532 108.6974024  88.7550012
  26.7232499 109.3164211  88.3020484  27.8691325 109.2473385  89.2889934
  33.3633921  97.9432664 100.9396561  34.3151344  98.0430761 100.9608785
  33.1937372  97.1510932 101.4494645  31.3848301  95.0288247 101.1255962
  30.7898233  95.3093260 100.4302450  31.0997998  95.5182148 101.8972703
  30.5155791 108.9811174  89.8858594  31.4486465 108.9156735  90.0891470
  30.4279004 109.8167441  89.4273127  33.1443808 108.2977044  86.8462542
  33.0657440 107.9636908  87.7398300  33.9653475 108.7898812  86.8454014
  35.8421999 101.1638783 100.0538860  35.8098319 100.2254784 100.2398544
  36.4522623 101.2422820  99.3204685  27.6805330 100.0334836  86.0966064
  28.6264435  99.9041044  86.1654482  27.3019575  99.2949498  86.5735493
  35.9916488  97.9549827 100.0997144  35.4755536  97.1708283  99.9127072
  36.8756436  97.6268543 100.2643663  33.6527215  91.6990842  96.0592956
  33.4552036  91.3905930  96.9436288  34.2626920  92.4252481  96.1890886
  41.6598549 102.2254790  99.1944897  42.3901938 101.9640078  99.7552600
  41.0505495 101.4883512  99.2346965  39.7413846 100.3662653  99.7919348
  39.0147010 100.2318618  99.1835840  39.3261133 100.6739481 100.5976066
  27.5644023 104.0852582 107.5566721  28.4847032 104.2631181 107.7506768
  27.5293606 103.1408628 107.4046421  25.8648247  97.9584813  86.0320950
  24.9579703  97.6617925  86.1083663  26.1424228  97.6614631  85.1655236
  16.7826188  99.2791176  96.4819996  16.4628972  98.4256484  96.1894370
  16.2359616  99.4939754  97.2377963  20.5606095 101.9953617 100.1989503
  20.7792105 102.9270725 100.2177536  20.9731869 101.6361591 100.9844306
  27.4810313  92.5021702  92.1865191  26.6711041  92.1568787  92.5620437
  28.1694730  92.1929246  92.7752802  29.4100861  91.5799749  93.8089488
  29.9631900  91.9995203  94.4679511  29.6470948  90.6535497  93.8512444
  25.4333961  97.5686823 109.5892251  25.3330687  98.5181180 109.5204343
  25.2155503  97.2405062 108.7168322  24.6347032  94.8171748  86.1732929
  25.4966196  95.1426646  86.4328746  24.8197376  94.0303244  85.6605995
  16.6514448 102.8994088  98.4513118  15.9577919 102.4848040  97.9383072
  17.3987439 102.9414624  97.8546536  32.7879668  93.6900274  93.3168152
  32.2078337  94.3485078  92.9346204  32.5215601  92.8677619  92.9055569
  31.2383235  93.0905332  95.5189472  31.7383013  93.2021867  94.7103791
  31.8818843  92.7866385  96.1590281  25.2965231 100.9983962 108.4057313
  24.8132312 101.7984322 108.6121202  25.3826170 101.0091907 107.4524757
  18.5651190 102.8312341  96.3279132  18.5421878 102.9300029  95.3761016
  18.8751827 103.6777492  96.6496299  21.2238568 104.8888496 100.4425747
  22.1781822 104.8572439 100.3755678  21.0251092 104.4279120 101.2575973
  21.8137950 103.4589612 103.0096545  22.6330839 103.9533691 103.0331382
  22.0874758 102.5421581 102.9814112  31.5704546  95.8500365  92.3724500
  30.6830401  96.1350015  92.1544695  31.9858535  95.6894128  91.5251777
  34.9219083  95.8746886  96.0878839  35.6979473  96.3643338  96.3603456
  34.1967217  96.3004940  96.5450709  37.3591641  96.5874505  97.1452780
  37.9536132  96.3470241  96.4346088  37.4318225  95.8681635  97.7726316
  19.5788797 110.4308116  97.4595945  19.4443265 109.6708517  96.8933943
  19.1620859 111.1549016  96.9924734  30.7147760 105.6145039  86.4672520
  31.4183610 105.8195042  87.0830176  29.9910409 106.1821801  86.7321604
  31.5445570 101.3654901  92.5874790  31.4880772 101.8223452  91.7482423
  32.0973913 100.6045585  92.4097633  35.3550376  97.1544633  93.4124910
  35.0987310  96.7541268  94.2433117  34.7303244  97.8688426  93.2875049
  39.6662714  99.8940706  95.9196201  39.1062272  99.9633895  96.6927763
  39.0606217  99.7181690  95.1995697  22.7357923 111.3277433  97.6714387
  22.6190307 112.2722865  97.5693078  21.9150369 111.0250994  98.0600187
  32.6234457 106.0527569  88.5170980  33.4580061 105.6208767  88.3348455
  32.4618800 105.8809582  89.4447875  32.2780349 102.5559682  89.8827319
  32.2229153 102.3903953  88.9415764  31.6526405 103.2635715  90.0389509
  17.0672864  97.7927746 103.7088742  17.7131728  97.2826700 104.1975967
  16.8590016  98.5296428 104.2832167  29.5926257 104.8608594 109.2080882
  30.4617416 105.0349246 108.8467517  29.1133008 105.6803011 109.0856612
  25.5876475  92.0567791  89.4612638  25.5755145  93.0009631  89.6180909
  26.4799897  91.8737936  89.1672099  23.7612437 111.9805695 100.8870316
  24.6639684 112.0129305 101.2036811  23.5349807 111.0506146 100.9016652
  25.5166039 110.7336681  97.5480394  24.5661670 110.7338543  97.4344767
  25.8198525 109.9869416  97.0316429  29.4028594  88.6510568  93.7158575
  28.6360990  88.0969054  93.8615257  29.8139299  88.7232436  94.5772726
  21.4070355  94.9395363 107.8063756  22.2701817  94.5832168 108.0167080
  20.8335766  94.6009258 108.4939160  41.2518732 116.5697220  98.6126157
  41.8897142 116.4503967  97.9089497  41.1339575 117.5178064  98.6714109
  38.0608439 116.5224648  98.5487682  37.7226950 116.4065713  97.6608216
  38.9298207 116.1215813  98.5288688  33.9195254 118.3760124  94.5384572
  33.3560119 118.2850061  93.7700860  33.8047649 117.5560029  95.0187065
  38.5428222 117.6759500 104.5073887  38.5316862 117.2812298 103.6354391
  38.7048861 116.9425572 105.1007659  31.4659686 119.8711316  97.3768793
  32.2580978 119.5302140  96.9615092  31.7056336 119.9806291  98.2970946
  39.4994813 122.0431092  89.8499037  38.8482793 122.6285172  89.4633051
  40.2939176 122.5737287  89.9094075  33.4250440 119.1320229  90.2486172
  34.1981316 118.5849216  90.1099048  33.7775839 119.9964478  90.4600633
  35.2635483 120.4596611 103.4553071  34.9725349 121.3642242 103.3399737
  35.8992467 120.5013139 104.1697141  36.1891690 117.8373460 100.0454431
  36.7855262 117.6129482  99.3311394  36.2466661 117.0958205 100.6479879
  35.7616718 115.2912895  87.8804622  36.0142239 114.7694416  87.1188085
  34.8241277 115.1279041  87.9831305  40.8060001 114.2948674  95.6879365
  41.5923090 113.8768097  95.3369782  41.0698705 115.1994766  95.8561013
  40.9770078 119.7321524  90.3868022  40.3415911 119.8056150  91.0988926
  40.6467485 120.3215123  89.7087101  46.2068428 114.2323907  96.5912343
  46.9393600 113.6623124  96.8250173  45.4507784 113.8445507  97.0318849
  35.4813007 117.1941001  90.0828997  35.3649265 116.5185905  90.7510081
  35.5915267 116.7073375  89.2661150  37.8244548 116.6551148  93.7875686
  37.4602755 116.1281769  94.4988607  38.6811664 116.2649617  93.6142171
  43.7293848 107.9445481 101.0506952  43.3977173 108.8140892 100.8268167
  43.1339462 107.6281765 101.7300982  37.4650035 111.6841048  88.7837034
  37.6324437 112.5521284  89.1507505  37.2747204 111.8468330  87.8598324
  40.2225368 120.1458027 100.4502865  39.9226091 121.0483066 100.3418672
  39.8776427 119.8790210 101.3024018  33.6737849 116.5971824  96.4839569
  32.7488346 116.4648038  96.6917261  33.9222263 117.3766043  96.9809512
  43.6222512 112.6640567  98.1300302  42.7139389 112.5955975  97.8359063
  43.5710107 113.1412512  98.9582128  37.4439256 114.1398705  89.7683701
  37.3238881 114.5855756  90.6069181  36.7491844 114.4884023  89.2097239
  31.0346660 116.2405097  97.3183358  31.1639042 116.4939576  98.2322770
  30.3544112 116.8332805  96.9988013  35.2046148 126.9102347  93.4173832
  35.1270177 127.8610172  93.4962313  34.6007791 126.5648220  94.0748759
  37.6963377 114.0830213 106.0735199  36.9196711 114.6424133 106.0638064
  38.3353940 114.5686996 106.5950069  45.4884158 110.8657005  99.9078176
  44.8458538 111.1589539  99.2617971  44.9839087 110.7509926 100.7131373
  43.1424322 114.6120179  90.5964035  44.0542178 114.8447565  90.4211733
  42.6333969 115.1957223  90.0339114  35.9509750 116.8915666 105.6353166
  36.6924434 117.4300710 105.3587990  35.2446735 117.5181955 105.7924718
  41.4265089 119.0344806 104.2325328  41.8348445 118.5927217 103.4879960
  40.7042351 118.4597434 104.4859521  37.7796159 113.9717413 101.6058885
  38.6257355 114.3956827 101.7493534  37.7194797 113.3151038 102.2997448
  41.7493904 119.5945997  97.9877617  41.1202766 119.7591711  97.2853685
  41.3619566 120.0087607  98.7588581  45.6283136 120.5300435  95.3421980
  44.9434174 120.9099336  94.7919014  45.7126985 121.1395762  96.0753928
  40.9295605 111.6321782 103.2640058  40.6856537 112.3863842 102.7274334
  41.2055535 112.0107129 104.0987305  42.8834068 118.1760394 101.9417324
  43.0950963 118.8192154 101.2651705  42.8363816 117.3422711 101.4739254
  40.4860296 110.7878215  98.8453896  39.6244776 111.0859468  99.1370634
  40.5122731 111.0048614  97.9134929  37.3021866 119.3320405  95.2527702
  37.7660211 119.6108108  94.4632324  37.0378664 118.4303850  95.0700792
  34.1945947 118.8791887  98.1907465  34.7647304 119.3079155  97.5524950
  34.7854059 118.5974471  98.8891651  36.2390752 115.4543558  92.0617267
  36.9414795 115.9064601  92.5291193  35.9071380 114.8127376  92.6897160
  34.6871113 114.0455314 106.4368476  34.0569774 114.7271595 106.6703873
  34.5807201 113.9338396 105.4921615  29.9816086 113.7127110  97.3634401
  29.1915140 113.9684639  96.8874511  30.4727333 114.5275448  97.4686441
  43.9979895 121.0532349 100.1139681  44.8197339 120.6512537  99.8322363
  43.9942298 120.9500584 101.0655797  31.9330831 114.0771689  94.3217877
  31.1361995 114.1890384  94.8401373  31.7056423 114.4158342  93.4558768
  37.7636499 120.6016393 102.2700392  37.8280931 121.0636800 103.1058564
  37.0547423 119.9713758 102.3982702  28.2653789 113.9657601  99.7949391
  28.5161827 114.8504611 100.0606967  28.8013337 113.7862202  99.0224483
  52.0885889 117.3971098  96.4624653  51.3349597 116.8278496  96.3068657
  52.2233430 117.3633762  97.4095287  37.4784517 122.2684500  92.1379372
  37.3430191 123.1136036  92.5664220  38.0194329 122.4703778  91.3745306
  33.9651856 108.3476080 108.7993727  33.5718802 107.7942279 109.4741372
  34.7817997 108.6586658 109.1900245  30.9313914 119.7859938  92.7107297
  31.4438435 120.5803188  92.8612862  31.5836627 119.0886229  92.6440899
  32.7408799 122.9025694  94.7930050  32.9175427 123.8243659  94.6051034
  33.5365632 122.5884114  95.2224430  36.8819817 109.7633959 106.3913984
  37.6229531 110.3641112 106.3118446  37.1137740 109.0211597 105.8332027
  32.0261155 114.9490326 104.6692214  31.9114670 114.0475584 104.9699313
  31.1705673 115.1954023 104.3177030  39.1052993 122.8908067 106.2679714
  38.6616847 122.1044445 105.9500619  39.7670207 123.0787217 105.6023605
  33.8640114 124.4203868 100.7940393  34.4147539 124.2920932 100.0217387
  33.0251590 124.7198757 100.4435286  41.2034231 123.1710867 104.2961116
  41.1852706 123.9919748 103.8041385  42.1254151 123.0464942 104.5211257
  37.6607285 120.6854996 105.1384624  38.1935622 119.9243284 104.9083932
  37.1321366 120.3928648 105.8808778  40.8276980 105.7915062 100.6678266
  40.4841250 106.6816704 100.5917376  41.1955943 105.6016720  99.8047851
  28.8962831 118.1148593  93.4866868  29.7338053 118.5245601  93.2700575
  29.0741098 117.1748035  93.4567062  40.7927263 115.7823673  89.1750701
  40.2773886 116.5528278  89.4139088  40.5204571 115.1088809  89.7983762
  38.3774374 110.6273374  94.2335939  37.5215970 110.2380224  94.0541578
  38.7901326 110.7065335  93.3735725  39.9073521 108.1619717  98.6327499
  39.4038316 108.1249852  97.8195304  40.2004127 109.0712460  98.6924156
  36.1516406 108.2458447  97.6393681  37.0169403 108.0501256  97.2799570
  36.2193915 108.0168799  98.5663037  45.7661537 118.5356028  91.1103874
  44.9890980 118.1967187  90.6659036  46.4453018 118.5408651  90.4358839
  40.5813566 113.6550765  91.0010482  40.2763702 113.9696914  91.8520625
  41.5344008 113.7332185  91.0437815  39.0259998 119.8140989  92.6503436
  38.4981359 119.0793748  92.3376673  38.5247501 120.5915665  92.4043404
  44.0052844 118.0090009  97.7670482  43.3476518 118.6989270  97.8550611
  44.8093243 118.3986441  98.1104469  33.7578725 110.4760655  95.0110047
  34.3322477 110.2535836  94.2783240  34.3449708 110.5449349  95.7638649
  42.8158303 116.3634382  95.8174424  43.3290184 116.9964374  96.3196134
  43.4659527 115.7635577  95.4517784  34.0848313 112.5065116  89.0305933
  33.2485625 112.8439802  89.3515207  33.9453082 112.3714096  88.0933070
  36.0601393 107.3501904  93.7385117  35.4065806 107.0350921  93.1141732
  36.0181867 106.7277644  94.4644940  37.1712598 117.6321199  85.6538409
  36.2639660 117.4010452  85.8529558  37.6683630 116.8358818  85.8412390
  40.0780677 126.3418706  88.5735095  39.4042376 126.6450403  89.1820053
  40.4646499 127.1447786  88.2240552  39.2939134 113.8383837  98.0632764
  38.3761695 114.0598784  97.9054453  39.7099277 113.9130148  97.2044472
  40.0774181 115.2375253  93.1935445  40.8246000 115.7496650  92.8842567
  40.3465771 114.9159306  94.0539838  38.3500831 117.7333794  90.1762399
  37.4412051 117.4492827  90.2734869  38.3795915 118.1532872  89.3165706
  43.5820099 121.3440383  93.9453567  43.1282426 120.5031293  94.0018757
  42.9514066 121.9801782  94.2828347  42.5253018 112.2732369  95.1754234
  41.7875775 111.7609755  95.5064477  42.7779792 111.8332751  94.3637511
  42.0253038 123.1816880  94.8803385  42.3176013 123.7421937  94.1615750
  42.5351659 123.4745441  95.6356544  42.6264646 105.0508621  95.7696003
  42.9323523 104.1905985  95.4821918  43.3517251 105.6426241  95.5694997
  28.9189002 115.4539308  94.1577601  28.7213402 114.8608669  93.4328668
  28.3635666 115.1491518  94.8753540  36.8985726 115.3462414  96.2772194
  36.9534335 114.3936251  96.2014671  36.0876928 115.5021853  96.7613493
  38.0476919 119.2742537  87.5150478  37.6096349 118.5578396  87.0556115
  38.7887360 119.5018652  86.9535569  34.8378085 113.9639474  94.0362573
  34.0245951 114.2633645  94.4427765  35.3337080 113.5695163  94.7537055
  36.9886663 123.9597231  95.9696838  36.9462842 124.1858077  95.0405370
  37.9049362 123.7260606  96.1182639  40.4352297 114.4281299 102.8677467
  40.7901685 114.6552772 103.7271933  41.0824428 114.7599675 102.2454722
  46.1650034 117.5499734  93.5726796  46.0267933 117.7401330  92.6447985
  45.8086253 118.3119117  94.0294847  34.3292160 111.5357830  99.6523808
  34.9691540 111.3946589  98.9546772  33.4969691 111.2492343  99.2762410
  46.1919414 119.6176261  98.5838068  46.6255920 119.5251551  99.4321122
  46.9050994 119.5933762  97.9458084  35.1052464 120.8360260  95.7658801
  35.8993063 120.3410580  95.5641376  34.3944157 120.3078123  95.4026506
  39.9247309 123.2178356 100.1171168  39.9784331 123.7869292 100.8848884
  39.0562090 123.3880241  99.7525205  31.4135228 114.9803342  91.8418553
  30.4832816 114.9187797  92.0588515  31.5092700 114.4579294  91.0455195
  31.3320777 111.5058155  94.4296795  31.5927594 112.4203488  94.3205955
  32.1537949 111.0382597  94.5793408  32.8045702 112.9195912 101.5995620
  33.4768755 112.7113274 100.9508268  31.9775489 112.7217998 101.1600852
  47.0534963 119.6599962 101.1170953  47.2470853 120.5645773 101.3630228
  46.9535581 119.2007381 101.9509538  38.7071274 109.5457853 103.6161280
  38.0599189 110.2447802 103.5225757  39.4772289 109.9793997 103.9837529
  42.1150072 119.8106705 106.6911834  41.9635578 119.5817257 105.7741917
  42.1054751 120.7677306 106.7043179  38.8835408 117.3838618 101.6758100
  39.8127468 117.5349777 101.5027067  38.4626438 117.4722638 100.8206747
  37.6823740 121.4089282  99.4456638  37.5434826 121.0408066 100.3182576
  36.8938336 121.9236921  99.2740596  38.2771892 126.5098378  90.7882174
  38.4523648 126.0386422  91.6027797  37.5904680 127.1364145  91.0163435
  39.2328955 120.7870885  96.8345476  38.8978788 120.7471655  97.7303125
  38.7332901 120.1215601  96.3615886  33.2073199 116.1938515 102.3598057
  33.0692997 115.4618754 102.9609596  34.1178123 116.1047415 102.0782244
  42.1688147 118.1326919  87.1082535  41.5517318 117.4073747  87.0115588
  41.7004635 118.8936279  86.7649609  35.8355500 115.9058474 101.8481736
  36.5455118 115.2651666 101.8068355  35.7924808 116.1571369 102.7707917
  43.8242279 122.8425827 104.7688316  43.7654825 122.1585047 104.1018899
  44.2261797 123.5844817 104.3168942  34.5484434 112.8923692 103.6677376
  34.0121791 112.4414430 104.3198972  33.9601142 113.0269601 102.9247840
  32.8432977 129.6587741  97.5622034  33.0829576 130.2906265  98.2401053
  32.0002174 129.3075781  97.8487394  33.9586693 112.3512343  86.2303839
  33.0816159 112.2301144  85.8666086  34.4344446 111.5598422  85.9782728
  43.8259686 120.8065411 103.0002295  42.9386465 120.4691333 103.1228694
  44.3958237 120.0748443 103.2371061  25.4788833 117.1389503  96.3245347
  26.1659873 116.8251233  95.7366362  25.3236962 118.0430868  96.0512598
  30.2823555 112.0279700 100.7530370  30.1981744 111.4205369 100.0180780
  29.4606262 112.5188718 100.7539867  37.3560839 125.4666864  99.9663538
  37.2831011 126.2721835 100.4782843  36.9138232 125.6658829  99.1411560
  37.1450619 124.7038634  93.4766360  36.3618141 125.2460314  93.5704584
  37.8443364 125.2212613  93.8760601  40.4547269 110.5133263  96.1200565
  40.9515969 109.7603225  95.8001636  39.6834250 110.5497580  95.5543775
  48.3077026 116.2173629  97.7618857  48.2966903 117.0998344  97.3912790
  47.4394406 115.8645179  97.5673394  39.8159523 125.3653698 102.1221697
  40.5287495 126.0001163 102.0497599  39.3249551 125.4617564 101.3061699
  41.5377050 119.2704950  93.6938989  40.6033328 119.3906413  93.5243693
  41.7153718 118.3677417  93.4298999  37.0382238 112.6550646  95.8472250
  36.6680025 112.1021687  96.5353156  37.5341330 112.0508780  95.2947250
  44.9249601 115.1122270  94.2289023  45.3910053 115.9450261  94.1549326
  45.3757102 114.6467251  94.9334281  34.8671436 123.1148141 102.9427268
  35.5680896 123.7484624 103.0956662  34.3966551 123.4562873 102.1822907
  42.9925832 121.4566091  91.2275175  43.2685676 121.3422686  92.1369049
  42.1230331 121.0583576  91.1887348  42.8966264 107.4802857  98.2679924
  41.9829344 107.7107083  98.4362131  43.3259365 107.5641301  99.1193957
  42.6672722 115.6692749 100.7679818  42.0144172 115.9168656 100.1132271
  43.0453102 114.8556887 100.4342296  39.6279896 125.7052442  94.8707989
  39.8102291 124.8874098  95.3335741  40.4512882 125.9220134  94.4332879
  39.9622062 124.6320627  92.1323037  40.4909828 124.1213081  91.5193199
  40.2250281 124.3163157  92.9968570  38.7160295 116.4112560 107.2545855
  38.0400932 116.3106689 107.9248231  39.5387929 116.2551773 107.7181853
  30.4639154 122.6484496  99.8758371  31.0492591 121.9028184 100.0086275
  30.2663993 122.9588453 100.7595034  33.3177810 125.6835744  94.8920813
  32.6488185 126.1681871  94.4084853  33.1790679 125.9304964  95.8064192
  25.0556809 115.2190096  98.5962814  25.0940909 114.6853687  99.3899932
  24.5497102 114.6925302  97.9773791  37.4583078 127.7179487 101.4903471
  38.0101386 127.8811109 102.2552557  37.7989272 128.3083925 100.8183496
  32.4347571 110.0654637 102.0925356  32.4988898 110.9269468 101.6802754
  32.3714692 109.4528639 101.3597715  31.9099844 112.1377769 105.7398390
  32.5371883 111.7554847 106.3535915  31.0527763 111.9191971 106.1054083
  42.3093952 122.5440745 107.3452126  42.8533856 123.1570703 106.8507081
  41.7280797 123.1020323 107.8619139  28.6865387 113.9454199  91.6716745
  28.9818828 113.0364877  91.6183799  27.7853422 113.9241938  91.3497747
  40.5951465 125.6661463  98.4767154  40.4702605 124.8651202  97.9678099
  41.2530557 126.1607656  97.9881123  32.2159634 112.0210195  97.6544294
  31.4946219 112.6346163  97.5151767  33.0052889 112.5567960  97.5760940
  42.6586374 123.4670483 100.1046704  41.7116709 123.3475834 100.0325030
  43.0069147 122.5792981 100.1872965  35.0185947 109.3564622 103.9284945
  35.5420349 109.6026918 104.6911255  34.7998280 110.1884656 103.5088083
  30.4153228 111.6268296  91.7956070  30.0865934 110.7465675  91.6131176
  30.7692599 111.5715965  92.6832460  39.6632807 123.2623199  96.3051056
  39.5157770 122.3339906  96.4858626  40.4886301 123.2843290  95.8208131
  33.5295051 111.9141266  92.1631548  33.8691124 112.4427187  91.4410156
  33.9767172 112.2521672  92.9390115  43.2666929 124.0851758  97.3915929
  44.1913476 123.8794619  97.2540380  43.0982232 123.8368159  98.3005270
  36.2238492 110.2978317 101.6134616  35.8835313 109.4986130 102.0155296
  35.5177499 110.5980028 101.0411449  36.8754964 107.3827629 100.0661939
  37.6981033 106.9088107  99.9440829  37.1193028 108.1618113 100.5660625
  35.5163199 110.4115888  90.3624841  36.2371561 110.7897140  89.8588558
  34.8928503 111.1304764  90.4659819  39.6594321 111.1161037  91.2983173
  39.8757936 111.9985674  90.9972001  39.1788389 110.7247250  90.5688815
  34.3993543 114.0746750  97.8753918  34.2538124 114.3887053  98.7678199
  33.9218746 114.6931650  97.3224816  36.2589926 111.0649298  97.9234807
  36.2451494 110.1690391  97.5867105  36.9762354 111.0719962  98.5573093
  38.1116056 111.4986638  99.9687935  37.8533834 112.4203709  99.9672265
  37.5801097 111.1017073 100.6588399  43.0562245 124.6037425  92.7478020
  43.2299123 124.0383848  91.9951872  43.5491136 125.4038320  92.5657510
  28.8739205 116.6152094 100.8141579  28.3292673 117.3911902 100.9461853
  29.7518555 116.9622899 100.6560700  35.6626822 109.9463678  93.1922377
  35.7842733 109.0180324  93.3913265  35.3728864 109.9602364  92.2800693
  38.5318012 107.6318589  96.3289097  38.5539709 107.6957922  95.3741077
  38.9486071 106.7923097  96.5229603  48.9101636 117.3673848  94.3668320
  49.3532782 116.6181173  93.9687443  48.0328147 117.3583984  93.9842052
  44.0437418 123.9204190  89.8474918  44.7388322 124.5410882  90.0662233
  44.3860568 123.0699541  90.1227296  29.6605227 115.7421990 103.7071736
  28.9186963 115.8904626 104.2936366  29.3397971 116.0030256 102.8438485
  45.9428841 121.3703895  91.3762249  46.4680165 121.7091168  90.6511569
  45.8551193 120.4350910  91.1925384  37.6048889 125.2837969 103.5052126
  37.9136016 125.0387115 104.3774825  38.4024372 125.4884607 103.0170996
  37.6269502 127.4375878  95.7357502  37.1874492 126.9452257  96.4290359
  38.3777618 126.8948846  95.4949577  30.1061841 123.6287419  95.7382130
  30.9319860 123.3291191  95.3580774  29.7555893 122.8595042  96.1871919
  35.0743374 122.9813887  97.8079804  34.4523383 122.3184592  97.5082032
  35.7448241 123.0075019  97.1253452  28.3070446 121.5473746  96.6971064
  27.4702354 121.1195920  96.5155065  28.2794091 121.7406189  97.6341855
  35.1467901 111.4595675 107.4012310  35.1956057 112.3357798 107.0190080
  35.6890415 110.9173068 106.8283953  45.6322747 122.0036799 106.6813447
  44.8418291 121.9860938 106.1417946  45.3956101 122.5425092 107.4362484
  45.7520622 118.8529265 103.9946176  45.8018627 118.6879273 104.9361698
  45.6434545 117.9856524 103.6044056  34.6356881 121.5317811  91.2838264
  34.7845001 122.2153275  90.6304937  35.4423324 121.5122901  91.7987720
  43.0424384 114.8360193 105.3105482  43.9434247 114.6966658 105.0189480
  43.1172359 115.0014648 106.2503660  37.3767190 112.2127048 104.1558669
  36.5070499 112.5060614 103.8841257  37.6126670 112.7967493 104.8765932
  47.2538819 121.2726207 104.2388197  46.9623627 121.6356187 105.0751658
  46.6410950 120.5593215 104.0601529  48.4534501 118.8379086  96.7590767
  49.2881392 119.2768890  96.9228328  48.5893630 118.3617740  95.9399013
  45.5026007 116.3958821 102.7068255  45.9780129 116.5886468 101.8987106
  44.5791572 116.4518007 102.4611639  32.3909514 117.5582988  92.2899333
  32.1455556 116.6545318  92.4879544  32.5605428 117.5600139  91.3478811
  40.0806223 108.4306665 101.6724089  40.5988167 109.1667692 101.3470578
  39.7261356 108.7370658 102.5070848  31.6605161 113.2911346  89.7885495
  30.9674406 113.3655701  89.1325531  31.4156913 112.5271690  90.3107012
  40.3318818 104.8506947  97.1924986  40.6120571 104.1830136  97.8185412
  41.1169425 105.0436043  96.6799649  38.1352286 124.0265941  88.7550012
  37.5626253 124.6456128  88.3020484  38.7085080 124.5765303  89.2889934
  44.2027676 113.2724581 100.9396561  45.1545099 113.3722679 100.9608785
  44.0331126 112.4802850 101.4494645  42.2242055 110.3580165 101.1255962
  41.6291988 110.6385177 100.4302450  41.9391752 110.8474065 101.8972703
  41.3549546 124.3103091  89.8858594  42.2880219 124.2448653  90.0891470
  41.2672759 125.1459358  89.4273127  43.9837563 123.6268962  86.8462542
  43.9051194 123.2928825  87.7398300  44.8047229 124.1190730  86.8454014
  46.6815754 116.4930701 100.0538860  46.6492074 115.5546702 100.2398544
  47.2916377 116.5714738  99.3204685  38.5199085 115.3626754  86.0966064
  39.4658189 115.2332962  86.1654482  38.1413330 114.6241416  86.5735493
  46.8310242 113.2841744 100.0997144  46.3149291 112.5000201  99.9127072
  47.7150191 112.9560461 100.2643663  44.4920969 107.0282760  96.0592956
  44.2945790 106.7197848  96.9436288  45.1020675 107.7544399  96.1890886
  52.4992304 117.5546708  99.1944897  53.2295692 117.2931996  99.7552600
  51.8899249 116.8175430  99.2346965  50.5807601 115.6954570  99.7919348
  49.8540764 115.5610535  99.1835840  50.1654888 116.0031399 100.5976066
  38.4037777 119.4144500 107.5566721  39.3240787 119.5923099 107.7506768
  38.3687360 118.4700545 107.4046421  36.7042002 113.2876730  86.0320950
  35.7973457 112.9909843  86.1083663  36.9817983 112.9906548  85.1655236
  27.6219942 114.6083094  96.4819996  27.3022726 113.7548402  96.1894370
  27.0753370 114.8231672  97.2377963  31.3999850 117.3245535 100.1989503
  31.6185859 118.2562643 100.2177536  31.8125624 116.9653509 100.9844306
  38.3204067 107.8313620  92.1865191  37.5104796 107.4860705  92.5620437
  39.0088484 107.5221164  92.7752802  40.2494616 106.9091667  93.8089488
  40.8025654 107.3287120  94.4679511  40.4864702 105.9827415  93.8512444
  36.2727715 112.8978741 109.5892251  36.1724442 113.8473097 109.5204343
  36.0549257 112.5696979 108.7168322  35.4740786 110.1463666  86.1732929
  36.3359950 110.4718564  86.4328746  35.6591131 109.3595161  85.6605995
  27.4908202 118.2286005  98.4513118  26.7971674 117.8139958  97.9383072
  28.2381193 118.2706542  97.8546536  43.6273423 109.0192192  93.3168152
  43.0472092 109.6776996  92.9346204  43.3609356 108.1969537  92.9055569
  42.0776989 108.4197250  95.5189472  42.5776768 108.5313784  94.7103791
  42.7212597 108.1158303  96.1590281  36.1358985 116.3275879 108.4057313
  35.6526067 117.1276239 108.6121202  36.2219924 116.3383824 107.4524757
  29.4044945 118.1604259  96.3279132  29.3815633 118.2591946  95.3761016
  29.7145581 119.0069410  96.6496299  32.0632323 120.2180414 100.4425747
  33.0175576 120.1864356 100.3755678  31.8644846 119.7571038 101.2575973
  32.6531705 118.7881530 103.0096545  33.4724594 119.2825609 103.0331382
  32.9268512 117.8713498 102.9814112  42.4098301 111.1792282  92.3724500
  41.5224156 111.4641933  92.1544695  42.8252290 111.0186046  91.5251777
  45.7612837 111.2038803  96.0878839  46.5373227 111.6935256  96.3603456
  45.0360971 111.6296858  96.5450709  48.1985396 111.9166423  97.1452780
  48.7929886 111.6762159  96.4346088  48.2711979 111.1973553  97.7726316
  30.4182551 125.7600034  97.4595945  30.2837019 125.0000434  96.8933943
  30.0014614 126.4840933  96.9924734  41.5541514 120.9436957  86.4672520
  42.2577364 121.1486960  87.0830176  40.8304163 121.5113719  86.7321604
  42.3839325 116.6946818  92.5874790  42.3274526 117.1515370  91.7482423
  42.9367667 115.9337503  92.4097633  46.1944131 112.4836550  93.4124910
  45.9381065 112.0833186  94.2433117  45.5696999 113.1980344  93.2875049
  50.5056468 115.2232623  95.9196201  49.9456026 115.2925813  96.6927763
  49.8999972 115.0473608  95.1995697  33.5751677 126.6569351  97.6714387
  33.4584061 127.6014783  97.5693078  32.7544123 126.3542912  98.0600187
  43.4628212 121.3819486  88.5170980  44.2973816 120.9500685  88.3348455
  43.3012555 121.2101500  89.4447875  43.1174104 117.8851600  89.8827319
  43.0622908 117.7195871  88.9415764  42.4920159 118.5927632  90.0389509
  27.9066619 113.1219664 103.7088742  28.5525483 112.6118618 104.1975967
  27.6983770 113.8588346 104.2832167  40.4320011 120.1900511 109.2080882
  41.3011171 120.3641164 108.8467517  39.9526763 121.0094928 109.0856612
  36.4270229 107.3859709  89.4612638  36.4148899 108.3301549  89.6180909
  37.3193651 107.2029854  89.1672099  34.6006191 127.3097612 100.8870316
  35.5033438 127.3421223 101.2036811  34.3743561 126.3798063 100.9016652
  36.3559793 126.0628599  97.5480394  35.4055424 126.0630461  97.4344767
  36.6592280 125.3161334  97.0316429  40.2422349 103.9802485  93.7158575
  39.4754745 103.4260972  93.8615257  40.6533054 104.0524354  94.5772726
  32.2464110 110.2687281 107.8063756  33.1095571 109.9124086 108.0167080
  31.6729521 109.9301176 108.4939160  52.0912487 131.8989137  98.6126157
  52.7290897 131.7795885  97.9089497  51.9733330 132.8469981  98.6714109
  48.9002193 131.8516565  98.5487682  48.5620705 131.7357630  97.6608216
  49.7691961 131.4507731  98.5288688  44.7589009 133.7052042  94.5384572
  44.1953874 133.6141979  93.7700860  44.6441404 132.8851946  95.0187065
  49.3821976 133.0051417 104.5073887  49.3710617 132.6104215 103.6354391
  49.5442616 132.2717490 105.1007659  42.3053441 135.2003234  97.3768793
  43.0974733 134.8594058  96.9615092  42.5450091 135.3098209  98.2970946
  44.2644195 134.4612147  90.2486172  45.0375071 133.9141134  90.1099048
  44.6169594 135.3256396  90.4600633  47.0285444 133.1665378 100.0454431
  47.6249016 132.9421400  99.3311394  47.0860416 132.4250123 100.6479879
  46.6010473 130.6204813  87.8804622  46.8535993 130.0986334  87.1188085
  45.6635032 130.4570958  87.9831305  51.6453755 129.6240591  95.6879365
  52.4316845 129.2060014  95.3369782  51.9092460 130.5286683  95.8561013
  51.8163833 135.0613442  90.3868022  51.1809666 135.1348068  91.0988926
  51.4861239 135.6507040  89.7087101  57.0462182 129.5615824  96.5912343
  57.7787354 128.9915041  96.8250173  56.2901538 129.1737425  97.0318849
  46.3206761 132.5232919  90.0828997  46.2043019 131.8477822  90.7510081
  46.4309021 132.0365293  89.2661150  48.6638302 131.9843066  93.7875686
  48.2996509 131.4573687  94.4988607  49.5205418 131.5941535  93.6142171
  54.5687603 123.2737399 101.0506952  54.2370928 124.1432810 100.8268167
  53.9733216 122.9573683 101.7300982  48.3043789 127.0132966  88.7837034
  48.4718192 127.8813202  89.1507505  48.1140958 127.1760247  87.8598324
  51.0619122 135.4749945 100.4502865  50.7619845 136.3774983 100.3418672
  50.7170182 135.2082128 101.3024018  44.5131604 131.9263741  96.4839569
  43.5882100 131.7939955  96.6917261  44.7616017 132.7057961  96.9809512
  54.4616266 127.9932485  98.1300302  53.5533143 127.9247893  97.8359063
  54.4103862 128.4704430  98.9582128  48.2833010 129.4690623  89.7683701
  48.1632635 129.9147674  90.6069181  47.5885598 129.8175941  89.2097239
  41.8740415 131.5697015  97.3183358  42.0032796 131.8231494  98.2322770
  41.1937866 132.1624723  96.9988013  48.5357132 129.4122130 106.0735199
  47.7590466 129.9716050 106.0638064  49.1747695 129.8978913 106.5950069
  56.3277913 126.1948923  99.9078176  55.6852293 126.4881456  99.2617971
  55.8232841 126.0801843 100.7131373  53.9818076 129.9412096  90.5964035
  54.8935932 130.1739483  90.4211733  53.4727723 130.5249141  90.0339114
  46.7903504 132.2207584 105.6353166  47.5318189 132.7592628 105.3587990
  46.0840490 132.8473872 105.7924718  52.2658844 134.3636724 104.2325328
  52.6742200 133.9219135 103.4879960  51.5436105 133.7889352 104.4859521
  48.6189914 129.3009331 101.6058885  49.4651109 129.7248744 101.7493534
  48.5588552 128.6442955 102.2997448  52.5887659 134.9237915  97.9877617
  51.9596521 135.0883629  97.2853685  52.2013321 135.3379524  98.7588581
  56.4676890 135.8592353  95.3421980  55.7827929 136.2391254  94.7919014
  56.5520740 136.4687679  96.0753928  51.7689359 126.9613699 103.2640058
  51.5250291 127.7155760 102.7274334  52.0449290 127.3399047 104.0987305
  53.7227822 133.5052312 101.9417324  53.9344717 134.1484072 101.2651705
  53.6757570 132.6714628 101.4739254  51.3254051 126.1170132  98.8453896
  50.4638530 126.4151386  99.1370634  51.3516486 126.3340531  97.9134929
  48.1415620 134.6612323  95.2527702  48.6053966 134.9400026  94.4632324
  47.8772418 133.7595767  95.0700792  45.0339701 134.2083804  98.1907465
  45.6041059 134.6371073  97.5524950  45.6247813 133.9266389  98.8891651
  47.0784506 130.7835475  92.0617267  47.7808550 131.2356519  92.5291193
  46.7465135 130.1419294  92.6897160  45.5264868 129.3747232 106.4368476
  44.8963529 130.0563513 106.6703873  45.4200956 129.2630313 105.4921615
  40.8209840 129.0419028  97.3634401  40.0308894 129.2976556  96.8874511
  41.3121088 129.8567366  97.4686441  54.8373650 136.3824267 100.1139681
  55.6591094 135.9804454  99.8322363  54.8336053 136.2792501 101.0655797
  42.7724586 129.4063607  94.3217877  41.9755749 129.5182301  94.8401373
  42.5450178 129.7450259  93.4558768  48.6030253 135.9308310 102.2700392
  48.6674686 136.3928718 103.1058564  47.8941177 135.3005675 102.3982702
  39.1047543 129.2949518  99.7949391  39.3555582 130.1796528 100.0606967
  39.6407092 129.1154120  99.0224483  62.9279643 132.7263016  96.4624653
  62.1743351 132.1570414  96.3068657  63.0627184 132.6925680  97.4095287
  44.8045611 123.6767998 108.7993727  44.4112556 123.1234196 109.4741372
  45.6211751 123.9878576 109.1900245  47.7213572 125.0925877 106.3913984
  48.4623285 125.6933030 106.3118446  47.9531495 124.3503515 105.8332027
  42.8654910 130.2782244 104.6692214  42.7508425 129.3767501 104.9699313
  42.0099427 130.5245941 104.3177030  48.5001040 136.0146914 105.1384624
  49.0329376 135.2535202 104.9083932  47.9715121 135.7220566 105.8808778
  51.6670735 121.1206980 100.6678266  51.3235004 122.0108621 100.5917376
  52.0349697 120.9308637  99.8047851  39.7356585 133.4440510  93.4866868
  40.5731807 133.8537519  93.2700575  39.9134853 132.5039952  93.4567062
  51.6321017 131.1115591  89.1750701  51.1167641 131.8820195  89.4139088
  51.3598326 130.4380727  89.7983762  49.2168128 125.9565292  94.2335939
  48.3609725 125.5672142  94.0541578  49.6295080 126.0357252  93.3735725
  50.7467275 123.4911635  98.6327499  50.2432071 123.4541770  97.8195304
  51.0397882 124.4004378  98.6924156  46.9910161 123.5750365  97.6393681
  47.8563158 123.3793173  97.2799570  47.0587670 123.3460716  98.5663037
  56.6055291 133.8647945  91.1103874  55.8284734 133.5259105  90.6659036
  57.2846772 133.8700569  90.4358839  51.4207321 128.9842683  91.0010482
  51.1157456 129.2988832  91.8520625  52.3737763 129.0624103  91.0437815
  49.8653752 135.1432906  92.6503436  49.3375114 134.4085666  92.3376673
  49.3641255 135.9207583  92.4043404  54.8446598 133.3381927  97.7670482
  54.1870273 134.0281188  97.8550611  55.6486998 133.7278359  98.1104469
  44.5972480 125.8052573  95.0110047  45.1716232 125.5827754  94.2783240
  45.1843462 125.8741267  95.7638649  53.6552057 131.6926299  95.8174424
  54.1683939 132.3256291  96.3196134  54.3053281 131.0927495  95.4517784
  44.9242067 127.8357034  89.0305933  44.0879379 128.1731720  89.3515207
  44.7846837 127.7006013  88.0933070  46.8995148 122.6793821  93.7385117
  46.2459560 122.3642839  93.1141732  46.8575622 122.0569562  94.4644940
  48.0106353 132.9613117  85.6538409  47.1033414 132.7302370  85.8529558
  48.5077385 132.1650736  85.8412390  50.1332888 129.1675755  98.0632764
  49.2155449 129.3890702  97.9054453  50.5493032 129.2422065  97.2044472
  50.9167936 130.5667171  93.1935445  51.6639755 131.0788568  92.8842567
  51.1859525 130.2451223  94.0539838  49.1894586 133.0625711  90.1762399
  48.2805805 132.7784744  90.2734869  49.2189670 133.4824790  89.3165706
  54.4213853 136.6732301  93.9453567  53.9676181 135.8323211  94.0018757
  53.7907820 137.3093699  94.2828347  53.3646773 127.6024287  95.1754234
  52.6269530 127.0901673  95.5064477  53.6173547 127.1624669  94.3637511
  52.8646793 138.5108798  94.8803385  53.1569767 139.0713855  94.1615750
  53.3745413 138.8037359  95.6356544  53.4658400 120.3800539  95.7696003
  53.7717277 119.5197902  95.4821918  54.1911005 120.9718159  95.5694997
  39.7582756 130.7831225  94.1577601  39.5607156 130.1900586  93.4328668
  39.2029420 130.4783436  94.8753540  47.7379480 130.6754332  96.2772194
  47.7928090 129.7228168  96.2014671  46.9270682 130.8313771  96.7613493
  48.8870674 134.6034455  87.5150478  48.4490104 133.8870314  87.0556115
  49.6281115 134.8310570  86.9535569  45.6771840 129.2931392  94.0362573
  44.8639705 129.5925562  94.4427765  46.1730834 128.8987080  94.7537055
  51.2746052 129.7573216 102.8677467  51.6295439 129.9844689 103.7271933
  51.9218183 130.0891593 102.2454722  57.0043789 132.8791652  93.5726796
  56.8661687 133.0693248  92.6447985  56.6480007 133.6411035  94.0294847
  45.1685915 126.8649747  99.6523808  45.8085294 126.7238506  98.9546772
  44.3363445 126.5784261  99.2762410  57.0313168 134.9468179  98.5838068
  57.4649675 134.8543468  99.4321122  57.7444749 134.9225680  97.9458084
  45.9446219 136.1652178  95.7658801  46.7386817 135.6702498  95.5641376
  45.2337911 135.6370041  95.4026506  42.2528982 130.3095259  91.8418553
  41.3226570 130.2479715  92.0588515  42.3486454 129.7871212  91.0455195
  42.1714531 126.8350072  94.4296795  42.4321348 127.7495405  94.3205955
  42.9931703 126.3674515  94.5793408  43.6439456 128.2487829 101.5995620
  44.3162510 128.0405192 100.9508268  42.8169243 128.0509915 101.1600852
  57.8928718 134.9891880 101.1170953  58.0864608 135.8937690 101.3630228
  57.7929336 134.5299299 101.9509538  49.5465028 124.8749770 103.6161280
  48.8992944 125.5739720 103.5225757  50.3166044 125.3085914 103.9837529
  52.9543826 135.1398622 106.6911834  52.8029333 134.9109174 105.7741917
  52.9448506 136.0969224 106.7043179  49.7229163 132.7130535 101.6758100
  50.6521223 132.8641695 101.5027067  49.3020193 132.8014556 100.8206747
  50.0722710 136.1162802  96.8345476  49.7372542 136.0763572  97.7303125
  49.5726655 135.4507518  96.3615886  44.0466954 131.5230432 102.3598057
  43.9086752 130.7910671 102.9609596  44.9571877 131.4339332 102.0782244
  53.0081901 133.4618837  87.1082535  52.3911072 132.7365665  87.0115588
  52.5398390 134.2228197  86.7649609  46.6749254 131.2350392 101.8481736
  47.3848873 130.5943584 101.8068355  46.6318563 131.4863287 102.7707917
  54.6636033 138.1717745 104.7688316  54.6048579 137.4876965 104.1018899
  55.0655551 138.9136735 104.3168942  45.3878188 128.2215610 103.6677376
  44.8515545 127.7706348 104.3198972  44.7994897 128.3561518 102.9247840
  44.7980447 127.6804261  86.2303839  43.9209914 127.5593062  85.8666086
  45.2738200 126.8890339  85.9782728  54.6653440 136.1357329 103.0002295
  53.7780219 135.7983251 103.1228694  55.2351991 135.4040360 103.2371061
  41.1217310 127.3571617 100.7530370  41.0375498 126.7497287 100.0180780
  40.3000016 127.8480636 100.7539867  51.2941023 125.8425181  96.1200565
  51.7909723 125.0895143  95.8001636  50.5228005 125.8789497  95.5543775
  59.1470781 131.5465546  97.7618857  59.1360657 132.4290262  97.3912790
  58.2788160 131.1937097  97.5673394  52.3770804 134.5996868  93.6938989
  51.4427083 134.7198330  93.5243693  52.5547473 133.6969335  93.4298999
  47.8775992 127.9842564  95.8472250  47.5073780 127.4313604  96.5353156
  48.3735085 127.3800697  95.2947250  55.7643356 130.4414187  94.2289023
  56.2303808 131.2742179  94.1549326  56.2150856 129.9759169  94.9334281
  53.8319587 136.7858009  91.2275175  54.1079431 136.6714603  92.1369049
  52.9624085 136.3875493  91.1887348  53.7360018 122.8094774  98.2679924
  52.8223098 123.0399001  98.4362131  54.1653120 122.8933218  99.1193957
  53.5066477 130.9984666 100.7679818  52.8537927 131.2460574 100.1132271
  53.8846857 130.1848804 100.4342296  49.5554050 131.7404477 107.2545855
  48.8794687 131.6398607 107.9248231  50.3781684 131.5843691 107.7181853
  35.8950564 130.5482014  98.5962814  35.9334663 130.0145605  99.3899932
  35.3890856 130.0217220  97.9773791  43.2741326 125.3946555 102.0925356
  43.3382652 126.2561385 101.6802754  43.2108446 124.7820556 101.3597715
  42.7493598 127.4669687 105.7398390  43.3765637 127.0846764 106.3535915
  41.8921517 127.2483889 106.1054083  53.1487707 137.8732662 107.3452126
  53.6927611 138.4862621 106.8507081  52.5674552 138.4312241 107.8619139
  39.5259141 129.2746116  91.6716745  39.8212582 128.3656795  91.6183799
  38.6247177 129.2533856  91.3497747  43.0553388 127.3502113  97.6544294
  42.3339974 127.9638081  97.5151767  43.8446644 127.8859878  97.5760940
  53.4980128 138.7962400 100.1046704  52.5510464 138.6767752 100.0325030
  53.8462901 137.9084898 100.1872965  45.8579702 124.6856539 103.9284945
  46.3814103 124.9318836 104.6911255  45.6392035 125.5176574 103.5088083
  41.2546983 126.9560214  91.7956070  40.9259689 126.0757593  91.6131176
  41.6086353 126.9007883  92.6832460  44.3688806 127.2433184  92.1631548
  44.7084878 127.7719105  91.4410156  44.8160926 127.5813590  92.9390115
  54.1060683 139.4143675  97.3915929  55.0307231 139.2086537  97.2540380
  53.9375987 139.1660077  98.3005270  47.0632247 125.6270234 101.6134616
  46.7229067 124.8278047 102.0155296  46.3571253 125.9271945 101.0411449
  47.7148719 122.7119547 100.0661939  48.5374788 122.2380025  99.9440829
  47.9586782 123.4910031 100.5660625  46.3556953 125.7407805  90.3624841
  47.0765316 126.1189058  89.8588558  45.7322257 126.4596682  90.4659819
  50.4988076 126.4452954  91.2983173  50.7151690 127.3277592  90.9972001
  50.0182143 126.0539168  90.5688815  45.2387297 129.4038667  97.8753918
  45.0931878 129.7178971  98.7678199  44.7612501 130.0223568  97.3224816
  47.0983680 126.3941215  97.9234807  47.0845249 125.4982309  97.5867105
  47.8156108 126.4011879  98.5573093  48.9509811 126.8278556  99.9687935
  48.6927589 127.7495626  99.9672265  48.4194851 126.4308990 100.6588399
  39.7132959 131.9444012 100.8141579  39.1686428 132.7203820 100.9461853
  40.5912309 132.2914816 100.6560700  46.5020576 125.2755596  93.1922377
  46.6236487 124.3472242  93.3913265  46.2122618 125.2894282  92.2800693
  49.3711767 122.9610506  96.3289097  49.3933463 123.0249839  95.3741077
  49.7879826 122.1215015  96.5229603  59.7495391 132.6965766  94.3668320
  60.1926537 131.9473091  93.9687443  58.8721901 132.6875902  93.9842052
  54.8831172 139.2496107  89.8474918  55.5782077 139.8702800  90.0662233
  55.2254322 138.3991458  90.1227296  40.4998981 131.0713908 103.7071736
  39.7580717 131.2196543 104.2936366  40.1791726 131.3322174 102.8438485
  56.7822595 136.6995813  91.3762249  57.3073919 137.0383085  90.6511569
  56.6944948 135.7642828  91.1925384  45.9861656 126.7887593 107.4012310
  46.0349811 127.6649716 107.0190080  46.5284170 126.2464986 106.8283953
  56.4716501 137.3328716 106.6813447  55.6812045 137.3152855 106.1417946
  56.2349856 137.8717010 107.4362484  56.5914376 134.1821183 103.9946176
  56.6412381 134.0171190 104.9361698  56.4828300 133.3148442 103.6044056
  53.8818139 130.1652111 105.3105482  54.7828002 130.0258576 105.0189480
  53.9566113 130.3306566 106.2503660  48.2160944 127.5418966 104.1558669
  47.3464254 127.8352532 103.8841257  48.4520424 128.1259411 104.8765932
  58.0932573 136.6018124 104.2388197  57.8017382 136.9648105 105.0751658
  57.4804704 135.8885133 104.0601529  59.2928256 134.1671004  96.7590767
  60.1275147 134.6060808  96.9228328  59.4287384 133.6909657  95.9399013
  56.3419761 131.7250739 102.7068255  56.8173883 131.9178385 101.8987106
  55.4185327 131.7809925 102.4611639  43.2303268 132.8874906  92.2899333
  42.9849310 131.9837236  92.4879544  43.3999183 132.8892057  91.3478811
  50.9199978 123.7598582 101.6724089  51.4381922 124.4959609 101.3470578
  50.5655111 124.0662576 102.5070848  42.4998916 128.6203264  89.7885495
  41.8068161 128.6947619  89.1325531  42.2550667 127.8563607  90.3107012
  51.1712572 120.1798865  97.1924986  51.4514326 119.5122054  97.8185412
  51.9563179 120.3727961  96.6799649  55.0421430 128.6016499 100.9396561
  55.9938853 128.7014597 100.9608785  54.8724881 127.8094768 101.4494645
  53.0635810 125.6872082 101.1255962  52.4685742 125.9677095 100.4302450
  52.7785507 126.1765983 101.8972703  54.8231317 138.9560879  86.8462542
  54.7444949 138.6220743  87.7398300  55.6440984 139.4482647  86.8454014
  57.5209508 131.8222619 100.0538860  57.4885828 130.8838619 100.2398544
  58.1310132 131.9006655  99.3204685  49.3592839 130.6918672  86.0966064
  50.3051944 130.5624880  86.1654482  48.9807084 129.9533334  86.5735493
  57.6703997 128.6133662 100.0997144  57.1543045 127.8292119  99.9127072
  58.5543945 128.2852379 100.2643663  55.3314724 122.3574678  96.0592956
  55.1339545 122.0489766  96.9436288  55.9414429 123.0836317  96.1890886
  63.3386058 132.8838625  99.1944897  64.0689447 132.6223914  99.7552600
  62.7293004 132.1467347  99.2346965  61.4201355 131.0246488  99.7919348
  60.6934519 130.8902453  99.1835840  61.0048642 131.3323317 100.5976066
  49.2431532 134.7436418 107.5566721  50.1634541 134.9215017 107.7506768
  49.2081115 133.7992463 107.4046421  47.5435756 128.6168648  86.0320950
  46.6367212 128.3201761  86.1083663  47.8211737 128.3198466  85.1655236
  38.4613697 129.9375011  96.4819996  38.1416481 129.0840320  96.1894370
  37.9147125 130.1523590  97.2377963  42.2393604 132.6537452 100.1989503
  42.4579614 133.5854560 100.2177536  42.6519378 132.2945427 100.9844306
  49.1597822 123.1605538  92.1865191  48.3498550 122.8152623  92.5620437
  49.8482239 122.8513081  92.7752802  51.0888370 122.2383585  93.8089488
  51.6419409 122.6579038  94.4679511  51.3258457 121.3119333  93.8512444
  47.1121470 128.2270658 109.5892251  47.0118196 129.1765015 109.5204343
  46.8943012 127.8988897 108.7168322  46.3134541 125.4755583  86.1732929
  47.1753705 125.8010482  86.4328746  46.4984885 124.6887079  85.6605995
  38.3301957 133.5577923  98.4513118  37.6365428 133.1431876  97.9383072
  39.0774948 133.5998459  97.8546536  54.4667177 124.3484110  93.3168152
  53.8865846 125.0068914  92.9346204  54.2003110 123.5261454  92.9055569
  52.9170744 123.7489167  95.5189472  53.4170522 123.8605702  94.7103791
  53.5606352 123.4450220  96.1590281  46.9752740 131.6567797 108.4057313
  46.4919821 132.4568157 108.6121202  47.0613679 131.6675742 107.4524757
  40.2438699 133.4896177  96.3279132  40.2209387 133.5883864  95.3761016
  40.5539336 134.3361327  96.6496299  43.4925459 134.1173448 103.0096545
  44.3118348 134.6117526 103.0331382  43.7662267 133.2005416 102.9814112
  53.2492055 126.5084200  92.3724500  52.3617910 126.7933851  92.1544695
  53.6646044 126.3477963  91.5251777  56.6006592 126.5330721  96.0878839
  57.3766982 127.0227174  96.3603456  55.8754726 126.9588775  96.5450709
  59.0379150 127.2458340  97.1452780  59.6323641 127.0054076  96.4346088
  59.1105734 126.5265471  97.7726316  52.3935269 136.2728875  86.4672520
  53.0971119 136.4778877  87.0830176  51.6697918 136.8405637  86.7321604
  53.2233079 132.0238736  92.5874790  53.1668281 132.4807287  91.7482423
  53.7761422 131.2629421  92.4097633  57.0337885 127.8128468  93.4124910
  56.7774819 127.4125104  94.2433117  56.4090753 128.5272262  93.2875049
  61.3450223 130.5524541  95.9196201  60.7849781 130.6217730  96.6927763
  60.7393726 130.3765526  95.1995697  54.3021966 136.7111404  88.5170980
  55.1367570 136.2792602  88.3348455  54.1406309 136.5393418  89.4447875
  53.9567858 133.2143517  89.8827319  53.9016662 133.0487789  88.9415764
  53.3313914 133.9219550  90.0389509  38.7460373 128.4511582 103.7088742
  39.3919237 127.9410536 104.1975967  38.5377525 129.1880263 104.2832167
  51.2713766 135.5192429 109.2080882  52.1404925 135.6933081 108.8467517
  50.7920517 136.3386846 109.0856612  47.2663984 122.7151626  89.4612638
  47.2542654 123.6593466  89.6180909  48.1587406 122.5321772  89.1672099
  51.0816103 119.3094403  93.7158575  50.3148499 118.7552890  93.8615257
  51.4926808 119.3816272  94.5772726  43.0857864 125.5979199 107.8063756
  43.9489326 125.2416004 108.0167080  42.5123275 125.2593094 108.4939160
  65.4081357 138.6029316 101.0506952  65.0764682 139.4724727 100.8268167
  64.8126971 138.2865600 101.7300982  67.1671667 141.5240841  99.9078176
  66.5246047 141.8173374  99.2617971  66.6626596 141.4093761 100.7131373
  62.1647805 141.4462050  98.8453896  61.3032284 141.7443304  99.1370634
  62.1910240 141.6632449  97.9134929  55.6439365 139.0059915 108.7993727
  55.2506311 138.4526114 109.4741372  56.4605506 139.3170494 109.1900245
  58.5607326 140.4217794 106.3913984  59.3017040 141.0224948 106.3118446
  58.7925249 139.6795432 105.8332027  62.5064489 136.4498897 100.6678266
  62.1628759 137.3400539 100.5917376  62.8743452 136.2600555  99.8047851
  60.0561883 141.2857209  94.2335939  59.2003479 140.8964060  94.0541578
  60.4688835 141.3649170  93.3735725  61.5861030 138.8203553  98.6327499
  61.0825825 138.7833688  97.8195304  61.8791636 139.7296295  98.6924156
  57.8303915 138.9042282  97.6393681  58.6956912 138.7085091  97.2799570
  57.8981424 138.6752634  98.5663037  57.7388902 138.0085739  93.7385117
  57.0853315 137.6934756  93.1141732  57.6969376 137.3861480  94.4644940
  64.2040527 142.9316205  95.1754234  63.4663284 142.4193591  95.5064477
  64.4567301 142.4916586  94.3637511  64.3052155 135.7092457  95.7696003
  64.6111032 134.8489820  95.4821918  65.0304760 136.3010077  95.5694997
  60.3858783 140.2041688 103.6161280  59.7386698 140.9031638 103.5225757
  61.1559798 140.6377832 103.9837529  62.1334778 141.1717098  96.1200565
  62.6303477 140.4187061  95.8001636  61.3621759 141.2081415  95.5543775
  64.5753773 138.1386692  98.2679924  63.6616853 138.3690919  98.4362131
  65.0046874 138.2225136  99.1193957  58.5542473 138.0411465 100.0661939
  59.3768542 137.5671943  99.9440829  58.7980537 138.8201948 100.5660625
  60.2105521 138.2902424  96.3289097  60.2327218 138.3541757  95.3741077
  60.6273580 137.4506932  96.5229603  61.7593732 139.0890500 101.6724089
  62.2775676 139.8251527 101.3470578  61.4048865 139.3954493 102.5070848
  62.0106327 135.5090783  97.1924986  62.2908080 134.8413972  97.8185412
  62.7956934 135.7019878  96.6799649  63.9029564 141.0164000 101.1255962
  63.3079497 141.2969013 100.4302450  63.6179261 141.5057901 101.8972703
  68.5097751 143.9425580 100.0997144  67.9936800 143.1584036  99.9127072
  69.3937700 143.6144296 100.2643663  66.1708478 137.6866595  96.0592956
  65.9733299 137.3781684  96.9436288  66.7808184 138.4128234  96.1890886
  59.9991576 138.4897455  92.1865191  59.1892305 138.1444540  92.5620437
  60.6875993 138.1804999  92.7752802  61.9282125 137.5675502  93.8089488
  62.4813163 137.9870956  94.4679511  62.1652211 136.6411250  93.8512444
  65.3060932 139.6776027  93.3168152  64.7259601 140.3360831  92.9346204
  65.0396865 138.8553372  92.9055569  63.7564498 139.0781085  95.5189472
  64.2564277 139.1897620  94.7103791  64.4000106 138.7742138  96.1590281
  64.0885810 141.8376118  92.3724500  63.2011665 142.1225768  92.1544695
  64.5039799 141.6769881  91.5251777  67.4400346 141.8622639  96.0878839
  68.2160736 142.3519091  96.3603456  66.7148480 142.2880693  96.5450709
  69.8772905 142.5750258  97.1452780  70.4717395 142.3345994  96.4346088
  69.9499488 141.8557389  97.7726316  67.8731640 143.1420386  93.4124910
  67.6168574 142.7417021  94.2433117  67.2484508 143.8564179  93.2875049
  58.1057738 138.0443544  89.4612638  58.0936408 138.9885384  89.6180909
  58.9981160 137.8613689  89.1672099  61.9209858 134.6386321  93.7158575
  61.1542254 134.0844807  93.8615257  62.3320563 134.7108189  94.5772726
   2.8493411  29.9218359  83.3157650   3.5818583  29.3517575  83.5495480
   2.0932767  29.5339959  83.7564156   2.1309141  26.5551457  86.6323483
   1.4883522  26.8483990  85.9863277   1.6264070  26.4404378  87.4376679
   2.2708119  36.2194887  82.0667287   1.5859157  36.5993788  81.5164320
   2.3551969  36.8290213  82.7999235   0.6404879  36.7426801  86.8384988
   1.4622322  36.3406989  86.5567670   0.6367282  36.6395035  87.7901104
   8.7310872  33.0865550  83.1869959   7.9774580  32.5172948  83.0313964
   8.8658413  33.0528214  84.1340594   2.4086520  34.2250480  77.8349181
   1.6315963  33.8861639  77.3904343   3.0878001  34.2303103  77.1604146
   2.8075017  33.2394186  80.2972103   2.6692916  33.4295782  79.3693292
   2.4511236  34.0013569  80.7540154   2.8344397  35.3070713  85.3083374
   3.2680904  35.2146002  86.1566428   3.5475978  35.2828214  84.6703390
   3.6959947  35.3494414  87.8416260   3.8895837  36.2540224  88.0875535
   3.5960565  34.8901833  88.6754845   4.9502010  31.9068081  84.4864164
   4.9391886  32.7892796  84.1158097   4.0819389  31.5539631  84.2918701
   1.5674584  30.8016722  80.9534330   2.0335037  31.6344713  80.8794632
   2.0182085  30.3361703  81.6579588   5.5526620  33.0568300  81.0913626
   5.9957766  32.3075625  80.6932750   4.6753130  33.0478436  80.7087358
   0.6862401  39.6098641  76.5720225   1.3813306  40.2305334  76.7907540
   1.0285551  38.7593993  76.8472603   2.5853824  37.0598347  78.1007556
   3.1105148  37.3985620  77.3756876   2.4976177  36.1245362  77.9170690
   2.2747730  37.6931251  93.4058754   1.4843274  37.6755389  92.8663253
   2.0381085  38.2319544  94.1607790   2.3945605  34.5423717  90.7191482
   2.4443610  34.3773724  91.6607005   2.2859529  33.6750976  90.3289363
   3.8963802  36.9620658  90.9633504   3.6048610  37.3250639  91.7996965
   3.2835933  36.2487667  90.7846836   5.0959484  34.5273538  83.4836074
   5.9306376  34.9663342  83.6473634   5.2318613  34.0512191  82.6644320
   2.1450990  32.0853273  89.4313562   2.6205112  32.2780919  88.6232413
   1.2216556  32.1412459  89.1856945   0.8452659  28.9619033  87.6641867
   1.7970082  29.0617131  87.6854091   0.6756110  28.1697302  88.1739952
   0.6262546  39.3163414  73.5707848   0.5476177  38.9823277  74.4643606
   1.4472213  39.8085181  73.5699321   3.3240737  32.1825153  86.7784167
   3.2917057  31.2441154  86.9643851   3.9341361  32.2609190  86.0449992
   3.4735226  28.9736196  86.8242450   2.9574274  28.1894653  86.6372379
   4.3575174  28.6454913  86.9888970   1.1345952  22.7177212  82.7838263
   0.9370774  22.4092300  83.6681595   1.7445658  23.4438851  82.9136193
   9.1417287  33.2441160  85.9190204   9.8720675  32.9826448  86.4797907
   8.5324232  32.5069882  85.9592272   7.2232584  31.3849022  86.5164655
   6.4965748  31.2504987  85.9081147   6.8079871  31.6925851  87.3221373
   2.4037820  26.8933255  82.8124146   3.1798210  27.3829708  83.0848763
   1.6785954  27.3191309  83.2696015   4.8410379  27.6060874  83.8698087
   5.4354870  27.3656610  83.1591395   4.9136963  26.8868005  84.4971623
   2.8369114  28.1731002  80.1370216   2.5806048  27.7727638  80.9678424
   2.2121982  28.8874796  80.0120356   7.1481452  30.9127075  82.6441508
   6.5881010  30.9820265  83.4173070   6.5424955  30.7368060  81.9241004
   8.7337470  47.5883589  85.3371463   9.3715880  47.4690337  84.6334804
   8.6158313  48.5364433  85.3959416   5.5427176  47.5411017  85.2732988
   5.2045688  47.4252082  84.3853523   6.4116945  47.1402182  85.2533994
   1.4013992  49.3946494  81.2629879   0.8378857  49.3036431  80.4946167
   1.2866387  48.5746398  81.7432372   6.0246959  48.6945869  91.2319194
   6.0135600  48.2998667  90.3599697   6.1867599  47.9611942  91.8252965
   6.9813551  53.0617461  76.5744344   6.3301531  53.6471542  76.1878358
   7.7757914  53.5923656  76.6339382   0.9069178  50.1506599  76.9731478
   1.6800054  49.6035586  76.8344354   1.2594577  51.0150848  77.1845940
   2.7454221  51.4782981  90.1798378   2.4544087  52.3828612  90.0645044
   3.3811205  51.5199509  90.8942447   3.6710427  48.8559829  86.7699737
   4.2674000  48.6315852  86.0556700   3.7285399  48.1144575  87.3725185
   3.2435456  46.3099265  74.6049928   3.4960977  45.7880786  73.8433391
   2.3060015  46.1465410  74.7076612   8.2878739  45.3135043  82.4124672
   9.0741828  44.8954466  82.0615089   8.5517443  46.2181135  82.5806320
   8.4588816  50.7507893  77.1113328   7.8234649  50.8242520  77.8234233
   8.1286222  51.3401492  76.4332408  13.6887166  45.2510276  83.3157650
  14.4212338  44.6809493  83.5495480  12.9326521  44.8631877  83.7564156
   2.9631745  48.2127371  76.8074303   2.8468003  47.5372274  77.4755388
   3.0734004  47.7259745  75.9906456   5.3063285  47.6737518  80.5120992
   4.9421493  47.1468139  81.2233914   6.1630401  47.2835987  80.3387478
  11.2112586  38.9631850  87.7752259  10.8795911  39.8327261  87.5513474
  10.6158200  38.6468134  88.4546289   4.9468772  42.7027418  75.5082341
   5.1143175  43.5707654  75.8752812   4.7565942  42.8654699  74.5843630
   7.7044106  51.1644396  87.1748171   7.4044829  52.0669435  87.0663979
   7.3595165  50.8976580  88.0269324  11.1041249  43.6826937  84.8545609
  10.1958127  43.6142345  84.5604370  11.0528845  44.1598882  85.6827434
   4.9257993  45.1585075  76.4929008   4.8057619  45.6042126  77.3314488
   4.2310582  45.5070393  75.9342546   2.6864885  57.9288717  80.1419139
   2.6088915  58.8796542  80.2207620   2.0826529  57.5834589  80.7994065
   5.1782115  45.1016582  92.7980506   4.4015449  45.6610502  92.7883371
   5.8172678  45.5873365  93.3195376  12.9702896  41.8843375  86.6323483
  12.3277276  42.1775908  85.9863277  12.4657824  41.7696295  87.4376679
  10.6243060  45.6306548  77.3209342  11.5360916  45.8633935  77.1457039
  10.1152707  46.2143592  76.7584420   3.4328488  47.9102036  92.3598473
   4.1743172  48.4487080  92.0833297   2.7265473  48.5368324  92.5170025
   8.9083827  50.0531176  90.9570634   9.3167183  49.6113587  90.2125267
   8.1861089  49.4783804  91.2104827   5.2614897  44.9903783  88.3304191
   6.1076092  45.4143196  88.4738840   5.2013535  44.3337407  89.0242755
   9.2312642  50.6132367  84.7122923   8.6021504  50.7778081  84.0098991
   8.8438304  51.0273976  85.4833887  13.1101874  51.5486805  82.0667287
  12.4252912  51.9285706  81.5164320  13.1945723  52.1582131  82.7999235
   8.4114343  42.6508151  89.9885365   8.1675274  43.4050212  89.4519641
   8.6874273  43.0293499  90.8232612  10.3652805  49.1946764  88.6662631
  10.5769701  49.8378523  87.9897012  10.3182554  48.3609080  88.1984561
   7.9679034  41.8064584  85.5699203   7.1063513  42.1045838  85.8615940
   7.9941469  42.0234983  84.6380235   4.7840604  50.3506775  81.9773008
   5.2478949  50.6294478  81.1877631   4.5197402  49.4490219  81.7946099
   1.6764685  49.8978256  84.9152772   2.2466042  50.3265525  84.2770256
   2.2672797  49.6160841  85.6136957   3.7209490  46.4729927  78.7862574
   4.4233533  46.9250971  79.2536500   3.3890118  45.8313746  79.4142467
   2.1689851  45.0641684  93.1613783   1.5388512  45.7457965  93.3949180
   2.0625939  44.9524765  92.2166921  11.4798633  52.0718719  86.8384988
  12.3016077  51.6698906  86.5567670  11.4761036  51.9686953  87.7901104
   5.2455237  51.6202762  88.9945698   5.3099669  52.0823169  89.8303870
   4.5366161  50.9900127  89.1228008  19.5704626  48.4157467  83.1869959
  18.8168335  47.8464865  83.0313964  19.7052168  48.3820132  84.1340594
   4.9603254  53.2870870  78.8624679   4.8248929  54.1322405  79.2909527
   5.5013067  53.4890147  78.0990613   1.4470594  39.3662450  95.5239034
   1.0537540  38.8128648  96.1986678   2.2636734  39.6773028  95.9145552
   4.3638555  40.7820329  93.1159291   5.1048268  41.3827482  93.0363753
   4.5956478  40.0397966  92.5577333   6.5871731  53.9094436  92.9925021
   6.1435585  53.1230815  92.6745925   7.2488944  54.0973587  92.3268912
   1.3458852  55.4390238  87.5185699   1.8966277  55.3107301  86.7462693
   0.5070328  55.7385127  87.1680592   8.6852969  54.1897236  91.0206422
   8.6671444  55.0106117  90.5286691   9.6072889  54.0651311  91.2456563
   5.1426023  51.7041366  91.8629931   5.6754360  50.9429654  91.6329238
   4.6140104  51.4115017  92.6054085   8.3095718  36.8101432  87.3923572
   7.9659987  37.7003073  87.3162683   8.6774681  36.6203089  86.5293157
   8.2746001  46.8010043  75.8996007   7.7592624  47.5714647  76.1384395
   8.0023309  46.1275179  76.5229069   5.8593112  41.6459743  80.9581246
   5.0034708  41.2566594  80.7786884   6.2720063  41.7251704  80.0981031
   7.3892258  39.1806087  85.3572806   6.8857054  39.1436222  84.5440611
   7.6822865  40.0898829  85.4169462   3.6335144  39.2644816  84.3638987
   4.4988141  39.0687625  84.0044877   3.7012653  39.0355168  85.2908344
  13.2480275  49.5542397  77.8349181  12.4709718  49.2153557  77.3904343
  13.9271756  49.5595021  77.1604146   8.0632304  44.6737135  77.7255789
   7.7582439  44.9883284  78.5765932   9.0162746  44.7518555  77.7683122
   6.5078736  50.8327358  79.3748743   5.9800097  50.0980118  79.0621980
   6.0066238  51.6102034  79.1288711  11.4871582  49.0276379  84.4915789
  10.8295256  49.7175640  84.5795917  12.2911981  49.4172811  84.8349775
   1.2397463  41.4947024  81.7355354   1.8141215  41.2722206  81.0028547
   1.8268446  41.5635719  82.4883955  10.2977040  47.3820751  82.5419731
  10.8108922  48.0150743  83.0441440  10.9478264  46.7821947  82.1763091
   1.5667050  43.5251485  75.7551239   0.7304363  43.8626172  76.0760514
   1.4271820  43.3900465  74.8178376   3.5420131  38.3688273  80.4630423
   2.8884543  38.0537290  79.8387038   3.5000605  37.7464014  81.1890246
   4.6531336  48.6507568  72.3783716   3.7458398  48.4196822  72.5774865
   5.1502368  47.8545188  72.5657697   7.5599415  57.3605076  75.2980402
   6.8861113  57.6636772  75.9065360   7.9465237  58.1634156  74.9485859
   6.7757871  44.8570207  84.7878071   5.8580433  45.0785154  84.6299759
   7.1918015  44.9316517  83.9289778   7.5592919  46.2561623  79.9180751
   8.3064738  46.7683020  79.6087873   7.8284509  45.9345675  80.7785145
   5.8319569  48.7520163  76.9007706   4.9230789  48.4679196  76.9980175
   5.8614653  49.1719242  76.0411013  11.0638837  52.3626753  80.6698873
  10.6101164  51.5217663  80.7264064  10.4332803  52.9988151  81.0073653
  10.0071756  43.2918739  81.8999541   9.2694513  42.7796125  82.2309783
  10.2598530  42.8519120  81.0882818   9.5071776  54.2003249  81.6048691
   9.7994750  54.7608307  80.8861057  10.0170397  54.4931810  82.3601850
  10.1083384  36.0694991  82.4941310  10.4142260  35.2092354  82.2067225
  10.8335988  36.6612611  82.2940304   4.3804463  46.3648784  83.0017501
   4.4353073  45.4122620  82.9259978   3.5695665  46.5208223  83.4858799
   5.5295657  50.2928907  74.2395784   5.0915087  49.5764766  73.7801422
   6.2706098  50.5205022  73.6780876   2.3196823  44.9825844  80.7607880
   1.5064689  45.2820014  81.1673072   2.8155817  44.5881532  81.4782362
   4.4705401  54.9783601  82.6942145   4.4281580  55.2044447  81.7650677
   5.3868100  54.7446975  82.8427946   7.9171035  45.4467668  89.5922774
   8.2720423  45.6739141  90.4517240   8.5643166  45.7786045  88.9700029
  13.6468772  48.5686104  80.2972103  13.5086670  48.7587700  79.3693292
  13.2904991  49.3305487  80.7540154   1.8110898  42.5544199  86.3769115
   2.4510277  42.4132958  85.6792078   0.9788429  42.2678713  86.0007717
  13.6738151  50.6362631  85.3083374  14.1074658  50.5437920  86.1566428
  14.3869732  50.6120131  84.6703390   2.5871202  51.8546630  82.4904107
   3.3811800  51.3596950  82.2886682   1.8762894  51.3264493  82.1271813
   7.4066046  54.2364725  86.8416475   7.4603069  54.8055661  87.6094191
   6.5380828  54.4066610  86.4770512  14.5353701  50.6786332  87.8416260
  14.7289591  51.5832142  88.0875535  14.4354319  50.2193751  88.6754845
   6.1890012  40.5644222  90.3406587   5.5417927  41.2634172  90.2471063
   6.9591027  40.9980366  90.7082835   9.5968810  50.8293074  93.4157140
   9.4454316  50.6003626  92.4987224   9.5873489  51.7863676  93.4288485
   6.3654146  48.4024987  88.4003407   7.2946206  48.5536147  88.2272374
   5.9445176  48.4909008  87.5452053   5.1642478  52.4275652  86.1701944
   5.0253564  52.0594436  87.0427882   4.3757074  52.9423291  85.9985902
   5.7590630  57.5284748  77.5127481   5.9342386  57.0572791  78.3273104
   5.0723418  58.1550514  77.7408742   6.7147693  51.8057254  83.5590782
   6.3797526  51.7658024  84.4548432   6.2151639  51.1401970  83.0861192
   0.6891937  47.2124884  89.0843363   0.5511735  46.4805123  89.6854902
   1.5996860  47.1233784  88.8027551   9.6506885  49.1513289  73.8327842
   9.0336055  48.4260117  73.7360895   9.1823373  49.9122649  73.4894916
   3.3174238  46.9244844  88.5727043   4.0273856  46.2838036  88.5313661
   3.2743546  47.1757738  89.4953224  11.3061016  53.8612197  91.4933622
  11.2473563  53.1771417  90.8264205  11.7080535  54.6031187  91.0414248
   2.0303172  43.9110061  90.3922682   1.4940529  43.4600800  91.0444279
   1.4419880  44.0455970  89.6493147   1.4405431  43.3698713  72.9549146
   0.5634897  43.2487514  72.5911393   1.9163184  42.5784791  72.7028035
  11.3078424  51.8251781  89.7247602  10.4205202  51.4877703  89.8474001
  11.8776975  51.0934812  89.9616367   4.8379577  56.4853233  86.6908845
   4.7649749  57.2908205  87.2028150   4.3956970  56.6845199  85.8656866
   4.6269357  55.7225003  80.2011667   3.8436879  56.2646683  80.2949891
   5.3262102  56.2398983  80.6005908   7.9366007  41.5319633  82.8445872
   8.4334706  40.7789595  82.5246942   7.1652988  41.5683949  82.2789081
  15.7895764  47.2359998  84.4864164  15.7785640  48.1184714  84.1158097
  14.9213144  46.8831549  84.2918701   7.2978261  56.3840067  88.8467004
   8.0106233  57.0187532  88.7742905   6.8068289  56.4803933  88.0307006
   9.0195787  50.2891320  80.4184295   8.0852066  50.4092782  80.2489000
   9.1972456  49.3863787  80.1544305   4.5200976  43.6737016  82.5717557
   4.1498763  43.1208056  83.2598462   5.0160068  43.0695149  82.0192557
  12.4068339  46.1308639  80.9534330  12.8728791  46.9636631  80.8794632
  12.8575839  45.6653621  81.6579588   2.3490174  54.1334511  89.6672575
   3.0499634  54.7670994  89.8201969   1.8785289  54.4749242  88.9068214
  10.4744570  52.4752460  77.9520482  10.7504414  52.3609055  78.8614356
   9.6049069  52.0769945  77.9132655  10.3785002  38.4989226  84.9925231
   9.4648081  38.7293453  85.1607438  10.8078103  38.5827670  85.8439263
  10.1491460  46.6879118  87.4925125   9.4962910  46.9355026  86.8377578
  10.5271840  45.8743256  87.1587602   7.1098634  56.7238811  81.5953295
   7.2921028  55.9060467  82.0581048   7.9331620  56.9406504  81.1578185
   7.4440799  55.6506996  78.8568344   7.9728566  55.1399451  78.2438506
   7.7069019  55.3349527  79.7213877   6.1979033  47.4298929  93.9791162
   5.5219670  47.3293059  94.6493537   7.0206667  47.2738143  94.4427159
   4.9401816  58.7365857  88.2148778   5.4920124  58.8997478  88.9797863
   5.2808009  59.3270294  87.5428803   9.7912690  53.5627114  94.0697432
  10.3352594  54.1757072  93.5752387   9.2099535  54.1206693  94.5864445
   8.0770203  56.6847832  85.2012460   7.9521343  55.8837572  84.6923406
   8.7349294  57.1794026  84.7126430  10.1405112  54.4856852  86.8292010
   9.1935447  54.3662203  86.7570337  10.4887885  53.5979350  86.9118272
   2.5004685  40.3750991  90.6530252   3.0239087  40.6213288  91.4156561
   2.2817018  41.2071026  90.2333389   7.1451545  54.2809568  83.0296362
   6.9976507  53.3526276  83.2103932   7.9705038  54.3029659  82.5453438
   1.0113789  42.9327636  78.8876855   1.3509862  43.4613557  78.1655463
   1.4585910  43.2708042  79.6635421  10.7485667  55.1038127  84.1161235
  11.6732214  54.8980989  83.9785686  10.5800970  54.8554528  85.0250577
   3.7057230  41.3164686  88.3379923   3.3654050  40.5172499  88.7400603
   2.9996236  41.6166397  87.7656756   4.3573702  38.4013999  86.7907246
   5.1799771  37.9274477  86.6686136   4.6011765  39.1804482  87.2905932
   2.9981936  41.4302257  77.0870147   3.7190299  41.8083510  76.5833864
   2.3747240  42.1491134  77.1905125   7.1413059  42.1347406  78.0228480
   7.3576674  43.0172044  77.7217308   6.6607126  41.7433620  77.2934122
   1.8812281  45.0933119  84.5999224   1.7356861  45.4073422  85.4923506
   1.4037484  45.7118020  84.0470123   3.7408663  42.0835667  84.6480114
   3.7270232  41.1876761  84.3112412   4.4581092  42.0906331  85.2818400
   5.5934794  42.5173008  86.6933241   5.3352572  43.4390078  86.6917572
   5.0619835  42.1203442  87.3833705  10.5380983  55.6223795  79.4723327
  10.7117860  55.0570217  78.7197179  11.0309874  56.4224690  79.2902817
   3.1445559  40.9650048  79.9167684   3.2661471  40.0366694  80.1158571
   2.8547602  40.9788734  79.0045999   6.0136750  38.6504958  83.0534404
   6.0358447  38.7144291  82.0986383   6.4304809  37.8109467  83.2474910
  16.3920374  48.3860218  81.0913626  16.8351520  47.6367543  80.6932750
  15.5146884  48.3770354  80.7087358  11.5256155  54.9390559  76.5720225
  12.2207060  55.5597252  76.7907540  11.8679306  54.0885910  76.8472603
  13.4247579  52.3890265  78.1007556  13.9498903  52.7277537  77.3756876
  13.3369931  51.4537280  77.9170690   5.0867627  56.3024338  90.2297432
   5.3954754  56.0573485  91.1020132   5.8843109  56.5070977  89.7416303
   5.1088239  58.4562248  82.4602809   4.6693230  57.9638627  83.1535666
   5.8596356  57.9135216  82.2194884   2.5562111  54.0000257  84.5325111
   1.9342121  53.3370962  84.2327338   3.2266978  54.0261389  83.8498758
   2.6286639  42.4782045  94.1257617   2.6774794  43.3544168  93.7435386
   3.1709153  41.9359438  93.5529260  13.1141485  53.0223168  93.4058754
  12.3237028  53.0047307  92.8663253  12.8774839  53.5611462  94.1607790
  13.2339360  49.8715635  90.7191482  13.2837365  49.7065642  91.6607005
  13.1253283  49.0042894  90.3289363   2.1175618  52.5504180  78.0083571
   2.2663739  53.2339645  77.3550244   2.9242062  52.5309270  78.5233027
  10.5243122  45.8546563  92.0350789  11.4252985  45.7153028  91.7434787
  10.5991097  46.0201017  92.9748966   4.8585927  43.2313417  90.8803975
   3.9889237  43.5246983  90.6086564   5.0945408  43.8153862  91.6011239
  14.7357557  52.2912576  90.9633504  14.4442365  52.6542557  91.7996965
  14.1229688  51.5779584  90.7846836  15.9353239  49.8565456  83.4836074
  16.7700130  50.2955260  83.6473634  16.0712368  49.3804109  82.6644320
  12.9844745  47.4145191  89.4313562  13.4598866  47.6072837  88.6232413
  12.0610310  47.4704377  89.1856945   7.5624961  39.4493034  88.3969396
   8.0806905  40.1854061  88.0715884   7.2080094  39.7557028  89.2316155
   7.8137555  35.8693317  83.9170292   8.0939309  35.2016506  84.5430719
   8.5988162  36.0622412  83.4044956   5.6171024  55.0452311  75.4795319
   5.0444991  55.6642498  75.0265790   6.1903818  55.5951672  76.0135240
  11.6846414  44.2910951  87.6641867  12.6363837  44.3909049  87.6854091
  11.5149864  43.4989219  88.1739952   9.7060793  41.3766534  87.8501268
   9.1110725  41.6571547  87.1547757   9.4210490  41.8660435  88.6218009
   8.8368284  55.3289461  76.6103901   9.7698957  55.2635023  76.8136776
   8.7491497  56.1645728  76.1518433  11.4656300  54.6455331  73.5707848
  11.3869932  54.3115195  74.4643606  12.2865967  55.1377099  73.5699321
  14.1634492  47.5117071  86.7784167  14.1310812  46.5733071  86.9643851
  14.7735115  47.5901107  86.0449992   6.0017822  46.3813124  72.8211371
   6.9476927  46.2519332  72.8899789   5.6232067  45.6427785  73.2980799
  14.3128980  44.3028114  86.8242450  13.7968029  43.5186571  86.6372379
  15.1968929  43.9746831  86.9888970  11.9739707  38.0469130  82.7838263
  11.7764528  37.7384218  83.6681595  12.5839413  38.7730768  82.9136193
  19.9811041  48.5733077  85.9190204  20.7114430  48.3118366  86.4797907
  19.3717987  47.8361799  85.9592272  18.0626339  46.7140940  86.5164655
  17.3359502  46.5796905  85.9081147  17.6473625  47.0217769  87.3221373
   5.8856515  50.4330870  94.2812028   6.8059524  50.6109469  94.4752075
   5.8506098  49.4886915  94.1291727   4.1860740  44.3063100  72.7566256
   3.2792195  44.0096213  72.8328970   4.4636721  44.0092918  71.8900542
   5.8022805  38.8499990  78.9110498   4.9923534  38.5047075  79.2865744
   6.4907222  38.5407533  79.4998109   7.7313354  37.9278036  80.5334794
   8.2844392  38.3473490  81.1924817   7.9683440  37.0013785  80.5757750
   3.7546453  43.9165110  96.3137558   3.6543180  44.8659467  96.2449649
   3.5367995  43.5883349  95.4413628   2.9559524  41.1650035  72.8978235
   3.8178688  41.4904933  73.1574053   3.1409868  40.3781531  72.3851301
  11.1092161  40.0378562  80.0413458  10.5290830  40.6963366  79.6591511
  10.8428093  39.2155906  79.6300876   9.5595727  39.4383619  82.2434779
  10.0595505  39.5500154  81.4349098  10.2031335  39.1344672  82.8835587
   3.6177723  47.3462249  95.1302620   3.1344805  48.1462609  95.3366509
   3.7038662  47.3570194  94.1770064   9.8917039  42.1978652  79.0969807
   9.0042894  42.4828303  78.8790001  10.3071028  42.0372415  78.2497084
  13.2431575  42.2225173  82.8124146  14.0191965  42.7121625  83.0848763
  12.5179709  42.6483227  83.2696015  15.6804133  42.9352792  83.8698087
  16.2748624  42.6948528  83.1591395  15.7530717  42.2159923  84.4971623
   9.0360252  51.9623327  73.1917827   9.7396102  52.1673329  73.8075482
   8.3122901  52.5300089  73.4566910   9.8658062  47.7133188  79.3120097
   9.8093264  48.1701739  78.4727729  10.4186405  46.9523873  79.1342940
  13.6762868  43.5022920  80.1370216  13.4199803  43.1019555  80.9678424
  13.0515736  44.2166714  80.0120356  17.9875206  46.2418993  82.6441508
  17.4274764  46.3112182  83.4173070  17.3818710  46.0659978  81.9241004
  10.9446950  52.4005856  75.2416287  11.7792553  51.9687054  75.0593762
  10.7831292  52.2287870  76.1693181  10.5992842  48.9037969  76.6072626
  10.5441646  48.7382241  75.6661070   9.9738897  49.6114002  76.7634816
   7.9138749  51.2086881  95.9326189   8.7829909  51.3827533  95.5712824
   7.4345500  52.0281298  95.8101918   3.9088967  38.4046078  76.1857944
   3.8967637  39.3487918  76.3426215   4.8012389  38.2216224  75.8917406
   2.0824929  58.3283982  87.6115622   2.9852176  58.3607592  87.9282117
   1.8562299  57.3984433  87.6261958   3.8378531  57.0814969  84.2725701
   2.8874162  57.0816830  84.1590073   4.1411017  56.3347703  83.7561736
   7.7241087  34.9988855  80.4403881   6.9573482  34.4447341  80.5860564
   8.1351792  35.0710724  81.3018033  19.5731225  62.9175507  85.3371463
  20.2109635  62.7982254  84.6334804  19.4552068  63.8656351  85.3959416
  16.3820931  62.8702935  85.2732988  16.0439442  62.7544000  84.3853523
  17.2510699  62.4694100  85.2533994  12.2407747  64.7238411  81.2629879
  11.6772612  64.6328348  80.4946167  12.1260142  63.9038316  81.7432372
  16.8640714  64.0237787  91.2319194  16.8529355  63.6290585  90.3599697
  17.0261353  63.2903859  91.8252965   9.7872179  66.2189603  84.1014100
  10.5793470  65.8780428  83.6860399  10.0268829  66.3284578  85.0216253
  17.8207305  68.3909379  76.5744344  17.1695285  68.9763460  76.1878358
  18.6151668  68.9215574  76.6339382  11.7462932  65.4798516  76.9731478
  12.5193808  64.9327503  76.8344354  12.0988331  66.3442766  77.1845940
  13.5847975  66.8074899  90.1798378  13.2937841  67.7120529  90.0645044
  14.2204959  66.8491426  90.8942447  14.5104182  64.1851747  86.7699737
  15.1067754  63.9607770  86.0556700  14.5679153  63.4436493  87.3725185
  14.0829210  61.6391182  74.6049928  14.3354731  61.1172704  73.8433391
  13.1453769  61.4757328  74.7076612  19.2982570  66.0799811  77.1113328
  18.6628403  66.1534438  77.8234233  18.9679977  66.6693410  76.4332408
  13.8025499  63.5419288  76.8074303  13.6861757  62.8664192  77.4755388
  13.9127759  63.0551662  75.9906456  16.1457040  63.0029436  80.5120992
  15.7815247  62.4760056  81.2233914  17.0024156  62.6127905  80.3387478
  22.0506341  54.2923768  87.7752259  21.7189665  55.1619179  87.5513474
  21.4551954  53.9760052  88.4546289  15.7862527  58.0319335  75.5082341
  15.9536929  58.8999572  75.8752812  15.5959696  58.1946617  74.5843630
  18.5437860  66.4936314  87.1748171  18.2438583  67.3961353  87.0663979
  18.1988920  66.2268497  88.0269324  11.9950342  62.9450111  83.2084876
  11.0700838  62.8126325  83.4162568  12.2434755  63.7244330  83.7054818
  15.7651748  60.4876993  76.4929008  15.6451373  60.9334043  77.3314488
  15.0704336  60.8362310  75.9342546   9.3559153  62.5883384  84.0428665
   9.4851534  62.8417863  84.9568077   8.6756604  63.1811092  83.7233320
  13.5258640  73.2580634  80.1419139  13.4482670  74.2088460  80.2207620
  12.9220284  72.9126507  80.7994065  16.0175870  60.4308500  92.7980506
  15.2409204  60.9902420  92.7883371  16.6566433  60.9165283  93.3195376
  14.2722242  63.2393953  92.3598473  15.0136926  63.7778997  92.0833297
  13.5659227  63.8660242  92.5170025  19.7477582  65.3823094  90.9570634
  20.1560938  64.9405504  90.2125267  19.0254843  64.8075721  91.2104827
  16.1008652  60.3195700  88.3304191  16.9469847  60.7435114  88.4738840
  16.0407289  59.6629325  89.0242755  20.0706396  65.9424284  84.7122923
  19.4415259  66.1069998  84.0098991  19.6832058  66.3565894  85.4833887
  23.9495628  66.8778722  82.0667287  23.2646666  67.2577624  81.5164320
  24.0339478  67.4874049  82.7999235  19.2508097  57.9800069  89.9885365
  19.0069029  58.7342129  89.4519641  19.5268028  58.3585416  90.8232612
  21.2046560  64.5238681  88.6662631  21.4163455  65.1670441  87.9897012
  21.1576308  63.6900998  88.1984561  18.8072789  57.1356502  85.5699203
  17.9457268  57.4337755  85.8615940  18.8335223  57.3526901  84.6380235
  15.6234358  65.6798692  81.9773008  16.0872704  65.9586395  81.1877631
  15.3591156  64.7782137  81.7946099  12.5158439  65.2270174  84.9152772
  13.0859796  65.6557442  84.2770256  13.1066551  64.9452759  85.6136957
  14.5603244  61.8021845  78.7862574  15.2627288  62.2542888  79.2536500
  14.2283873  61.1605664  79.4142467  13.0083606  60.3933601  93.1613783
  12.3782266  61.0749882  93.3949180  12.9019694  60.2816683  92.2166921
   8.3028578  60.0605397  84.0879707   7.5127632  60.3162926  83.6119818
   8.7939826  60.8753735  84.1931748  22.3192388  67.4010637  86.8384988
  23.1409831  66.9990824  86.5567670  22.3154791  67.2978871  87.7901104
  10.2543324  60.4249977  81.0463184   9.4574487  60.5368671  81.5646680
  10.0268916  60.7636629  80.1804074  16.0848991  66.9494680  88.9945698
  16.1493424  67.4115087  89.8303870  15.3759915  66.3192045  89.1228008
   6.5866281  60.3135888  86.5194698   6.8374320  61.1982898  86.7852274
   7.1225830  60.1340489  85.7469790  15.7997009  68.6162787  78.8624679
  15.6642684  69.4614323  79.2909527  16.3406821  68.8182065  78.0990613
  12.2864348  54.6954367  95.5239034  11.8931294  54.1420566  96.1986678
  13.1030489  55.0064946  95.9145552   9.2526406  66.1338225  79.4352604
   9.7650927  66.9281476  79.5858169   9.9049119  65.4364516  79.3686205
  11.0621291  69.2503982  81.5175357  11.2387919  70.1721946  81.3296341
  11.8578124  68.9362401  81.9469737  15.2032309  56.1112246  93.1159291
  15.9442023  56.7119399  93.0363753  15.4350232  55.3689884  92.5577333
  10.3473647  61.2968614  91.3937520  10.2327163  60.3953871  91.6944619
   9.4918165  61.5432310  91.0422337  17.4265485  69.2386354  92.9925021
  16.9829339  68.4522732  92.6745925  18.0882699  69.4265504  92.3268912
  12.1852606  70.7682156  87.5185699  12.7360032  70.6399219  86.7462693
  11.3464082  71.0677045  87.1680592  19.5246723  69.5189154  91.0206422
  19.5065199  70.3398035  90.5286691  20.4466643  69.3943229  91.2456563
  15.9819777  67.0333283  91.8629931  16.5148114  66.2721572  91.6329238
  15.4533859  66.7406935  92.6054085  19.1489472  52.1393349  87.3923572
  18.8053742  53.0294991  87.3162683  19.5168435  51.9495007  86.5293157
   7.2175323  64.4626880  80.2112174   8.0550545  64.8723888  79.9945882
   7.3953591  63.5226322  80.1812368  19.1139755  62.1301960  75.8996007
  18.5986379  62.9006565  76.1384395  18.8417064  61.4567097  76.5229069
  18.2286013  54.5098004  85.3572806  17.7250808  54.4728140  84.5440611
  18.5216620  55.4190747  85.4169462  14.4728899  54.5936734  84.3638987
  15.3381895  54.3979543  84.0044877  14.5406408  54.3647086  85.2908344
  18.9026058  60.0029052  77.7255789  18.5976194  60.3175202  78.5765932
  19.8556500  60.0810472  77.7683122  17.3472490  66.1619276  79.3748743
  16.8193852  65.4272035  79.0621980  16.8459993  66.9393952  79.1288711
  22.3265336  64.3568296  84.4915789  21.6689011  65.0467558  84.5795917
  23.1305735  64.7464728  84.8349775  12.0791218  56.8238942  81.7355354
  12.6534970  56.6014124  81.0028547  12.6662200  56.8927637  82.4883955
  12.4060805  58.8543403  75.7551239  11.5698117  59.1918090  76.0760514
  12.2665575  58.7192383  74.8178376  14.3813885  53.6980191  80.4630423
  13.7278298  53.3829208  79.8387038  14.3394360  53.0755931  81.1890246
  15.4925090  63.9799486  72.3783716  14.5852152  63.7488740  72.5774865
  15.9896122  63.1837105  72.5657697  18.3993169  72.6896993  75.2980402
  17.7254868  72.9928690  75.9065360  18.7858991  73.4926074  74.9485859
  16.6713324  64.0812081  76.9007706  15.7624543  63.7971114  76.9980175
  16.7008408  64.5011159  76.0411013  21.9032591  67.6918670  80.6698873
  21.4494918  66.8509580  80.7264064  21.2726558  68.3280069  81.0073653
  20.3465530  69.5295167  81.6048691  20.6388505  70.0900224  80.8861057
  20.8564151  69.8223728  82.3601850  20.9477138  51.3986908  82.4941310
  21.2536015  50.5384272  82.2067225  21.6729743  51.9904529  82.2940304
   7.2401494  61.8017595  80.8822908   7.0425894  61.2086956  80.1573974
   6.6848158  61.4969805  81.5998847  15.2198218  61.6940702  83.0017501
  15.2746828  60.7414538  82.9259978  14.4089420  61.8500141  83.4858799
  16.3689412  65.6220825  74.2395784  15.9308842  64.9056684  73.7801422
  17.1099852  65.8496939  73.6780876  13.1590578  60.3117761  80.7607880
  12.3458443  60.6111932  81.1673072  13.6549572  59.9173450  81.4782362
  15.3099156  70.3075518  82.6942145  15.2675334  70.5336365  81.7650677
  16.2261854  70.0738893  82.8427946  18.7564789  60.7759586  89.5922774
  19.1114177  61.0031059  90.4517240  19.4036921  61.1077963  88.9700029
  12.6504653  57.8836117  86.3769115  13.2904032  57.7424876  85.6792078
  11.8182183  57.5970630  86.0007717  24.5131906  65.9654549  85.3083374
  24.9468413  65.8729838  86.1566428  25.2263487  65.9412049  84.6703390
  13.4264956  67.1838547  82.4904107  14.2205555  66.6888867  82.2886682
  12.7156649  66.6556410  82.1271813  18.2459801  69.5656643  86.8416475
  18.2996823  70.1347579  87.6094191  17.3774582  69.7358528  86.4770512
   9.7347720  61.3281629  78.5663860   8.8045308  61.2666084  78.7833822
   9.8305192  60.8057582  77.7700501   9.6533269  57.8536442  81.1542102
   9.9140086  58.7681775  81.0451262  10.4750441  57.3860884  81.3038714
  11.1258194  59.2674199  88.3240926  11.7981248  59.0591561  87.6753575
  10.2987981  59.0696285  87.8846158  25.3747456  66.0078249  87.8416260
  25.5683346  66.9124060  88.0875535  25.2748074  65.5485668  88.6754845
  17.0283766  55.8936140  90.3406587  16.3811681  56.5926090  90.2471063
  17.7984782  56.3272284  90.7082835  20.4362564  66.1584992  93.4157140
  20.2848071  65.9295544  92.4987224  20.4267244  67.1155593  93.4288485
  17.2047901  63.7316905  88.4003407  18.1339961  63.8828064  88.2272374
  16.7838931  63.8200926  87.5452053  16.0036232  67.7567569  86.1701944
  15.8647318  67.3886354  87.0427882  15.2150829  68.2715209  85.9985902
  16.5984384  72.8576666  77.5127481  16.7736140  72.3864709  78.3273104
  15.9117172  73.4842432  77.7408742  17.5541448  67.1349172  83.5590782
  17.2191280  67.0949942  84.4548432  17.0545393  66.4693888  83.0861192
  11.5285692  62.5416802  89.0843363  11.3905489  61.8097041  89.6854902
  12.4390615  62.4525702  88.8027551  20.4900639  64.4805206  73.8327842
  19.8729810  63.7552034  73.7360895  20.0217128  65.2414567  73.4894916
  14.1567992  62.2536761  88.5727043  14.8667611  61.6129953  88.5313661
  14.1137300  62.5049656  89.4953224  22.1454771  69.1904115  91.4933622
  22.0867317  68.5063335  90.8264205  22.5474289  69.9323105  91.0414248
  12.8696926  59.2401979  90.3922682  12.3334283  58.7892718  91.0444279
  12.2813635  59.3747888  89.6493147  11.1645470  76.0066028  84.2867341
  11.4042068  76.6384553  84.9646360  10.3214666  75.6554068  84.5732700
  12.2799185  58.6990631  72.9549146  11.4028651  58.5779431  72.5911393
  12.7556938  57.9076709  72.7028035  22.1472178  67.1543699  89.7247602
  21.2598957  66.8169620  89.8474001  22.7170729  66.4226730  89.9616367
   3.8001325  63.4867790  83.0490653   4.4872365  63.1729520  82.4611669
   3.6449454  64.3909155  82.7757905   8.6036047  58.3757987  87.4775677
   8.5194236  57.7683656  86.7426087   7.7818754  58.8667005  87.4785173
  15.6773332  71.8145151  86.6908845  15.6043503  72.6200122  87.2028150
  15.2350725  72.0137117  85.8656866  15.4663111  71.0516921  80.2011667
  14.6830633  71.5938601  80.2949891  16.1655856  71.5690901  80.6005908
  18.1372015  71.7131985  88.8467004  18.8499987  72.3479450  88.7742905
  17.6462044  71.8095851  88.0307006  19.8589542  65.6183238  80.4184295
  18.9245821  65.7384700  80.2489000  20.0366210  64.7155704  80.1544305
  13.1883929  69.4626428  89.6672575  13.8893388  70.0962911  89.8201969
  12.7179044  69.8041160  88.9068214  21.3138324  67.8044378  77.9520482
  21.5898168  67.6900973  78.8614356  20.4442823  67.4061863  77.9132655
  21.2178756  53.8281144  84.9925231  20.3041836  54.0585371  85.1607438
  21.6471858  53.9119588  85.8439263  20.9885215  62.0171036  87.4925125
  20.3356665  62.2646943  86.8377578  21.3665594  61.2035174  87.1587602
  17.9492388  72.0530729  81.5953295  18.1314783  71.2352385  82.0581048
  18.7725374  72.2698421  81.1578185  18.2834554  70.9798914  78.8568344
  18.8122320  70.4691369  78.2438506  18.5462774  70.6641444  79.7213877
  17.0372788  62.7590847  93.9791162  16.3613425  62.6584976  94.6493537
  17.8600421  62.6030061  94.4427159   8.7851647  68.9962783  86.6003677
   9.3705083  68.2506471  86.7331581   8.5876485  69.3066740  87.4840341
  11.6390302  72.0314031  81.6166120  10.9700677  72.5160158  81.1330160
  11.5003172  72.2783251  82.5309498   3.3769301  61.5668384  85.3208120
   3.4153401  61.0331974  86.1145238   2.8709594  61.0403589  84.7019098
  15.7795570  74.0657774  88.2148778  16.3313878  74.2289396  88.9797863
  16.1201764  74.6562212  87.5428803  10.7560064  56.4132924  88.8170663
  10.8201390  57.2747755  88.4048060  10.6927184  55.8006926  88.0843021
  10.2312336  58.4856057  92.4643697  10.8584375  58.1033134  93.0781221
   9.3740255  58.2670259  92.8299389  20.6306445  68.8919032  94.0697432
  21.1746349  69.5048990  93.5752387  20.0493290  69.4498610  94.5864445
   7.0077879  60.2932486  78.3962052   7.3031320  59.3843164  78.3429105
   6.1065915  60.2720225  78.0743054  18.9163958  72.0139750  85.2012460
  18.7915097  71.2129490  84.6923406  19.5743049  72.5085943  84.7126430
  10.5372126  58.3688482  84.3789600   9.8158712  58.9824450  84.2397074
  11.3265382  58.9046247  84.3006246  20.9798866  69.8148770  86.8292010
  20.0329202  69.6954121  86.7570337  21.3281639  68.9271268  86.9118272
  13.3398439  55.7042909  90.6530252  13.8632841  55.9505205  91.4156561
  13.1210773  56.5362944  90.2333389   8.7365721  57.9746583  78.5201377
   8.4078427  57.0943962  78.3376483   9.0905091  57.9194252  79.4077766
  17.9845299  69.6101486  83.0296362  17.8370262  68.6818194  83.2103932
  18.8098793  69.6321577  82.5453438  11.8507544  58.2619553  78.8876855
  12.1903616  58.7905475  78.1655463  12.2979664  58.5999959  79.6635421
  21.5879421  70.4330045  84.1161235  22.5125969  70.2272906  83.9785686
  21.4194725  70.1846446  85.0250577  14.5450985  56.6456604  88.3379923
  14.2047805  55.8464417  88.7400603  13.8389991  56.9458315  87.7656756
  15.1967456  53.7305916  86.7907246  16.0193526  53.2566395  86.6686136
  15.4405520  54.5096400  87.2905932  13.8375691  56.7594175  77.0870147
  14.5584053  57.1375428  76.5833864  13.2140995  57.4783052  77.1905125
  17.9806814  57.4639324  78.0228480  18.1970428  58.3463962  77.7217308
  17.5000881  57.0725537  77.2934122  12.7206035  60.4225037  84.5999224
  12.5750616  60.7365340  85.4923506  12.2431239  61.0409937  84.0470123
  14.5802418  57.4127585  84.6480114  14.5663987  56.5168678  84.3112412
  15.2974846  57.4198249  85.2818400  16.4328549  57.8464925  86.6933241
  16.1746327  58.7681996  86.6917572  15.9013589  57.4495360  87.3833705
  21.3774737  70.9515712  79.4723327  21.5511615  70.3862135  78.7197179
  21.8703629  71.7516607  79.2902817   7.1951697  62.9630381  87.5386885
   6.6505165  63.7390189  87.6707160   8.0731047  63.3101186  87.3806007
  13.9839314  56.2941965  79.9167684  14.1055225  55.3658611  80.1158571
  13.6941356  56.3080651  79.0045999  16.8530504  53.9796876  83.0534404
  16.8752201  54.0436209  82.0986383  17.2698563  53.1401384  83.2474910
  22.3649910  70.2682477  76.5720225  23.0600815  70.8889169  76.7907540
  22.7073060  69.4177828  76.8472603   7.9817719  62.0900278  90.4317042
   7.2399455  62.2382913  91.0181673   7.6610463  62.3508543  89.5683792
  24.2641333  67.7182182  78.1007556  24.7892657  68.0569455  77.3756876
  24.1763686  66.7829198  77.9170690  15.9261382  71.6316256  90.2297432
  16.2348508  71.3865403  91.1020132  16.7236864  71.8362894  89.7416303
  15.9481994  73.7854166  82.4602809  15.5086984  73.2930544  83.1535666
  16.6990111  73.2427133  82.2194884   8.4274333  69.9765706  82.4627437
   9.2532353  69.6769478  82.0826080   8.0768385  69.2073329  82.9117226
  13.3955866  69.3292175  84.5325111  12.7735875  68.6662880  84.2327338
  14.0660733  69.3553307  83.8498758   6.6282938  67.8952033  83.4216371
   5.7914846  67.4674207  83.2400372   6.6006583  68.0884476  84.3587162
  13.4680393  57.8073963  94.1257617  13.5168549  58.6836085  93.7435386
  14.0102908  57.2651356  93.5529260  23.9535239  68.3515086  93.4058754
  23.1630783  68.3339225  92.8663253  23.7168594  68.8903380  94.1607790
  24.0733114  65.2007552  90.7191482  24.1231119  65.0357560  91.6607005
  23.9647038  64.3334811  90.3289363  12.9569373  67.8796098  78.0083571
  13.1057493  68.5631562  77.3550244  13.7635816  67.8601188  78.5233027
  21.3636877  61.1838480  92.0350789  22.2646739  61.0444945  91.7434787
  21.4384851  61.3492935  92.9748966  15.6979682  58.5605335  90.8803975
  14.8282991  58.8538901  90.6086564  15.9339162  59.1445780  91.6011239
  25.5751311  67.6204494  90.9633504  25.2836119  67.9834474  91.7996965
  24.9623442  66.9071502  90.7846836  23.8238499  62.7437108  89.4313562
  24.2992621  62.9364755  88.6232413  22.9004065  62.7996294  89.1856945
  10.7122006  63.9061276  79.0144640  10.4668048  63.0023606  79.2124850
  10.8817920  63.9078426  78.0724118  18.4018716  54.7784952  88.3969396
  18.9200660  55.5145979  88.0715884  18.0473849  55.0848945  89.2316155
   9.9817653  59.6389633  76.5130801   9.2886898  59.7133988  75.8570837
   9.7369405  58.8749977  77.0352318  18.6531310  51.1985235  83.9170292
  18.9333064  50.5308424  84.5430719  19.4381917  51.3914330  83.4044956
  16.4564778  70.3744228  75.4795319  15.8838745  70.9934416  75.0265790
  17.0297572  70.9243590  76.0135240  22.5240168  59.6202869  87.6641867
  23.4757591  59.7200966  87.6854091  22.3543619  58.8281137  88.1739952
  20.5454548  56.7058452  87.8501268  19.9504480  56.9863464  87.1547757
  20.2604244  57.1952353  88.6218009  19.6762038  70.6581379  76.6103901
  20.6092711  70.5926940  76.8136776  19.5885251  71.4937645  76.1518433
  22.3050055  69.9747249  73.5707848  22.2263686  69.6407113  74.4643606
  23.1259722  70.4669017  73.5699321  25.0028246  62.8408988  86.7784167
  24.9704566  61.9024989  86.9643851  25.6128870  62.9193025  86.0449992
  16.8411577  61.7105041  72.8211371  17.7870682  61.5811249  72.8899789
  16.4625822  60.9719703  73.2980799  28.9020093  62.0432858  86.5164655
  28.1753257  61.9088823  85.9081147  28.4867380  62.3509686  87.3221373
  16.7250269  65.7622787  94.2812028  17.6453279  65.9401386  94.4752075
  16.6899852  64.8178833  94.1291727  15.0254494  59.6355018  72.7566256
  14.1185949  59.3388130  72.8328970  15.3030475  59.3384836  71.8900542
   5.9432434  60.9561381  83.2065303   5.6235219  60.1026689  82.9139677
   5.3965863  61.1709959  83.9623270   9.7212342  63.6723822  86.9234809
   9.9398352  64.6040930  86.9422843  10.1338116  63.3131796  87.7089613
  16.6416560  54.1791907  78.9110498  15.8317288  53.8338992  79.2865744
  17.3300977  53.8699451  79.4998109  14.5940207  59.2457028  96.3137558
  14.4936934  60.1951385  96.2449649  14.3761749  58.9175267  95.4413628
  13.7953279  56.4941953  72.8978235  14.6572443  56.8196851  73.1574053
  13.9803623  55.7073449  72.3851301   5.8120694  64.5764292  85.1758424
   5.1184166  64.1618245  84.6628379   6.5593685  64.6184829  84.5791843
  14.4571477  62.6754167  95.1302620  13.9738559  63.4754527  95.3366509
  14.5432416  62.6862111  94.1770064   7.7257437  64.5082546  83.0524439
   7.7028125  64.6070234  82.1006322   8.0358073  65.3547697  83.3741605
  10.3844815  66.5658701  87.1671054  11.3388068  66.5342644  87.1000985
  10.1857338  66.1049325  87.9821279  10.9744197  65.1359817  89.7341851
  11.7937086  65.6303896  89.7576688  11.2481005  64.2191785  89.7059419
   8.7395044  72.1078321  84.1841251   8.6049512  71.3478722  83.6179249
   8.3227106  72.8319221  83.7170040  19.8754007  67.2915244  73.1917827
  20.5789857  67.4965247  73.8075482  19.1516655  67.8592006  73.4566910
  20.7051817  63.0425106  79.3120097  20.6487018  63.4993657  78.4727729
  21.2580159  62.2815790  79.1342940  11.8964169  73.0047638  84.3959694
  11.7796554  73.9493070  84.2938384  11.0756616  72.7021199  84.7845493
  21.7840704  67.7297774  75.2416287  22.6186308  67.2978972  75.0593762
  21.6225047  67.5579787  76.1693181  21.4386596  64.2329887  76.6072626
  21.3835400  64.0674158  75.6661070  20.8132651  64.9405920  76.7634816
   6.2279111  59.4697951  90.4334048   6.8737975  58.9596905  90.9221273
   6.0196262  60.2066633  91.0077474  18.7532503  66.5378799  95.9326189
  19.6223663  66.7119451  95.5712824  18.2739255  67.3573216  95.8101918
  14.7482722  53.7337996  76.1857944  14.7361392  54.6779836  76.3426215
  15.6406144  53.5508141  75.8917406  12.9218684  73.6575900  87.6115622
  13.8245930  73.6899510  87.9282117  12.6956054  72.7276351  87.6261958
  14.6772286  72.4106886  84.2725701  13.7267917  72.4108748  84.1590073
  14.9804772  71.6639621  83.7561736  18.5634841  50.3280772  80.4403881
  17.7967237  49.7739259  80.5860564  18.9745546  50.4002641  81.3018033
  10.5676602  56.6165568  94.5309062  11.4308064  56.2602373  94.7412387
   9.9942013  56.2779463  95.2184467  30.4124979  78.2467425  85.3371463
  31.0503389  78.1274172  84.6334804  30.2945822  79.1948269  85.3959416
  27.2214685  78.1994853  85.2732988  26.8833197  78.0835917  84.3853523
  28.0904454  77.7986018  85.2533994  23.0801501  80.0530329  81.2629879
  22.5166366  79.9620266  80.4946167  22.9653896  79.2330234  81.7432372
  27.7034468  79.3529704  91.2319194  27.6923109  78.9582503  90.3599697
  27.8655108  78.6195777  91.8252965  20.6265933  81.5481521  84.1014100
  21.4187225  81.2072345  83.6860399  20.8662583  81.6576496  85.0216253
  28.6601060  83.7201297  76.5744344  28.0089040  84.3055377  76.1878358
  29.4545423  84.2507492  76.6339382  22.5856687  80.8090434  76.9731478
  23.3587563  80.2619421  76.8344354  22.9382086  81.6734683  77.1845940
  24.4241730  82.1366816  90.1798378  24.1331596  83.0412447  90.0645044
  25.0598714  82.1783344  90.8942447  25.3497936  79.5143665  86.7699737
  25.9461509  79.2899687  86.0556700  25.4072908  78.7728410  87.3725185
  24.9222965  76.9683100  74.6049928  25.1748485  76.4464621  73.8433391
  23.9847524  76.8049246  74.7076612  29.9666248  75.9718878  82.4124672
  30.7529337  75.5538302  82.0615089  30.2304952  76.8764971  82.5806320
  30.1376325  81.4091729  77.1113328  29.5022158  81.4826355  77.8234233
  29.8073731  81.9985328  76.4332408  35.3674675  75.9094112  83.3157650
  36.0999847  75.3393328  83.5495480  34.6114030  75.5215712  83.7564156
  24.6419254  78.8711206  76.8074303  24.5255512  78.1956109  77.4755388
  24.7521513  78.3843580  75.9906456  26.9850794  78.3321353  80.5120992
  26.6209002  77.8051974  81.2233914  27.8417910  77.9419822  80.3387478
  32.8900095  69.6215686  87.7752259  32.5583420  70.4911097  87.5513474
  32.2945708  69.3051970  88.4546289  26.6256281  73.3611253  75.5082341
  26.7930684  74.2291489  75.8752812  26.4353451  73.5238535  74.5843630
  29.3831615  81.8228232  87.1748171  29.0832338  82.7253271  87.0663979
  29.0382674  81.5560415  88.0269324  22.8344096  78.2742029  83.2084876
  21.9094593  78.1418243  83.4162568  23.0828509  79.0536248  83.7054818
  32.7828758  74.3410772  84.8545609  31.8745636  74.2726180  84.5604370
  32.7316354  74.8182717  85.6827434  26.6045502  75.8168910  76.4929008
  26.4845128  76.2625961  77.3314488  25.9098091  76.1654228  75.9342546
  20.1952907  77.9175302  84.0428665  20.3245288  78.1709781  84.9568077
  19.5150358  78.5103010  83.7233320  24.3652394  88.5872552  80.1419139
  24.2876424  89.5380377  80.2207620  23.7614038  88.2418425  80.7994065
  26.8569624  75.7600418  92.7980506  26.0802958  76.3194338  92.7883371
  27.4960187  76.2457201  93.3195376  34.6490405  72.5427210  86.6323483
  34.0064785  72.8359744  85.9863277  34.1445333  72.4280131  87.4376679
  32.3030568  76.2890384  77.3209342  33.2148425  76.5217770  77.1457039
  31.7940216  76.8727428  76.7584420  25.1115997  78.5685871  92.3598473
  25.8530681  79.1070915  92.0833297  24.4052982  79.1952160  92.5170025
  30.5871336  80.7115011  90.9570634  30.9954692  80.2697422  90.2125267
  29.8648598  80.1367639  91.2104827  26.9402406  75.6487618  88.3304191
  27.7863601  76.0727032  88.4738840  26.8801044  74.9921242  89.0242755
  30.9100151  81.2716202  84.7122923  30.2809013  81.4361916  84.0098991
  30.5225813  81.6857812  85.4833887  34.7889383  82.2070640  82.0667287
  34.1040421  82.5869541  81.5164320  34.8733232  82.8165967  82.7999235
  30.0901852  73.3091987  89.9885365  29.8462783  74.0634047  89.4519641
  30.3661782  73.6877334  90.8232612  32.0440314  79.8530599  88.6662631
  32.2557210  80.4962359  87.9897012  31.9970063  79.0192915  88.1984561
  29.6466543  72.4648420  85.5699203  28.7851022  72.7629673  85.8615940
  29.6728978  72.6818818  84.6380235  26.4628113  81.0090610  81.9773008
  26.9266458  81.2878313  81.1877631  26.1984911  80.1074055  81.7946099
  23.3552194  80.5562092  84.9152772  23.9253551  80.9849360  84.2770256
  23.9460306  80.2744676  85.6136957  25.3996999  77.1313762  78.7862574
  26.1021042  77.5834806  79.2536500  25.0677627  76.4897581  79.4142467
  23.8477360  75.7225519  93.1613783  23.2176021  76.4041800  93.3949180
  23.7413448  75.6108601  92.2166921  19.1422333  75.3897315  84.0879707
  18.3521387  75.6454844  83.6119818  19.6333580  76.2045653  84.1931748
  33.1586142  82.7302554  86.8384988  33.9803586  82.3282742  86.5567670
  33.1548545  82.6270788  87.7901104  21.0937078  75.7541894  81.0463184
  20.2968241  75.8660589  81.5646680  20.8662670  76.0928547  80.1804074
  26.9242746  82.2786598  88.9945698  26.9887178  82.7407005  89.8303870
  26.2153670  81.6483963  89.1228008  17.4260036  75.6427806  86.5194698
  17.6768074  76.5274815  86.7852274  17.9619584  75.4632407  85.7469790
  41.2492135  79.0741303  83.1869959  40.4955844  78.5048701  83.0313964
  41.3839677  79.0403967  84.1340594  26.6390763  83.9454705  78.8624679
  26.5036438  84.7906241  79.2909527  27.1800576  84.1473983  78.0990613
  23.1258103  70.0246285  95.5239034  22.7325049  69.4712483  96.1986678
  23.9424243  70.3356863  95.9145552  20.0920161  81.4630143  79.4352604
  20.6044681  82.2573393  79.5858169  20.7442874  80.7656434  79.3686205
  21.9015045  84.5795899  81.5175357  22.0781674  85.5013864  81.3296341
  22.6971879  84.2654319  81.9469737  26.0426064  71.4404164  93.1159291
  26.7835777  72.0411317  93.0363753  26.2743987  70.6981802  92.5577333
  21.1867402  76.6260531  91.3937520  21.0720917  75.7245789  91.6944619
  20.3311920  76.8724228  91.0422337  28.2659240  84.5678272  92.9925021
  27.8223094  83.7814650  92.6745925  28.9276453  84.7557422  92.3268912
  23.0246361  86.0974073  87.5185699  23.5753786  85.9691137  86.7462693
  22.1857837  86.3968962  87.1680592  30.3640478  84.8481072  91.0206422
  30.3458953  85.6689953  90.5286691  31.2860398  84.7235147  91.2456563
  26.8213532  82.3625201  91.8629931  27.3541869  81.6013489  91.6329238
  26.2927613  82.0698853  92.6054085  29.9883227  67.4685267  87.3923572
  29.6447496  68.3586909  87.3162683  30.3562190  67.2786925  86.5293157
  18.0569078  79.7918797  80.2112174  18.8944300  80.2015806  79.9945882
  18.2347345  78.8518240  80.1812368  29.9533510  77.4593878  75.8996007
  29.4380133  78.2298483  76.1384395  29.6810818  76.7859014  76.5229069
  27.5380621  72.3043579  80.9581246  26.6822217  71.9150429  80.7786884
  27.9507572  72.3835540  80.0981031  29.0679767  69.8389922  85.3572806
  28.5644563  69.8020057  84.5440611  29.3610374  70.7482665  85.4169462
  25.3122653  69.9228652  84.3638987  26.1775650  69.7271461  84.0044877
  25.3800162  69.6939004  85.2908344  34.9267784  80.2126233  77.8349181
  34.1497227  79.8737392  77.3904343  35.6059265  80.2178856  77.1604146
  29.7419813  75.3320970  77.7255789  29.4369948  75.6467119  78.5765932
  30.6950255  75.4102390  77.7683122  28.1866245  81.4911193  79.3748743
  27.6587606  80.7563953  79.0621980  27.6853747  82.2685870  79.1288711
  33.1659091  79.6860214  84.4915789  32.5082765  80.3759475  84.5795917
  33.9699490  80.0756646  84.8349775  22.9184972  72.1530860  81.7355354
  23.4928724  71.9306041  81.0028547  23.5055955  72.2219554  82.4883955
  31.9764549  78.0404587  82.5419731  32.4896431  78.6734578  83.0441440
  32.6265773  77.4405782  82.1763091  23.2454559  74.1835321  75.7551239
  22.4091872  74.5210007  76.0760514  23.1059329  74.0484301  74.8178376
  25.2207640  69.0272109  80.4630423  24.5672052  68.7121126  79.8387038
  25.1788114  68.4047849  81.1890246  26.3318845  79.3091404  72.3783716
  25.4245907  79.0780657  72.5774865  26.8289877  78.5129023  72.5657697
  29.2386924  88.0188911  75.2980402  28.5648622  88.3220608  75.9065360
  29.6252746  88.8217991  74.9485859  28.4545380  75.5154042  84.7878071
  27.5367942  75.7368989  84.6299759  28.8705524  75.5900353  83.9289778
  29.2380428  76.9145458  79.9180751  29.9852247  77.4266855  79.6087873
  29.5072018  76.5929511  80.7785145  27.5107078  79.4103999  76.9007706
  26.6018298  79.1263031  76.9980175  27.5402162  79.8303077  76.0411013
  32.7426346  83.0210588  80.6698873  32.2888673  82.1801498  80.7264064
  32.1120312  83.6571986  81.0073653  31.6859265  73.9502574  81.8999541
  30.9482022  73.4379960  82.2309783  31.9386039  73.5102956  81.0882818
  31.1859285  84.8587085  81.6048691  31.4782259  85.4192142  80.8861057
  31.6957905  85.1515646  82.3601850  18.0795249  77.1309513  80.8822908
  17.8819648  76.5378873  80.1573974  17.5241913  76.8261723  81.5998847
  26.0591972  77.0232619  83.0017501  26.1140582  76.0706456  82.9259978
  25.2483174  77.1792058  83.4858799  27.2083166  80.9512742  74.2395784
  26.7702596  80.2348601  73.7801422  27.9493607  81.1788857  73.6780876
  23.9984332  75.6409679  80.7607880  23.1852198  75.9403850  81.1673072
  24.4943326  75.2465368  81.4782362  26.1492910  85.6367436  82.6942145
  26.1069089  85.8628282  81.7650677  27.0655609  85.4030810  82.8427946
  29.5958544  76.1051503  89.5922774  29.9507932  76.3322977  90.4517240
  30.2430675  76.4369880  88.9700029  35.3256281  79.2269939  80.2972103
  35.1874179  79.4171535  79.3693292  34.9692500  79.9889322  80.7540154
  23.4898407  73.2128034  86.3769115  24.1297786  73.0716794  85.6792078
  22.6575938  72.9262548  86.0007717  35.3525660  81.2946466  85.3083374
  35.7862167  81.2021755  86.1566428  36.0657241  81.2703967  84.6703390
  24.2658711  82.5130465  82.4904107  25.0599309  82.0180785  82.2886682
  23.5550403  81.9848328  82.1271813  29.0853555  84.8948560  86.8416475
  29.1390578  85.4639497  87.6094191  28.2168337  85.0650445  86.4770512
  20.5741474  76.6573547  78.5663860  19.6439062  76.5958002  78.7833822
  20.6698946  76.1349499  77.7700501  20.4927023  73.1828359  81.1542102
  20.7533841  74.0973693  81.0451262  21.3144196  72.7152802  81.3038714
  21.9651949  74.5966117  88.3240926  22.6375002  74.3883479  87.6753575
  21.1381735  74.3988203  87.8846158  36.2141210  81.3370167  87.8416260
  36.4077100  82.2415977  88.0875535  36.1141828  80.8777586  88.6754845
  27.8677521  71.2228058  90.3406587  27.2205436  71.9218007  90.2471063
  28.6378536  71.6564201  90.7082835  31.2756319  81.4876910  93.4157140
  31.1241825  81.2587461  92.4987224  31.2660998  82.4447511  93.4288485
  28.0441655  79.0608822  88.4003407  28.9733715  79.2119982  88.2272374
  27.6232685  79.1492843  87.5452053  26.8429987  83.0859487  86.1701944
  26.7041073  82.7178271  87.0427882  26.0544583  83.6007126  85.9985902
  27.4378139  88.1868583  77.5127481  27.6129895  87.7156627  78.3273104
  26.7510927  88.8134350  77.7408742  28.3935202  82.4641090  83.5590782
  28.0585035  82.4241860  84.4548432  27.8939148  81.7985806  83.0861192
  22.3679446  77.8708720  89.0843363  22.2299244  77.1388958  89.6854902
  23.2784369  77.7817620  88.8027551  31.3294394  79.8097124  73.8327842
  30.7123564  79.0843952  73.7360895  30.8610882  80.5706484  73.4894916
  24.9961747  77.5828679  88.5727043  25.7061365  76.9421871  88.5313661
  24.9531055  77.8341574  89.4953224  32.9848525  84.5196032  91.4933622
  32.9261072  83.8355252  90.8264205  33.3868044  85.2615022  91.0414248
  23.7090681  74.5693897  90.3922682  23.1728038  74.1184635  91.0444279
  23.1207389  74.7039806  89.6493147  22.0039224  91.3357946  84.2867341
  22.2435822  91.9676470  84.9646360  21.1608421  90.9845986  84.5732700
  23.1192940  74.0282548  72.9549146  22.2422406  73.9071349  72.5911393
  23.5950693  73.2368627  72.7028035  32.9865933  82.4835616  89.7247602
  32.0992711  82.1461538  89.8474001  33.5564484  81.7518647  89.9616367
  14.6395080  78.8159708  83.0490653  15.3266120  78.5021438  82.4611669
  14.4843208  79.7201073  82.7757905  19.4429802  73.7049905  87.4775677
  19.3587991  73.0975574  86.7426087  18.6212508  74.1958923  87.4785173
  26.5167086  87.1437069  86.6908845  26.4437257  87.9492040  87.2028150
  26.0744479  87.3429034  85.8656866  26.3056866  86.3808839  80.2011667
  25.5224388  86.9230519  80.2949891  27.0049611  86.8982818  80.6005908
  29.6153516  72.1903468  82.8445872  30.1122215  71.4373430  82.5246942
  28.8440497  72.2267785  82.2789081  37.4683273  77.8943834  84.4864164
  37.4573149  78.7768549  84.1158097  36.6000653  77.5415384  84.2918701
  28.9765770  87.0423903  88.8467004  29.6893742  87.6771367  88.7742905
  28.4855798  87.1387769  88.0307006  30.6983296  80.9475155  80.4184295
  29.7639575  81.0676618  80.2489000  30.8759965  80.0447622  80.1544305
  26.1988484  74.3320851  82.5717557  25.8286272  73.7791891  83.2598462
  26.6947577  73.7278985  82.0192557  34.0855848  76.7892475  80.9534330
  34.5516300  77.6220466  80.8794632  34.5363348  76.3237456  81.6579588
  24.0277683  84.7918346  89.6672575  24.7287143  85.4254829  89.8201969
  23.5572798  85.1333078  88.9068214  32.1532079  83.1336296  77.9520482
  32.4291923  83.0192890  78.8614356  31.2836578  82.7353781  77.9132655
  32.0572511  69.1573062  84.9925231  31.1435590  69.3877288  85.1607438
  32.4865612  69.2411506  85.8439263  31.8278969  77.3462954  87.4925125
  31.1750419  77.5938861  86.8377578  32.2059349  76.5327092  87.1587602
  28.7886143  87.3822647  81.5953295  28.9708537  86.5644303  82.0581048
  29.6119129  87.5990339  81.1578185  29.1228308  86.3090832  78.8568344
  29.6516075  85.7983286  78.2438506  29.3856528  85.9933362  79.7213877
  27.8766542  78.0882765  93.9791162  27.2007179  77.9876894  94.6493537
  28.6994176  77.9321978  94.4427159  19.6245401  84.3254701  86.6003677
  20.2098838  83.5798389  86.7331581  19.4270240  84.6358658  87.4840341
  22.4784056  87.3605949  81.6166120  21.8094432  87.8452076  81.1330160
  22.3396926  87.6075169  82.5309498  14.2163056  76.8960301  85.3208120
  14.2547155  76.3623892  86.1145238  13.7103349  76.3695507  84.7019098
  26.6189325  89.3949692  88.2148778  27.1707633  89.5581314  88.9797863
  26.9595518  89.9854130  87.5428803  21.5953818  71.7424842  88.8170663
  21.6595145  72.6039673  88.4048060  21.5320938  71.1298843  88.0843021
  21.0706091  73.8147974  92.4643697  21.6978129  73.4325052  93.0781221
  20.2134010  73.5962176  92.8299389  31.4700199  84.2210950  94.0697432
  32.0140103  84.8340908  93.5752387  30.8887044  84.7790528  94.5864445
  17.8471633  75.6224403  78.3962052  18.1425075  74.7135082  78.3429105
  16.9459669  75.6012143  78.0743054  29.7557712  87.3431668  85.2012460
  29.6308852  86.5421407  84.6923406  30.4136803  87.8377861  84.7126430
  21.3765880  73.6980400  84.3789600  20.6552466  74.3116368  84.2397074
  22.1659136  74.2338165  84.3006246  31.8192621  85.1440688  86.8292010
  30.8722956  85.0246039  86.7570337  32.1675394  84.2563186  86.9118272
  24.1792194  71.0334827  90.6530252  24.7026596  71.2797123  91.4156561
  23.9604527  71.8654861  90.2333389  19.5759475  73.3038501  78.5201377
  19.2472181  72.4235880  78.3376483  19.9298846  73.2486170  79.4077766
  28.8239054  84.9393404  83.0296362  28.6764016  84.0110111  83.2103932
  29.6492547  84.9613495  82.5453438  22.6901298  73.5911471  78.8876855
  23.0297371  74.1197392  78.1655463  23.1373419  73.9291877  79.6635421
  32.4273176  85.7621963  84.1161235  33.3519723  85.5564824  83.9785686
  32.2588479  85.5138364  85.0250577  25.3844739  71.9748522  88.3379923
  25.0441559  71.1756335  88.7400603  24.6783745  72.2750232  87.7656756
  26.0361211  69.0597834  86.7907246  26.8587280  68.5858312  86.6686136
  26.2799274  69.8388318  87.2905932  24.6769445  72.0886093  77.0870147
  25.3977808  72.4667345  76.5833864  24.0534749  72.8074969  77.1905125
  28.8200568  72.7931241  78.0228480  29.0364183  73.6755879  77.7217308
  28.3394635  72.4017455  77.2934122  23.5599790  75.7516955  84.5999224
  23.4144370  76.0657258  85.4923506  23.0824993  76.3701855  84.0470123
  25.4196172  72.7419503  84.6480114  25.4057741  71.8460596  84.3112412
  26.1368601  72.7490166  85.2818400  27.2722303  73.1756843  86.6933241
  27.0140081  74.0973914  86.6917572  26.7407344  72.7787277  87.3833705
  32.2168492  86.2807630  79.4723327  32.3905369  85.7154053  78.7197179
  32.7097383  87.0808525  79.2902817  18.0345452  78.2922299  87.5386885
  17.4898920  79.0682107  87.6707160  18.9124802  78.6393104  87.3806007
  24.8233068  71.6233883  79.9167684  24.9448980  70.6950529  80.1158571
  24.5335111  71.6372569  79.0045999  27.6924259  69.3088793  83.0534404
  27.7145956  69.3728127  82.0986383  28.1092318  68.4693302  83.2474910
  38.0707883  79.0444053  81.0913626  38.5139029  78.2951378  80.6932750
  37.1934393  79.0354189  80.7087358  33.2043664  85.5974394  76.5720225
  33.8994569  86.2181087  76.7907540  33.5466815  84.7469746  76.8472603
  18.8211474  77.4192195  90.4317042  18.0793210  77.5674831  91.0181673
  18.5004218  77.6800461  89.5683792  35.1035088  83.0474100  78.1007556
  35.6286412  83.3861373  77.3756876  35.0157440  82.1121115  77.9170690
  26.7655136  86.9608174  90.2297432  27.0742263  86.7157320  91.1020132
  27.5630618  87.1654812  89.7416303  26.7875748  89.1146083  82.4602809
  26.3480739  88.6222462  83.1535666  27.5383865  88.5719051  82.2194884
  19.2668087  85.3057624  82.4627437  20.0926107  85.0061396  82.0826080
  18.9162139  84.5365247  82.9117226  24.2349620  84.6584092  84.5325111
  23.6129630  83.9954797  84.2327338  24.9054487  84.6845224  83.8498758
  17.4676692  83.2243951  83.4216371  16.6308601  82.7966125  83.2400372
  17.4400338  83.4176394  84.3587162  24.3074148  73.1365880  94.1257617
  24.3562303  74.0128003  93.7435386  24.8496662  72.5943273  93.5529260
  34.7928994  83.6807004  93.4058754  34.0024537  83.6631142  92.8663253
  34.5562348  84.2195297  94.1607790  34.9126869  80.5299470  90.7191482
  34.9624874  80.3649477  91.6607005  34.8040792  79.6626729  90.3289363
  23.7963127  83.2088016  78.0083571  23.9451248  83.8923480  77.3550244
  24.6029571  83.1893106  78.5233027  32.2030631  76.5130398  92.0350789
  33.1040494  76.3736863  91.7434787  32.2778606  76.6784853  92.9748966
  26.5373436  73.8897253  90.8803975  25.6676746  74.1830819  90.6086564
  26.7732917  74.4737698  91.6011239  36.4145065  82.9496411  90.9633504
  36.1229874  83.3126392  91.7996965  35.8017197  82.2363420  90.7846836
  37.6140748  80.5149291  83.4836074  38.4487639  80.9539095  83.6473634
  37.7499877  80.0387944  82.6644320  34.6632254  78.0729026  89.4313562
  35.1386375  78.2656672  88.6232413  33.7397819  78.1288212  89.1856945
  21.5515760  79.2353193  79.0144640  21.3061802  78.3315523  79.2124850
  21.7211675  79.2370344  78.0724118  29.2412470  70.1076870  88.3969396
  29.7594414  70.8437897  88.0715884  28.8867603  70.4140863  89.2316155
  20.8211408  74.9681551  76.5130801  20.1280653  75.0425906  75.8570837
  20.5763160  74.2041895  77.0352318  27.2958533  85.7036146  75.4795319
  26.7232500  86.3226333  75.0265790  27.8691327  86.2535508  76.0135240
  33.3633923  74.9494786  87.6641867  34.3151346  75.0492884  87.6854091
  33.1937373  74.1573055  88.1739952  31.3848302  72.0350369  87.8501268
  30.7898234  72.3155382  87.1547757  31.0997999  72.5244270  88.6218009
  30.5155793  85.9873296  76.6103901  31.4486466  85.9218858  76.8136776
  30.4279005  86.8229563  76.1518433  33.1443809  85.3039167  73.5707848
  33.0657441  84.9699030  74.4643606  33.9653476  85.7960935  73.5699321
  35.8422001  78.1700906  86.7784167  35.8098321  77.2316907  86.9643851
  36.4522624  78.2484943  86.0449992  27.6805331  77.0396959  72.8211371
  28.6264436  76.9103167  72.8899789  27.3019576  76.3011621  73.2980799
  35.9916489  74.9611949  86.8242450  35.4755538  74.1770406  86.6372379
  36.8756438  74.6330666  86.9888970  41.6598550  79.2316913  85.9190204
  42.3901939  78.9702201  86.4797907  41.0505496  78.4945635  85.9592272
  39.7413847  77.3724775  86.5164655  39.0147011  77.2380740  85.9081147
  39.3261134  77.6801604  87.3221373  27.5644024  81.0914705  94.2812028
  28.4847033  81.2693304  94.4752075  27.5293607  80.1470750  94.1291727
  25.8648249  74.9646935  72.7566256  24.9579704  74.6680048  72.8328970
  26.1424230  74.6676753  71.8900542  16.7826189  76.2853299  83.2065303
  16.4628973  75.4318607  82.9139677  16.2359617  76.5001877  83.9623270
  20.5606096  79.0015740  86.9234809  20.7792106  79.9332847  86.9422843
  20.9731870  78.6423714  87.7089613  27.4810314  69.5083825  78.9110498
  26.6711043  69.1630910  79.2865744  28.1694731  69.1991369  79.4998109
  25.4333962  74.5748945  96.3137558  25.3330689  75.5243302  96.2449649
  25.2155504  74.2467184  95.4413628  24.6347033  71.8233870  72.8978235
  25.4966197  72.1488769  73.1574053  24.8197377  71.0365366  72.3851301
  16.6514449  79.9056210  85.1758424  15.9577920  79.4910163  84.6628379
  17.3987440  79.9476747  84.5791843  25.2965232  78.0046084  95.1302620
  24.8132314  78.8046444  95.3366509  25.3826171  78.0154029  94.1770064
  18.5651191  79.8374464  83.0524439  18.5421880  79.9362151  82.1006322
  18.8751828  80.6839615  83.3741605  21.2238569  81.8950619  87.1671054
  22.1781823  81.8634561  87.1000985  21.0251093  81.4341243  87.9821279
  21.8137951  80.4651735  89.7341851  22.6330840  80.9595814  89.7576688
  22.0874759  79.5483703  89.7059419  31.5704548  72.8562487  79.0969807
  30.6830403  73.1412138  78.8790001  31.9858537  72.6956251  78.2497084
  34.9219084  72.8809008  82.8124146  35.6979474  73.3705461  83.0848763
  34.1967218  73.3067062  83.2696015  37.3591642  73.5936628  83.8698087
  37.9536133  73.3532363  83.1591395  37.4318226  72.8743758  84.4971623
  19.5788798  87.4370238  84.1841251  19.4443266  86.6770639  83.6179249
  19.1620860  88.1611138  83.7170040  30.7147761  82.6207162  73.1917827
  31.4183611  82.8257164  73.8075482  29.9910410  83.1883924  73.4566910
  31.5445571  78.3717023  79.3120097  31.4880773  78.8285575  78.4727729
  32.0973914  77.6107708  79.1342940  35.3550377  74.1606755  80.1370216
  35.0987312  73.7603391  80.9678424  34.7303245  74.8750549  80.0120356
  39.6662715  76.9002828  82.6441508  39.1062273  76.9696018  83.4173070
  39.0606219  76.7243813  81.9241004  22.7357924  88.3339555  84.3959694
  22.6190308  89.2784988  84.2938384  21.9150370  88.0313117  84.7845493
  32.6234459  83.0589691  75.2416287  33.4580062  82.6270890  75.0593762
  32.4618801  82.8871705  76.1693181  32.2780351  79.5621805  76.6072626
  32.2229155  79.3966076  75.6661070  31.6526406  80.2697837  76.7634816
  17.0672866  74.7989869  90.4334048  17.7131729  74.2888823  90.9221273
  16.8590017  75.5358551  91.0077474  29.5926258  81.8670716  95.9326189
  30.4617418  82.0411369  95.5712824  29.1133009  82.6865133  95.8101918
  25.5876476  69.0629914  76.1857944  25.5755146  70.0071753  76.3426215
  26.4799898  68.8800059  75.8917406  23.7612438  88.9867817  87.6115622
  24.6639685  89.0191428  87.9282117  23.5349808  88.0568268  87.6261958
  25.5166040  87.7398804  84.2725701  24.5661671  87.7400666  84.1590073
  25.8198526  86.9931538  83.7561736  21.4070357  71.9457486  94.5309062
  22.2701818  71.5894291  94.7412387  20.8335767  71.6071381  95.2184467
  41.2518734  93.5759342  85.3371463  41.8897144  93.4566090  84.6334804
  41.1339577  94.5240186  85.3959416  38.0608440  93.5286770  85.2732988
  37.7226951  93.4127835  84.3853523  38.9298208  93.1277935  85.2533994
  33.9195256  95.3822247  81.2629879  33.3560121  95.2912184  80.4946167
  33.8047651  94.5622151  81.7432372  38.5428223  94.6821622  91.2319194
  38.5316864  94.2874420  90.3599697  38.7048862  93.9487695  91.8252965
  31.4659688  96.8773438  84.1014100  32.2580979  96.5364263  83.6860399
  31.7056338  96.9868413  85.0216253  39.4994814  99.0493215  76.5744344
  38.8482794  99.6347295  76.1878358  40.2939177  99.5799409  76.6339382
  33.4250441  96.1382352  76.9731478  34.1981317  95.5911339  76.8344354
  33.7775840  97.0026601  77.1845940  35.2635484  97.4658734  90.1798378
  34.9725350  98.3704365  90.0645044  35.8992468  97.5075262  90.8942447
  36.1891691  94.8435582  86.7699737  36.7855263  94.6191605  86.0556700
  36.2466662  94.1020328  87.3725185  35.7616719  92.2975018  74.6049928
  36.0142240  91.7756539  73.8433391  34.8241278  92.1341163  74.7076612
  40.8060002  91.3010796  82.4124672  41.5923091  90.8830219  82.0615089
  41.0698706  92.2056888  82.5806320  40.9770079  96.7383646  77.1113328
  40.3415912  96.8118273  77.8234233  40.6467486  97.3277245  76.4332408
  46.2068429  91.2386029  83.3157650  46.9393601  90.6685246  83.5495480
  45.4507785  90.8507630  83.7564156  35.4813008  94.2003124  76.8074303
  35.3649266  93.5248027  77.4755388  35.5915268  93.7135498  75.9906456
  37.8244549  93.6613271  80.5120992  37.4602756  93.1343892  81.2233914
  38.6811665  93.2711740  80.3387478  43.7293850  84.9507603  87.7752259
  43.3977174  85.8203014  87.5513474  43.1339463  84.6343887  88.4546289
  37.4650036  88.6903171  75.5082341  37.6324438  89.5583407  75.8752812
  37.2747205  88.8530452  74.5843630  40.2225369  97.1520149  87.1748171
  39.9226092  98.0545188  87.0663979  39.8776429  96.8852333  88.0269324
  33.6737851  93.6033946  83.2084876  32.7488347  93.4710160  83.4162568
  33.9222264  94.3828166  83.7054818  43.6222513  89.6702690  84.8545609
  42.7139390  89.6018098  84.5604370  43.5710109  90.1474635  85.6827434
  37.4439257  91.1460828  76.4929008  37.3238882  91.5917879  77.3314488
  36.7491845  91.4946146  75.9342546  31.0346662  93.2467220  84.0428665
  31.1639043  93.5001699  84.9568077  30.3544113  93.8394928  83.7233320
  35.2046149 103.9164470  80.1419139  35.1270179 104.8672295  80.2207620
  34.6007793 103.5710342  80.7994065  37.6963379  91.0892335  92.7980506
  36.9196713  91.6486255  92.7883371  38.3353942  91.5749118  93.3195376
  45.4884159  87.8719128  86.6323483  44.8458540  88.1651661  85.9863277
  44.9839088  87.7572048  87.4376679  43.1424323  91.6182301  77.3209342
  44.0542179  91.8509688  77.1457039  42.6333970  92.2019345  76.7584420
  35.9509751  93.8977789  92.3598473  36.6924435  94.4362833  92.0833297
  35.2446736  94.5244077  92.5170025  41.4265091  96.0406929  90.9570634
  41.8348447  95.5989340  90.2125267  40.7042352  95.4659557  91.2104827
  37.7796161  90.9779536  88.3304191  38.6257356  91.4018949  88.4738840
  37.7194798  90.3213160  89.0242755  41.7493905  96.6008120  84.7122923
  41.1202768  96.7653834  84.0098991  41.3619567  97.0149729  85.4833887
  45.6283137  97.5362558  82.0667287  44.9434175  97.9161459  81.5164320
  45.7126986  98.1457884  82.7999235  40.9295606  88.6383904  89.9885365
  40.6856538  89.3925965  89.4519641  41.2055537  89.0169252  90.8232612
  42.8834069  95.1822517  88.6662631  43.0950964  95.8254276  87.9897012
  42.8363817  94.3484833  88.1984561  40.4860298  87.7940337  85.5699203
  39.6244777  88.0921591  85.8615940  40.5122732  88.0110736  84.6380235
  37.3021867  96.3382528  81.9773008  37.7660213  96.6170231  81.1877631
  37.0378665  95.4365972  81.7946099  34.1945948  95.8854009  84.9152772
  34.7647305  96.3141278  84.2770256  34.7854060  95.6036594  85.6136957
  36.2390753  92.4605680  78.7862574  36.9414797  92.9126724  79.2536500
  35.9071382  91.8189499  79.4142467  34.6871115  91.0517437  93.1613783
  34.0569775  91.7333718  93.3949180  34.5807203  90.9400518  92.2166921
  29.9816087  90.7189233  84.0879707  29.1915141  90.9746761  83.6119818
  30.4727335  91.5337571  84.1931748  43.9979897  98.0594472  86.8384988
  44.8197340  97.6574659  86.5567670  43.9942300  97.9562706  87.7901104
  31.9330833  91.0833812  81.0463184  31.1361996  91.1952506  81.5646680
  31.7056425  91.4220464  80.1804074  37.7636500  97.6078515  88.9945698
  37.8280933  98.0698923  89.8303870  37.0547424  96.9775880  89.1228008
  28.2653790  90.9719723  86.5194698  28.5161829  91.8566733  86.7852274
  28.8013339  90.7924325  85.7469790  52.0885890  94.4033220  83.1869959
  51.3349598  93.8340619  83.0313964  52.2233431  94.3695885  84.1340594
  37.4784518  99.2746623  78.8624679  37.3430193 100.1198158  79.2909527
  38.0194330  99.4765900  78.0990613  33.9651857  85.3538203  95.5239034
  33.5718803  84.8004401  96.1986678  34.7817998  85.6648781  95.9145552
  30.9313915  96.7922061  79.4352604  31.4438436  97.5865311  79.5858169
  31.5836628  96.0948351  79.3686205  32.7408800  99.9087817  81.5175357
  32.9175428 100.8305782  81.3296341  33.5365633  99.5946236  81.9469737
  36.8819818  86.7696082  93.1159291  37.6229532  87.3703235  93.0363753
  37.1137741  86.0273719  92.5577333  32.0261156  91.9552449  91.3937520
  31.9114672  91.0537706  91.6944619  31.1705674  92.2016146  91.0422337
  39.1052994  99.8970189  92.9925021  38.6616848  99.1106568  92.6745925
  39.7670208 100.0849340  92.3268912  33.8640115 101.4265991  87.5185699
  34.4147541 101.2983054  86.7462693  33.0251591 101.7260880  87.1680592
  41.2034232 100.1772989  91.0206422  41.1852708 100.9981870  90.5286691
  42.1254152 100.0527064  91.2456563  37.6607286  97.6917119  91.8629931
  38.1935623  96.9305407  91.6329238  37.1321368  97.3990770  92.6054085
  40.8276981  82.7977185  87.3923572  40.4841251  83.6878826  87.3162683
  41.1955944  82.6078842  86.5293157  28.8962832  95.1210715  80.2112174
  29.7338054  95.5307723  79.9945882  29.0741100  94.1810157  80.1812368
  40.7927264  92.7885796  75.8996007  40.2773888  93.5590400  76.1384395
  40.5204573  92.1150932  76.5229069  38.3774375  87.6335497  80.9581246
  37.5215971  87.2442347  80.7786884  38.7901327  87.7127457  80.0981031
  39.9073522  85.1681840  85.3572806  39.4038317  85.1311975  84.5440611
  40.2004129  86.0774583  85.4169462  36.1516408  85.2520570  84.3638987
  37.0169404  85.0563378  84.0044877  36.2193917  85.0230921  85.2908344
  45.7661538  95.5418150  77.8349181  44.9890981  95.2029310  77.3904343
  46.4453019  95.5470774  77.1604146  40.5813567  90.6612888  77.7255789
  40.2763703  90.9759037  78.5765932  41.5344009  90.7394308  77.7683122
  39.0259999  96.8203111  79.3748743  38.4981361  96.0855871  79.0621980
  38.5247502  97.5977788  79.1288711  44.0052845  95.0152132  84.4915789
  43.3476520  95.7051393  84.5795917  44.8093244  95.4048564  84.8349775
  33.7578727  87.4822777  81.7355354  34.3322479  87.2597959  81.0028547
  34.3449709  87.5511472  82.4883955  42.8158304  93.3696504  82.5419731
  43.3290186  94.0026496  83.0441440  43.4659528  92.7697700  82.1763091
  34.0848314  89.5127238  75.7551239  33.2485626  89.8501925  76.0760514
  33.9453084  89.3776218  74.8178376  36.0601394  84.3564026  80.4630423
  35.4065807  84.0413044  79.8387038  36.0181869  83.7339767  81.1890246
  37.1712599  94.6383321  72.3783716  36.2639661  94.4072575  72.5774865
  37.6683631  93.8420941  72.5657697  40.0780678 103.3480829  75.2980402
  39.4042377 103.6512525  75.9065360  40.4646500 104.1509909  74.9485859
  39.2939135  90.8445960  84.7878071  38.3761696  91.0660907  84.6299759
  39.7099278  90.9192270  83.9289778  40.0774183  92.2437376  79.9180751
  40.8246002  92.7558773  79.6087873  40.3465772  91.9221428  80.7785145
  38.3500833  94.7395916  76.9007706  37.4412052  94.4554949  76.9980175
  38.3795917  95.1594995  76.0411013  43.5820100  98.3502506  80.6698873
  43.1282427  97.5093416  80.7264064  42.9514067  98.9863904  81.0073653
  42.5253020  89.2794492  81.8999541  41.7875777  88.7671878  82.2309783
  42.7779793  88.8394873  81.0882818  42.0253039 100.1879002  81.6048691
  42.3176014 100.7484060  80.8861057  42.5351660 100.4807563  82.3601850
  42.6264647  82.0570744  82.4941310  42.9323524  81.1968107  82.2067225
  43.3517252  82.6488364  82.2940304  28.9189003  92.4601430  80.8822908
  28.7213403  91.8670791  80.1573974  28.3635667  92.1553641  81.5998847
  36.8985727  92.3524537  83.0017501  36.9534337  91.3998373  82.9259978
  36.0876929  92.5083976  83.4858799  38.0476921  96.2804660  74.2395784
  37.6096350  95.5640519  73.7801422  38.7887361  96.5080775  73.6780876
  34.8378087  90.9701597  80.7607880  34.0245952  91.2695767  81.1673072
  35.3337081  90.5757285  81.4782362  36.9886665 100.9659354  82.6942145
  36.9462843 101.1920200  81.7650677  37.9049363 100.7322728  82.8427946
  40.4352298  91.4343421  89.5922774  40.7901686  91.6614894  90.4517240
  41.0824430  91.7661798  88.9700029  46.1650035  94.5561857  80.2972103
  46.0267934  94.7463453  79.3693292  45.8086254  95.3181240  80.7540154
  34.3292161  88.5419952  86.3769115  34.9691541  88.4008711  85.6792078
  33.4969692  88.2554466  86.0007717  46.1919415  96.6238384  85.3083374
  46.6255922  96.5313673  86.1566428  46.9050996  96.5995884  84.6703390
  35.1052465  97.8422383  82.4904107  35.8993064  97.3472703  82.2886682
  34.3944158  97.3140246  82.1271813  39.9247310 100.2240478  86.8416475
  39.9784332 100.7931414  87.6094191  39.0562091 100.3942363  86.4770512
  31.4135229  91.9865464  78.5663860  30.4832817  91.9249920  78.7833822
  31.5092701  91.4641417  77.7700501  31.3320778  88.5120277  81.1542102
  31.5927595  89.4265610  81.0451262  32.1537950  88.0444720  81.3038714
  32.8045703  89.9258034  88.3240926  33.4768757  89.7175396  87.6753575
  31.9775490  89.7280120  87.8846158  47.0534965  96.6662085  87.8416260
  47.2470855  97.5707895  88.0875535  46.9535583  96.2069504  88.6754845
  38.7071275  86.5519975  90.3406587  38.0599190  87.2509925  90.2471063
  39.4772291  86.9856119  90.7082835  42.1150073  96.8168827  93.4157140
  41.9635580  96.5879379  92.4987224  42.1054753  97.7739429  93.4288485
  38.8835410  94.3900740  88.4003407  39.8127470  94.5411900  88.2272374
  38.4626440  94.4784761  87.5452053  37.6823741  98.4151405  86.1701944
  37.5434827  98.0470189  87.0427882  36.8938338  98.9299044  85.9985902
  38.2771893 103.5160501  77.5127481  38.4523649 103.0448544  78.3273104
  37.5904681 104.1426267  77.7408742  39.2328957  97.7933007  83.5590782
  38.8978789  97.7533777  84.4548432  38.7332902  97.1277723  83.0861192
  33.2073200  93.2000637  89.0843363  33.0692998  92.4680876  89.6854902
  34.1178124  93.1109537  88.8027551  42.1688148  95.1389042  73.8327842
  41.5517319  94.4135870  73.7360895  41.7004637  95.8998402  73.4894916
  35.8355501  92.9120597  88.5727043  36.5455120  92.2713789  88.5313661
  35.7924809  93.1633491  89.4953224  43.8242280  99.8487950  91.4933622
  43.7654826  99.1647170  90.8264205  44.2261798 100.5906940  91.0414248
  34.5484435  89.8985815  90.3922682  34.0121792  89.4476553  91.0444279
  33.9601144  90.0331723  89.6493147  32.8432979 106.6649864  84.2867341
  33.0829577 107.2968388  84.9646360  32.0002175 106.3137904  84.5732700
  33.9586694  89.3574466  72.9549146  33.0816160  89.2363267  72.5911393
  34.4344447  88.5660544  72.7028035  43.8259687  97.8127534  89.7247602
  42.9386466  97.4753456  89.8474001  44.3958238  97.0810565  89.9616367
  25.4788834  94.1451626  83.0490653  26.1659874  93.8313356  82.4611669
  25.3236963  95.0492990  82.7757905  30.2823556  89.0341822  87.4775677
  30.1981745  88.4267492  86.7426087  29.4606263  89.5250841  87.4785173
  37.3560841 102.4728986  86.6908845  37.2831012 103.2783958  87.2028150
  36.9138234 102.6720952  85.8656866  37.1450620 101.7100756  80.2011667
  36.3618142 102.2522436  80.2949891  37.8443365 102.2274736  80.6005908
  40.4547270  87.5195386  82.8445872  40.9515970  86.7665348  82.5246942
  39.6834252  87.5559702  82.2789081  48.3077028  93.2235751  84.4864164
  48.2966904  94.1060467  84.1158097  47.4394407  92.8707302  84.2918701
  39.8159524 102.3715820  88.8467004  40.5287496 103.0063285  88.7742905
  39.3249553 102.4679686  88.0307006  41.5377051  96.2767073  80.4184295
  40.6033330  96.3968535  80.2489000  41.7153719  95.3739540  80.1544305
  37.0382239  89.6612769  82.5717557  36.6680027  89.1083809  83.2598462
  37.5341331  89.0570902  82.0192557  44.9249602  92.1184392  80.9534330
  45.3910054  92.9512384  80.8794632  45.3757103  91.6529374  81.6579588
  34.8671438 100.1210264  89.6672575  35.5680897 100.7546747  89.8201969
  34.3966553 100.4624995  88.9068214  42.9925833  98.4628214  77.9520482
  43.2685677  98.3484808  78.8614356  42.1230332  98.0645698  77.9132655
  42.8966265  84.4864979  84.9925231  41.9829345  84.7169206  85.1607438
  43.3259366  84.5703423  85.8439263  42.6672724  92.6754871  87.4925125
  42.0144174  92.9230779  86.8377578  43.0453103  91.8619009  87.1587602
  39.6279897 102.7114564  81.5953295  39.8102292 101.8936220  82.0581048
  40.4512883 102.9282257  81.1578185  39.9622063 101.6382749  78.8568344
  40.4909829 101.1275204  78.2438506  40.2250282 101.3225280  79.7213877
  38.7160297  93.4174682  93.9791162  38.0400934  93.3168812  94.6493537
  39.5387930  93.2613896  94.4427159  30.4639156  99.6546619  86.6003677
  31.0492592  98.9090307  86.7331581  30.2663994  99.9650575  87.4840341
  33.3177811 102.6897866  81.6166120  32.6488186 103.1743994  81.1330160
  33.1790681 102.9367087  82.5309498  25.0556810  92.2252219  85.3208120
  25.0940910  91.6915810  86.1145238  24.5497103  91.6987425  84.7019098
  37.4583079 104.7241610  88.2148778  38.0101387 104.8873231  88.9797863
  37.7989273 105.3146048  87.5428803  32.4347573  87.0716760  88.8170663
  32.4988899  87.9331590  88.4048060  32.3714693  86.4590761  88.0843021
  31.9099845  89.1439892  92.4643697  32.5371884  88.7616969  93.0781221
  31.0527764  88.9254094  92.8299389  42.3093954  99.5502867  94.0697432
  42.8533858 100.1632825  93.5752387  41.7280799 100.1082446  94.5864445
  28.6865388  90.9516321  78.3962052  28.9818829  90.0427000  78.3429105
  27.7853424  90.9304061  78.0743054  40.5951467 102.6723585  85.2012460
  40.4702606 101.8713325  84.6923406  41.2530558 103.1669779  84.7126430
  32.2159635  89.0272318  84.3789600  31.4946221  89.6408285  84.2397074
  33.0052891  89.5630083  84.3006246  42.6586375 100.4732605  86.8292010
  41.7116711 100.3537956  86.7570337  43.0069148  99.5855103  86.9118272
  35.0185948  86.3626744  90.6530252  35.5420350  86.6089041  91.4156561
  34.7998282  87.1946779  90.2333389  30.4153230  88.6330419  78.5201377
  30.0865936  87.7527798  78.3376483  30.7692600  88.5778088  79.4077766
  39.6632808 100.2685322  83.0296362  39.5157771  99.3402029  83.2103932
  40.4886302 100.2905412  82.5453438  33.5295053  88.9203389  78.8876855
  33.8691125  89.4489310  78.1655463  33.9767173  89.2583795  79.6635421
  43.2666930 101.0913880  84.1161235  44.1913478 100.8856742  83.9785686
  43.0982234 100.8430281  85.0250577  36.2238494  87.3040439  88.3379923
  35.8835314  86.5048252  88.7400603  35.5177500  87.6042150  87.7656756
  36.8754965  84.3889752  86.7907246  37.6981035  83.9150230  86.6686136
  37.1193029  85.1680236  87.2905932  35.5163200  87.4178010  77.0870147
  36.2371562  87.7959263  76.5833864  34.8928504  88.1366887  77.1905125
  39.6594323  88.1223159  78.0228480  39.8757937  89.0047797  77.7217308
  39.1788390  87.7309373  77.2934122  34.3993544  91.0808872  84.5999224
  34.2538125  91.3949175  85.4923506  33.9218748  91.6993773  84.0470123
  36.2589927  88.0711420  84.6480114  36.2451496  87.1752514  84.3112412
  36.9762355  88.0782084  85.2818400  38.1116058  88.5048761  86.6933241
  37.8533836  89.4265831  86.6917572  37.5801098  88.1079195  87.3833705
  43.0562246 101.6099548  79.4723327  43.2299124 101.0445970  78.7197179
  43.5491138 102.4100443  79.2902817  28.8739206  93.6214217  87.5386885
  28.3292674  94.3974025  87.6707160  29.7518556  93.9685021  87.3806007
  35.6626823  86.9525801  79.9167684  35.7842734  86.0242447  80.1158571
  35.3728865  86.9664487  79.0045999  38.5318013  84.6380711  83.0534404
  38.5539710  84.7020044  82.0986383  38.9486072  83.7985220  83.2474910
  48.9101638  94.3735971  81.0913626  49.3532784  93.6243296  80.6932750
  48.0328148  94.3646107  80.7087358  44.0437419 100.9266312  76.5720225
  44.7388324 101.5473005  76.7907540  44.3860569 100.0761663  76.8472603
  29.6605228  92.7484113  90.4317042  28.9186964  92.8966748  91.0181673
  29.3397972  93.0092379  89.5683792  45.9428842  98.3766018  78.1007556
  46.4680166  98.7153290  77.3756876  45.8551195  97.4413033  77.9170690
  37.6048891 102.2900091  90.2297432  37.9136017 102.0449238  91.1020132
  38.4024373 102.4946730  89.7416303  37.6269503 104.4438001  82.4602809
  37.1874493 103.9514380  83.1535666  38.3777620 103.9010969  82.2194884
  30.1061842 100.6349542  82.4627437  30.9319862 100.3353314  82.0826080
  29.7555894  99.8657164  82.9117226  35.0743375  99.9876010  84.5325111
  34.4523384  99.3246715  84.2327338  35.7448242 100.0137142  83.8498758
  28.3070447  98.5535868  83.4216371  27.4702355  98.1258043  83.2400372
  28.2794092  98.7468312  84.3587162  35.1467902  88.4657798  94.1257617
  35.1956058  89.3419921  93.7435386  35.6890417  87.9235191  93.5529260
  45.6322748  99.0098921  93.4058754  44.8418292  98.9923060  92.8663253
  45.3956103  99.5487215  94.1607790  45.7520623  95.8591388  90.7191482
  45.8018628  95.6941395  91.6607005  45.6434547  94.9918647  90.3289363
  34.6356882  98.5379933  78.0083571  34.7845002  99.2215398  77.3550244
  35.4423325  98.5185023  78.5233027  43.0424386  91.8422316  92.0350789
  43.9434248  91.7028781  91.7434787  43.1172360  92.0076771  92.9748966
  37.3767191  89.2189170  90.8803975  36.5070500  89.5122736  90.6086564
  37.6126671  89.8029615  91.6011239  47.2538820  98.2788329  90.9633504
  46.9623628  98.6418310  91.7996965  46.6410951  97.5655337  90.7846836
  48.4534502  95.8441209  83.4836074  49.2881394  96.2831013  83.6473634
  48.5893631  95.3679862  82.6644320  45.5026008  93.4020944  89.4313562
  45.9780130  93.5948590  88.6232413  44.5791574  93.4580130  89.1856945
  32.3909515  94.5645111  79.0144640  32.1455557  93.6607441  79.2124850
  32.5605429  94.5662261  78.0724118  40.0806225  85.4368787  88.3969396
  40.5988169  86.1729814  88.0715884  39.7261357  85.7432781  89.2316155
  31.6605162  90.2973469  76.5130801  30.9674407  90.3717824  75.8570837
  31.4156914  89.5333812  77.0352318  40.3318819  81.8569070  83.9170292
  40.6120573  81.1892259  84.5430719  41.1169426  82.0498166  83.4044956
  38.1352287 101.0328064  75.4795319  37.5626254 101.6518251  75.0265790
  38.7085081 101.5827425  76.0135240  44.2027677  90.2786704  87.6641867
  45.1545100  90.3784802  87.6854091  44.0331128  89.4864972  88.1739952
  42.2242057  87.3642287  87.8501268  41.6291989  87.6447300  87.1547757
  41.9391753  87.8536188  88.6218009  41.3549547 101.3165214  76.6103901
  42.2880220 101.2510776  76.8136776  41.2672760 102.1521481  76.1518433
  43.9837564 100.6331084  73.5707848  43.9051195 100.2990948  74.4643606
  44.8047231 101.1252852  73.5699321  46.6815755  93.4992824  86.7784167
  46.6492075  92.5608824  86.9643851  47.2916379  93.5776860  86.0449992
  38.5199086  92.3688877  72.8211371  39.4658191  92.2395085  72.8899789
  38.1413331  91.6303538  73.2980799  46.8310244  90.2903867  86.8242450
  46.3149292  89.5062324  86.6372379  47.7150192  89.9622584  86.9888970
  44.4920970  84.0344883  82.7838263  44.2945792  83.7259971  83.6681595
  45.1020676  84.7606521  82.9136193  52.4992305  94.5608830  85.9190204
  53.2295693  94.2994119  86.4797907  51.8899250  93.8237552  85.9592272
  50.5807602  92.7016693  86.5164655  49.8540766  92.5672658  85.9081147
  50.1654889  93.0093522  87.3221373  38.4037778  96.4206623  94.2812028
  39.3240788  96.5985222  94.4752075  38.3687361  95.4762668  94.1291727
  36.7042003  90.2938853  72.7566256  35.7973458  89.9971966  72.8328970
  36.9817984  89.9968671  71.8900542  27.6219943  91.6145216  83.2065303
  27.3022728  90.7610525  82.9139677  27.0753372  91.8293794  83.9623270
  31.3999851  94.3307657  86.9234809  31.6185861  95.2624765  86.9422843
  31.8125625  93.9715632  87.7089613  38.3204069  84.8375743  78.9110498
  37.5104797  84.4922828  79.2865744  39.0088486  84.5283286  79.4998109
  40.2494617  83.9153789  80.5334794  40.8025656  84.3349243  81.1924817
  40.4864703  82.9889538  80.5757750  36.2727716  89.9040863  96.3137558
  36.1724443  90.8535220  96.2449649  36.0549258  89.5759102  95.4413628
  35.4740788  87.1525788  72.8978235  36.3359952  87.4780686  73.1574053
  35.6591132  86.3657284  72.3851301  27.4908203  95.2348128  85.1758424
  26.7971675  94.8202081  84.6628379  28.2381194  95.2768664  84.5791843
  43.6273424  86.0254315  80.0413458  43.0472093  86.6839119  79.6591511
  43.3609357  85.2031659  79.6300876  42.0776991  85.4259372  82.2434779
  42.5776769  85.5375907  81.4349098  42.7212598  85.1220425  82.8835587
  36.1358986  93.3338002  95.1302620  35.6526068  94.1338362  95.3366509
  36.2219925  93.3445947  94.1770064  29.4044946  95.1666382  83.0524439
  29.3815634  95.2654069  82.1006322  29.7145582  96.0131532  83.3741605
  32.0632324  97.2242537  87.1671054  33.0175577  97.1926479  87.1000985
  31.8644847  96.7633160  87.9821279  32.6531706  95.7943653  89.7341851
  33.4724595  96.2887731  89.7576688  32.9268514  94.8775621  89.7059419
  42.4098302  88.1854405  79.0969807  41.5224157  88.4704056  78.8790001
  42.8252291  88.0248168  78.2497084  45.7612838  88.2100926  82.8124146
  46.5373228  88.6997378  83.0848763  45.0360972  88.6358980  83.2696015
  48.1985397  88.9228545  83.8698087  48.7929888  88.6824281  83.1591395
  48.2711981  88.2035676  84.4971623  30.4182553 102.7662156  84.1841251
  30.2837021 102.0062557  83.6179249  30.0014615 103.4903056  83.7170040
  41.5541516  97.9499080  73.1917827  42.2577366  98.1549082  73.8075482
  40.8304164  98.5175842  73.4566910  42.3839326  93.7008941  79.3120097
  42.3274527  94.1577492  78.4727729  42.9367668  92.9399626  79.1342940
  46.1944132  89.4898673  80.1370216  45.9381066  89.0895308  80.9678424
  45.5697000  90.2042467  80.0120356  50.5056470  92.2294746  82.6441508
  49.9456028  92.2987935  83.4173070  49.8999973  92.0535731  81.9241004
  33.5751678 103.6631473  84.3959694  33.4584063 104.6076906  84.2938384
  32.7544125 103.3605035  84.7845493  43.4628213  98.3881609  75.2416287
  44.2973817  97.9562807  75.0593762  43.3012556  98.2163623  76.1693181
  43.1174105  94.8913722  76.6072626  43.0622909  94.7257994  75.6661070
  42.4920160  95.5989755  76.7634816  27.9066620  90.1281787  90.4334048
  28.5525484  89.6180741  90.9221273  27.6983771  90.8650468  91.0077474
  40.4320012  97.1962634  95.9326189  41.3011172  97.3703286  95.5712824
  39.9526764  98.0157051  95.8101918  36.4270231  84.3921831  76.1857944
  36.4148900  85.3363671  76.3426215  37.3193653  84.2091977  75.8917406
  34.6006193 104.3159735  87.6115622  35.5033439 104.3483345  87.9282117
  34.3743563 103.3860186  87.6261958  36.3559795 103.0690722  84.2725701
  35.4055426 103.0692583  84.1590073  36.6592281 102.3223456  83.7561736
  40.2422350  80.9864608  80.4403881  39.4754746  80.4323095  80.5860564
  40.6533055  81.0586477  81.3018033  32.2464111  87.2749404  94.5309062
  33.1095573  86.9186208  94.7412387  31.6729522  86.9363298  95.2184467
  52.0912488 108.9051260  85.3371463  52.7290898 108.7858007  84.6334804
  51.9733331 109.8532104  85.3959416  48.9002194 108.8578688  85.2732988
  48.5620706 108.7419753  84.3853523  49.7691963 108.4569853  85.2533994
  44.7589010 110.7114164  81.2629879  44.1953875 110.6204101  80.4946167
  44.6441405 109.8914069  81.7432372  49.3821977 110.0113540  91.2319194
  49.3710618 109.6166338  90.3599697  49.5442617 109.2779612  91.8252965
  42.3053442 112.2065356  84.1014100  43.0974734 111.8656181  83.6860399
  42.5450092 112.3160331  85.0216253  50.3388569 114.3785132  76.5744344
  49.6876549 114.9639213  76.1878358  51.1332932 114.9091327  76.6339382
  44.2644196 111.4674269  76.9731478  45.0375072 110.9203256  76.8344354
  44.6169595 112.3318519  77.1845940  46.1029239 112.7950652  90.1798378
  45.8119105 113.6996282  90.0645044  46.7386223 112.8367179  90.8942447
  47.0285445 110.1727500  86.7699737  47.6249018 109.9483523  86.0556700
  47.0860417 109.4312246  87.3725185  46.6010474 107.6266935  74.6049928
  46.8535994 107.1048457  73.8433391  45.6635033 107.4633081  74.7076612
  51.6453757 106.6302714  82.4124672  52.4316846 106.2122137  82.0615089
  51.9092461 107.5348806  82.5806320  51.8163834 112.0675564  77.1113328
  51.1809667 112.1410191  77.8234233  51.4861240 112.6569163  76.4332408
  57.0462184 106.5677947  83.3157650  57.7787356 105.9977164  83.5495480
  56.2901539 106.1799547  83.7564156  46.3206763 109.5295041  76.8074303
  46.2043021 108.8539945  77.4755388  46.4309022 109.0427415  75.9906456
  48.6638303 108.9905189  80.5120992  48.2996511 108.4635810  81.2233914
  49.5205419 108.6003658  80.3387478  54.5687604 100.2799521  87.7752259
  54.2370929 101.1494932  87.5513474  53.9733217  99.9635805  88.4546289
  48.3043790 104.0195088  75.5082341  48.4718193 104.8875325  75.8752812
  48.1140960 104.1822370  74.5843630  51.0619124 112.4812067  87.1748171
  50.7619847 113.3837106  87.0663979  50.7170183 112.2144250  88.0269324
  44.5131605 108.9325864  83.2084876  43.5882102 108.8002078  83.4162568
  44.7616018 109.7120083  83.7054818  54.4616267 104.9994607  84.8545609
  53.5533145 104.9310016  84.5604370  54.4103863 105.4766552  85.6827434
  48.2833011 106.4752746  76.4929008  48.1632637 106.9209796  77.3314488
  47.5885600 106.8238063  75.9342546  41.8740416 108.5759138  84.0428665
  42.0032797 108.8293616  84.9568077  41.1937867 109.1686846  83.7233320
  46.0439903 119.2456387  80.1419139  45.9663933 120.1964213  80.2207620
  45.4401547 118.9002260  80.7994065  48.5357133 106.4184253  92.7980506
  47.7590467 106.9778173  92.7883371  49.1747696 106.9041036  93.3195376
  56.3277914 103.2011046  86.6323483  55.6852294 103.4943579  85.9863277
  55.8232842 103.0863966  87.4376679  53.9818077 106.9474219  77.3209342
  54.8935934 107.1801606  77.1457039  53.4727725 107.5311263  76.7584420
  46.7903505 109.2269706  92.3598473  47.5318190 109.7654750  92.0833297
  46.0840491 109.8535995  92.5170025  52.2658845 111.3698847  90.9570634
  52.6742201 110.9281257  90.2125267  51.5436107 110.7951474  91.2104827
  48.6189915 106.3071453  88.3304191  49.4651110 106.7310867  88.4738840
  48.5588553 105.6505078  89.0242755  52.5887660 111.9300037  84.7122923
  51.9596522 112.0945751  84.0098991  52.2013322 112.3441647  85.4833887
  56.4676892 112.8654475  82.0667287  55.7827930 113.2453377  81.5164320
  56.5520741 113.4749802  82.7999235  51.7689361 103.9675822  89.9885365
  51.5250292 104.7217882  89.4519641  52.0449291 104.3461169  90.8232612
  53.7227823 110.5114434  88.6662631  53.9344719 111.1546194  87.9897012
  53.6757572 109.6776751  88.1984561  51.3254052 103.1232255  85.5699203
  50.4638531 103.4213508  85.8615940  51.3516487 103.3402654  84.6380235
  48.1415622 111.6674445  81.9773008  48.6053967 111.9462148  81.1877631
  47.8772420 110.7657890  81.7946099  45.0339703 111.2145927  84.9152772
  45.6041060 111.6433195  84.2770256  45.6247815 110.9328512  85.6136957
  47.0784508 107.7897598  78.7862574  47.7808551 108.2418641  79.2536500
  46.7465136 107.1481417  79.4142467  45.5264869 106.3809354  93.1613783
  44.8963530 107.0625635  93.3949180  45.4200957 106.2692436  92.2166921
  40.8209842 106.0481150  84.0879707  40.0308896 106.3038679  83.6119818
  41.3121089 106.8629488  84.1931748  54.8373651 113.3886390  86.8384988
  55.6591095 112.9866577  86.5567670  54.8336054 113.2854624  87.7901104
  42.7724587 106.4125730  81.0463184  41.9755750 106.5244424  81.5646680
  42.5450179 106.7512382  80.1804074  48.6030255 112.9370433  88.9945698
  48.6674687 113.3990840  89.8303870  47.8941179 112.3067798  89.1228008
  39.1047545 106.3011641  86.5194698  39.3555583 107.1858651  86.7852274
  39.6407093 106.1216242  85.7469790  48.3178272 114.6038540  78.8624679
  48.1823947 115.4490076  79.2909527  48.8588085 114.8057818  78.0990613
  44.8045612 100.6830120  95.5239034  44.4112558 100.1296319  96.1986678
  45.6211752 100.9940699  95.9145552  41.7707670 112.1213978  79.4352604
  42.2832190 112.9157229  79.5858169  42.4230383 111.4240269  79.3686205
  43.5802554 115.2379735  81.5175357  43.7569183 116.1597699  81.3296341
  44.3759388 114.9238154  81.9469737  47.7213573 102.0987999  93.1159291
  48.4623286 102.6995153  93.0363753  47.9531496 101.3565637  92.5577333
  42.8654911 107.2844367  91.3937520  42.7508426 106.3829624  91.6944619
  42.0099429 107.5308063  91.0422337  49.9446749 115.2262107  92.9925021
  49.5010603 114.4398486  92.6745925  50.6063962 115.4141257  92.3268912
  44.7033870 116.7557909  87.5185699  45.2541295 116.6274972  86.7462693
  43.8645346 117.0552798  87.1680592  52.0427987 115.5064907  91.0206422
  52.0246462 116.3273788  90.5286691  52.9647907 115.3818982  91.2456563
  48.5001041 113.0209036  91.8629931  49.0329378 112.2597325  91.6329238
  47.9715122 112.7282688  92.6054085  51.6670736  98.1269102  87.3923572
  51.3235005  99.0170744  87.3162683  52.0349698  97.9370760  86.5293157
  39.7356586 110.4502633  80.2112174  40.5731809 110.8599641  79.9945882
  39.9134854 109.5102075  80.1812368  51.6321019 108.1177713  75.8996007
  51.1167642 108.8882318  76.1384395  51.3598327 107.4442850  76.5229069
  49.2168130 102.9627414  80.9581246  48.3609726 102.5734265  80.7786884
  49.6295081 103.0419375  80.0981031  50.7467276 100.4973757  85.3572806
  50.2432072 100.4603893  84.5440611  51.0397883 101.4066500  85.4169462
  46.9910162 100.5812487  84.3638987  47.8563159 100.3855296  84.0044877
  47.0587671 100.3522839  85.2908344  56.6055293 110.8710068  77.8349181
  55.8284736 110.5321228  77.3904343  57.2846774 110.8762691  77.1604146
  51.4207322 105.9904806  77.7255789  51.1157457 106.3050955  78.5765932
  52.3737764 106.0686225  77.7683122  49.8653754 112.1495029  79.3748743
  49.3375115 111.4147788  79.0621980  49.3641256 112.9269705  79.1288711
  54.8446600 110.3444049  84.4915789  54.1870274 111.0343311  84.5795917
  55.6486999 110.7340481  84.8349775  44.5972481 102.8114695  81.7355354
  45.1716233 102.5889877  81.0028547  45.1843464 102.8803390  82.4883955
  53.6552058 108.6988422  82.5419731  54.1683940 109.3318414  83.0441440
  54.3053282 108.0989618  82.1763091  44.9242068 104.8419156  75.7551239
  44.0879381 105.1793843  76.0760514  44.7846838 104.7068136  74.8178376
  46.8995149  99.6855944  80.4630423  46.2459561  99.3704961  79.8387038
  46.8575623  99.0631684  81.1890246  48.0106354 109.9675239  72.3783716
  47.1033416 109.7364493  72.5774865  48.5077386 109.1712858  72.5657697
  50.9174433 118.6772746  75.2980402  50.2436131 118.9804443  75.9065360
  51.3040255 119.4801827  74.9485859  50.1332889 106.1737878  84.7878071
  49.2155451 106.3952825  84.6299759  50.5493033 106.2484188  83.9289778
  50.9167937 107.5729293  79.9180751  51.6639756 108.0850690  79.6087873
  51.1859527 107.2513346  80.7785145  49.1894587 110.0687834  76.9007706
  48.2805807 109.7846867  76.9980175  49.2189671 110.4886913  76.0411013
  54.4213855 113.6794423  80.6698873  53.9676182 112.8385333  80.7264064
  53.7907821 114.3155822  81.0073653  53.3646774 104.6086410  81.8999541
  52.6269531 104.0963796  82.2309783  53.6173548 104.1686791  81.0882818
  52.8646794 115.5170920  81.6048691  53.1569768 116.0775977  80.8861057
  53.3745414 115.8099481  82.3601850  53.4658402  97.3862662  82.4941310
  53.7717278  96.5260025  82.2067225  54.1911006  97.9780282  82.2940304
  39.7582758 107.7893348  80.8822908  39.5607157 107.1962709  80.1573974
  39.2029422 107.4845558  81.5998847  47.7379481 107.6816455  83.0017501
  47.7928091 106.7290291  82.9259978  46.9270683 107.8375894  83.4858799
  48.8870675 111.6096578  74.2395784  48.4490105 110.8932437  73.7801422
  49.6281116 111.8372692  73.6780876  45.6771841 106.2993514  80.7607880
  44.8639707 106.5987685  81.1673072  46.1730835 105.9049203  81.4782362
  47.8280419 116.2951271  82.6942145  47.7856598 116.5212118  81.7650677
  48.7443118 116.0614646  82.8427946  51.2746053 106.7635339  89.5922774
  51.6295441 106.9906812  90.4517240  51.9218184 107.0953716  88.9700029
  57.0043790 109.8853775  80.2972103  56.8661688 110.0755371  79.3693292
  56.6480009 110.6473157  80.7540154  45.1685916 103.8711870  86.3769115
  45.8085295 103.7300629  85.6792078  44.3363447 103.5846383  86.0007717
  57.0313169 111.9530302  85.3083374  57.4649676 111.8605591  86.1566428
  57.7444750 111.9287802  84.6703390  45.9446220 113.1714300  82.4904107
  46.7386818 112.6764620  82.2886682  45.2337912 112.6432163  82.1271813
  50.7641064 115.5532396  86.8416475  50.8178087 116.1223332  87.6094191
  49.8955846 115.7234281  86.4770512  42.2528983 107.3157382  78.5663860
  41.3226571 107.2541837  78.7833822  42.3486455 106.7933335  77.7700501
  42.1714532 103.8412195  81.1542102  42.4321350 104.7557528  81.0451262
  42.9931705 103.3736637  81.3038714  43.6439458 105.2549952  88.3240926
  44.3162511 105.0467314  87.6753575  42.8169244 105.0572038  87.8846158
  57.8928719 111.9954002  87.8416260  58.0864609 112.8999813  88.0875535
  57.7929337 111.5361421  88.6754845  49.5465030 101.8811893  90.3406587
  48.8992945 102.5801843  90.2471063  50.3166045 102.3148037  90.7082835
  52.9543828 112.1460745  93.4157140  52.8029334 111.9171297  92.4987224
  52.9448507 113.1031347  93.4288485  49.7229164 109.7192658  88.4003407
  50.6521224 109.8703817  88.2272374  49.3020194 109.8076679  87.5452053
  48.5217496 113.7443322  86.1701944  48.3828582 113.3762107  87.0427882
  47.7332092 114.2590962  85.9985902  49.1165648 118.8452419  77.5127481
  49.2917404 118.3740462  78.3273104  48.4298436 119.4718185  77.7408742
  50.0722711 113.1224925  83.5590782  49.7372544 113.0825695  84.4548432
  49.5726657 112.4569641  83.0861192  44.0466955 108.5292555  89.0843363
  43.9086753 107.7972794  89.6854902  44.9571878 108.4401455  88.8027551
  53.0081903 110.4680959  73.8327842  52.3911073 109.7427787  73.7360895
  52.5398391 111.2290320  73.4894916  46.6749256 108.2412514  88.5727043
  47.3848874 107.6005706  88.5313661  46.6318564 108.4925409  89.4953224
  54.6636034 115.1779868  91.4933622  54.6048580 114.4939088  90.8264205
  55.0655553 115.9198858  91.0414248  45.3878190 105.2277732  90.3922682
  44.8515547 104.7768471  91.0444279  44.7994898 105.3623641  89.6493147
  43.6826733 121.9941781  84.2867341  43.9223331 122.6260306  84.9646360
  42.8395930 121.6429821  84.5732700  44.7980449 104.6866384  72.9549146
  43.9209915 104.5655184  72.5911393  45.2738202 103.8952462  72.7028035
  54.6653442 113.1419452  89.7247602  53.7780220 112.8045373  89.8474001
  55.2351993 112.4102483  89.9616367  36.3182589 109.4743543  83.0490653
  37.0053629 109.1605273  82.4611669  36.1630717 110.3784908  82.7757905
  41.1217311 104.3633740  87.4775677  41.0375500 103.7559409  86.7426087
  40.3000017 104.8542758  87.4785173  48.1954595 117.8020904  86.6908845
  48.1224766 118.6075875  87.2028150  47.7531988 118.0012870  85.8656866
  47.9844375 117.0392674  80.2011667  47.2011897 117.5814354  80.2949891
  48.6837120 117.5566654  80.6005908  51.2941025 102.8487303  82.8445872
  51.7909724 102.0957266  82.5246942  50.5228006 102.8851620  82.2789081
  59.1470782 108.5527669  84.4864164  59.1360658 109.4352384  84.1158097
  58.2788162 108.1999220  84.2918701  50.6553279 117.7007738  88.8467004
  51.3681251 118.3355203  88.7742905  50.1643307 117.7971604  88.0307006
  52.3770805 111.6058991  80.4184295  51.4427084 111.7260453  80.2489000
  52.5547474 110.7031457  80.1544305  47.8775993 104.9904686  82.5717557
  47.5073781 104.4375727  83.2598462  48.3735086 104.3862820  82.0192557
  55.7643357 107.4476310  80.9534330  56.2303809 108.2804302  80.8794632
  56.2150857 106.9821291  81.6579588  45.7065192 115.4502181  89.6672575
  46.4074652 116.0838664  89.8201969  45.2360307 115.7916913  88.9068214
  53.8319588 113.7920131  77.9520482  54.1079432 113.6776726  78.8614356
  52.9624087 113.3937616  77.9132655  53.7360020  99.8156897  84.9925231
  52.8223099 100.0461124  85.1607438  54.1653121  99.8995341  85.8439263
  53.5066478 108.0046789  87.4925125  52.8537928 108.2522696  86.8377578
  53.8846858 107.1910927  87.1587602  50.4673652 118.0406482  81.5953295
  50.6496046 117.2228138  82.0581048  51.2906638 118.2574174  81.1578185
  50.8015817 116.9674667  78.8568344  51.3303584 116.4567122  78.2438506
  51.0644037 116.6517197  79.7213877  49.5554051 108.7466600  93.9791162
  48.8794688 108.6460729  94.6493537  50.3781685 108.5905814  94.4427159
  41.3032910 114.9838536  86.6003677  41.8886347 114.2382224  86.7331581
  41.1057749 115.2942493  87.4840341  44.1571565 118.0189784  81.6166120
  43.4881941 118.5035911  81.1330160  44.0184435 118.2659004  82.5309498
  35.8950565 107.5544137  85.3208120  35.9334664 107.0207727  86.1145238
  35.3890858 107.0279342  84.7019098  48.2976834 120.0533527  88.2148778
  48.8495142 120.2165149  88.9797863  48.6383027 120.6437965  87.5428803
  43.2741327 102.4008677  88.8170663  43.3382654 103.2623508  88.4048060
  43.2108447 101.7882679  88.0843021  42.7493600 104.4731810  92.4643697
  43.3765638 104.0908887  93.0781221  41.8921519 104.2546012  92.8299389
  53.1487708 114.8794785  94.0697432  53.6927612 115.4924743  93.5752387
  52.5674553 115.4374363  94.5864445  39.5259142 106.2808239  78.3962052
  39.8212584 105.3718917  78.3429105  38.6247178 106.2595978  78.0743054
  51.4345221 118.0015503  85.2012460  51.3096361 117.2005243  84.6923406
  52.0924312 118.4961696  84.7126430  43.0553389 104.3564235  84.3789600
  42.3339975 104.9700203  84.2397074  43.8446645 104.8922000  84.3006246
  53.4980130 115.8024523  86.8292010  52.5510465 115.6829874  86.7570337
  53.8462903 114.9147021  86.9118272  45.8579703 101.6918662  90.6530252
  46.3814105 101.9380958  91.4156561  45.6392036 102.5238697  90.2333389
  41.2546984 103.9622336  78.5201377  40.9259690 103.0819715  78.3376483
  41.6086355 103.9070005  79.4077766  50.5026563 115.5977239  83.0296362
  50.3551525 114.6693947  83.2103932  51.3280056 115.6197330  82.5453438
  44.3688807 104.2495306  78.8876855  44.7084880 104.7781228  78.1655463
  44.8160928 104.5875712  79.6635421  54.1060685 116.4205798  84.1161235
  55.0307232 116.2148659  83.9785686  53.9375988 116.1722199  85.0250577
  47.0632248 102.6332357  88.3379923  46.7229068 101.8340170  88.7400603
  46.3571254 102.9334068  87.7656756  47.7148720  99.7181669  86.7907246
  48.5374789  99.2442148  86.6686136  47.9586783 100.4972153  87.2905932
  46.3556954 102.7469928  77.0870147  47.0765317 103.1251181  76.5833864
  45.7322258 103.4658805  77.1905125  50.4988077 103.4515077  78.0228480
  50.7151692 104.3339715  77.7217308  50.0182144 103.0601290  77.2934122
  45.2387299 106.4100790  84.5999224  45.0931879 106.7241093  85.4923506
  44.7612502 107.0285690  84.0470123  47.0983681 103.4003338  84.6480114
  47.0845250 102.5044431  84.3112412  47.8156110 103.4074002  85.2818400
  48.9509812 103.8340678  86.6933241  48.6927590 104.7557749  86.6917572
  48.4194853 103.4371113  87.3833705  53.8956001 116.9391465  79.4723327
  54.0692878 116.3737888  78.7197179  54.3884892 117.7392360  79.2902817
  39.7132961 108.9506134  87.5386885  39.1686429 109.7265942  87.6707160
  40.5912311 109.2976939  87.3806007  46.5020577 102.2817718  79.9167684
  46.6236489 101.3534365  80.1158571  46.2122620 102.2956404  79.0045999
  49.3711768  99.9672629  83.0534404  49.3933465 100.0311962  82.0986383
  49.7879827  99.1277137  83.2474910  59.7495392 109.7027888  81.0913626
  60.1926538 108.9535214  80.6932750  58.8721902 109.6938025  80.7087358
  54.8831173 116.2558230  76.5720225  55.5782078 116.8764922  76.7907540
  55.2254324 115.4053581  76.8472603  40.4998983 108.0776031  90.4317042
  39.7580719 108.2258666  91.0181673  40.1791727 108.3384296  89.5683792
  56.7822597 113.7057935  78.1007556  57.3073921 114.0445208  77.3756876
  56.6944949 112.7704951  77.9170690  48.4442645 117.6192009  90.2297432
  48.7529772 117.3741156  91.1020132  49.2418127 117.8238647  89.7416303
  48.4663257 119.7729919  82.4602809  48.0268248 119.2806297  83.1535666
  49.2171374 119.2302886  82.2194884  40.9455596 115.9641459  82.4627437
  41.7713616 115.6645231  82.0826080  40.5949648 115.1949082  82.9117226
  45.9137129 115.3167928  84.5325111  45.2917139 114.6538633  84.2327338
  46.5841996 115.3429060  83.8498758  39.1464201 113.8827786  83.4216371
  38.3096110 113.4549960  83.2400372  39.1187847 114.0760229  84.3587162
  45.9861657 103.7949716  94.1257617  46.0349812 104.6711839  93.7435386
  46.5284171 103.2527109  93.5529260  56.4716503 114.3390839  93.4058754
  55.6812046 114.3214978  92.8663253  56.2349857 114.8779133  94.1607790
  56.5914378 111.1883305  90.7191482  56.6412383 111.0233313  91.6607005
  56.4828301 110.3210564  90.3289363  45.4750636 113.8671851  78.0083571
  45.6238757 114.5507315  77.3550244  46.2817080 113.8476941  78.5233027
  53.8818140 107.1714233  92.0350789  54.7828003 107.0320698  91.7434787
  53.9566115 107.3368688  92.9748966  48.2160945 104.5481088  90.8803975
  47.3464255 104.8414654  90.6086564  48.4520426 105.1321533  91.6011239
  58.0932574 113.6080247  90.9633504  57.8017383 113.9710227  91.7996965
  57.4804706 112.8947255  90.7846836  59.2928257 111.1733127  83.4836074
  60.1275148 111.6122931  83.6473634  59.4287386 110.6971780  82.6644320
  56.3419763 108.7312861  89.4313562  56.8173884 108.9240508  88.6232413
  55.4185328 108.7872047  89.1856945  43.2303269 109.8937029  79.0144640
  42.9849311 108.9899359  79.2124850  43.3999184 109.8954179  78.0724118
  50.9199979 100.7660705  88.3969396  51.4381923 101.5021732  88.0715884
  50.5655112 101.0724698  89.2316155  42.4998917 105.6265386  76.5130801
  41.8068162 105.7009741  75.8570837  42.2550669 104.8625730  77.0352318
  51.1712573  97.1860988  83.9170292  51.4514327  96.5184177  84.5430719
  51.9563180  97.3790083  83.4044956  48.9746042 116.3619981  75.4795319
  48.4020009 116.9810169  75.0265790  49.5478836 116.9119343  76.0135240
  55.0421432 105.6078622  87.6641867  55.9938855 105.7076719  87.6854091
  54.8724882 104.8156890  88.1739952  53.0635811 102.6934205  87.8501268
  52.4685743 102.9739217  87.1547757  52.7785508 103.1828106  88.6218009
  52.1943302 116.6457132  76.6103901  53.1273975 116.5802693  76.8136776
  52.1066514 117.4813398  76.1518433  54.8231318 115.9623002  73.5707848
  54.7444950 115.6282866  74.4643606  55.6440985 116.4544770  73.5699321
  57.5209510 108.8284741  86.7784167  57.4885830 107.8900742  86.9643851
  58.1310133 108.9068778  86.0449992  49.3592840 107.6980794  72.8211371
  50.3051945 107.5687002  72.8899789  48.9807085 106.9595456  73.2980799
  57.6703998 105.6195785  86.8242450  57.1543047 104.8354241  86.6372379
  58.5543947 105.2914501  86.9888970  55.3314725  99.3636800  82.7838263
  55.1339546  99.0551888  83.6681595  55.9414430 100.0898439  82.9136193
  49.2431533 111.7498540  94.2812028  50.1634542 111.9277139  94.4752075
  49.2081116 110.8054586  94.1291727  47.5435758 105.6230771  72.7566256
  46.6367213 105.3263883  72.8328970  47.8211739 105.3260589  71.8900542
  38.4613698 106.9437134  83.2065303  38.1416482 106.0902442  82.9139677
  37.9147126 107.1585712  83.9623270  42.2393605 109.6599575  86.9234809
  42.4579615 110.5916683  86.9422843  42.6519379 109.3007549  87.7089613
  49.1597823 100.1667660  78.9110498  48.3498552  99.8214745  79.2865744
  49.8482240  99.8575204  79.4998109  51.0888372  99.2445707  80.5334794
  51.6419410  99.6641161  81.1924817  51.3258458  98.3181455  80.5757750
  47.1121471 105.2332781  96.3137558  47.0118198 106.1827138  96.2449649
  46.8943013 104.9051020  95.4413628  46.3134542 102.4817706  72.8978235
  47.1753706 102.8072604  73.1574053  46.4984886 101.6949202  72.3851301
  38.3301958 110.5640046  85.1758424  37.6365429 110.1493998  84.6628379
  39.0774949 110.6060582  84.5791843  54.4667179 101.3546232  80.0413458
  53.8865848 102.0131036  79.6591511  54.2003111 100.5323577  79.6300876
  52.9170745 100.7551290  82.2434779  53.4170523 100.8667825  81.4349098
  53.5606353 100.4512343  82.8835587  46.9752741 108.6629920  95.1302620
  46.4919823 109.4630280  95.3366509  47.0613680 108.6737864  94.1770064
  40.2438700 110.4958299  83.0524439  40.2209389 110.5945987  82.1006322
  40.5539337 111.3423450  83.3741605  42.9026078 112.5534454  87.1671054
  43.8569332 112.5218397  87.1000985  42.7038602 112.0925078  87.9821279
  43.4925460 111.1235570  89.7341851  44.3118349 111.6179649  89.7576688
  43.7662268 110.2067539  89.7059419  53.2492057 103.5146323  79.0969807
  52.3617912 103.7995973  78.8790001  53.6646046 103.3540086  78.2497084
  56.6006593 103.5392844  82.8124146  57.3766983 104.0289296  83.0848763
  55.8754727 103.9650898  83.2696015  59.0379151 104.2520463  83.8698087
  59.6323642 104.0116199  83.1591395  59.1105735 103.5327593  84.4971623
  41.2576307 118.0954074  84.1841251  41.1230775 117.3354475  83.6179249
  40.8408369 118.8194974  83.7170040  52.3935270 113.2790997  73.1917827
  53.0971120 113.4841000  73.8075482  51.6697919 113.8467759  73.4566910
  53.2233080 109.0300859  79.3120097  53.1668282 109.4869410  78.4727729
  53.7761423 108.2691543  79.1342940  57.0337886 104.8190590  80.1370216
  56.7774821 104.4187226  80.9678424  56.4090754 105.5334384  80.0120356
  61.3450224 107.5586664  82.6441508  60.7849782 107.6279853  83.4173070
  60.7393728 107.3827648  81.9241004  44.4145433 118.9923391  84.3959694
  44.2977817 119.9368823  84.2938384  43.5937879 118.6896952  84.7845493
  54.3021968 113.7173527  75.2416287  55.1367571 113.2854725  75.0593762
  54.1406310 113.5455540  76.1693181  53.9567860 110.2205640  76.6072626
  53.9016663 110.0549911  75.6661070  53.3313915 110.9281673  76.7634816
  38.7460375 105.4573704  90.4334048  39.3919238 104.9472658  90.9221273
  38.5377526 106.1942386  91.0077474  51.2713767 112.5254552  95.9326189
  52.1404927 112.6995204  95.5712824  50.7920518 113.3448969  95.8101918
  47.2663985  99.7213749  76.1857944  47.2542655 100.6655589  76.3426215
  48.1587407  99.5383894  75.8917406  45.4399947 119.6451653  87.6115622
  46.3427194 119.6775263  87.9282117  45.2137317 118.7152104  87.6261958
  47.1953549 118.3982639  84.2725701  46.2449180 118.3984501  84.1590073
  47.4986035 117.6515374  83.7561736  51.0816105  96.3156525  80.4403881
  50.3148500  95.7615012  80.5860564  51.4926810  96.3878394  81.3018033
  43.0857866 102.6041321  94.5309062  43.9489327 102.2478126  94.7412387
  42.5123276 102.2655216  95.2184467  62.9306243 124.2343178  85.3371463
  63.5684653 124.1149925  84.6334804  62.8127085 125.1824022  85.3959416
  59.7395949 124.1870606  85.2732988  59.4014460 124.0711670  84.3853523
  60.6085717 123.7861771  85.2533994  55.5982765 126.0406082  81.2629879
  55.0347630 125.9496019  80.4946167  55.4835160 125.2205987  81.7432372
  60.2215732 125.3405457  91.2319194  60.2104373 124.9458256  90.3599697
  60.3836371 124.6071530  91.8252965  53.1447197 127.5357274  84.1014100
  53.9368488 127.1948098  83.6860399  53.3843847 127.6452249  85.0216253
  61.1782323 129.7077050  76.5744344  60.5270303 130.2931130  76.1878358
  61.9726686 130.2383245  76.6339382  55.1037950 126.7966187  76.9731478
  55.8768826 126.2495174  76.8344354  55.4563349 127.6610436  77.1845940
  56.9422993 128.1242569  90.1798378  56.6512859 129.0288200  90.0645044
  57.5779977 128.1659097  90.8942447  57.8679200 125.5019418  86.7699737
  58.4642772 125.2775440  86.0556700  57.9254171 124.7604163  87.3725185
  57.4404228 122.9558853  74.6049928  57.6929749 122.4340374  73.8433391
  56.5028787 122.7924999  74.7076612  62.4847511 121.9594632  82.4124672
  63.2710600 121.5414055  82.0615089  62.7486215 122.8640724  82.5806320
  62.6557588 127.3967482  77.1113328  62.0203421 127.4702108  77.8234233
  62.3254995 127.9861081  76.4332408  67.8855938 121.8969865  83.3157650
  68.6181110 121.3269082  83.5495480  67.1295294 121.5091465  83.7564156
  57.1600517 124.8586959  76.8074303  57.0436775 124.1831862  77.4755388
  57.2702777 124.3719333  75.9906456  59.5032058 124.3197106  80.5120992
  59.1390265 123.7927727  81.2233914  60.3599174 123.9295575  80.3387478
  59.1437545 119.3487006  75.5082341  59.3111947 120.2167242  75.8752812
  58.9534714 119.5114288  74.5843630  61.9012878 127.8103985  87.1748171
  61.6013601 128.7129024  87.0663979  61.5563938 127.5436168  88.0269324
  55.3525360 124.2617782  83.2084876  54.4275856 124.1293996  83.4162568
  55.6009773 125.0412001  83.7054818  65.3010022 120.3286525  84.8545609
  64.3926899 120.2601933  84.5604370  65.2497618 120.8058470  85.6827434
  59.1226766 121.8044663  76.4929008  59.0026391 122.2501714  77.3314488
  58.4279354 122.1529981  75.9342546  52.7134171 123.9051055  84.0428665
  52.8426552 124.1585534  84.9568077  52.0331622 124.4978763  83.7233320
  56.8833658 134.5748305  80.1419139  56.8057688 135.5256130  80.2207620
  56.2795301 134.2294178  80.7994065  59.3750888 121.7476171  92.7980506
  58.5984222 122.3070091  92.7883371  60.0141451 122.2332954  93.3195376
  64.8211832 122.2766137  77.3209342  65.7329688 122.5093523  77.1457039
  64.3121479 122.8603181  76.7584420  57.6297260 124.5561624  92.3598473
  58.3711944 125.0946668  92.0833297  56.9234245 125.1827913  92.5170025
  63.1052600 126.6990764  90.9570634  63.5135956 126.2573175  90.2125267
  62.3829861 126.1243392  91.2104827  59.4583670 121.6363371  88.3304191
  60.3044865 122.0602785  88.4738840  59.3982307 120.9796995  89.0242755
  63.4281414 127.2591955  84.7122923  62.7990277 127.4237669  84.0098991
  63.0407076 127.6733565  85.4833887  67.3070646 128.1946393  82.0667287
  66.6221684 128.5745294  81.5164320  67.3914495 128.8041720  82.7999235
  62.6083115 119.2967740  89.9885365  62.3644047 120.0509800  89.4519641
  62.8843046 119.6753087  90.8232612  64.5621578 125.8406352  88.6662631
  64.7738473 126.4838112  87.9897012  64.5151326 125.0068668  88.1984561
  62.1647807 118.4524173  85.5699203  61.3032286 118.7505426  85.8615940
  62.1910241 118.6694571  84.6380235  58.9809376 126.9966363  81.9773008
  59.4447722 127.2754066  81.1877631  58.7166174 126.0949808  81.7946099
  55.8733457 126.5437845  84.9152772  56.4434814 126.9725113  84.2770256
  56.4641569 126.2620429  85.6136957  57.9178262 123.1189515  78.7862574
  58.6202306 123.5710559  79.2536500  57.5858891 122.4773334  79.4142467
  56.3658624 121.7101272  93.1613783  55.7357284 122.3917553  93.3949180
  56.2594712 121.5984354  92.2166921  51.6603596 121.3773068  84.0879707
  50.8702650 121.6330597  83.6119818  52.1514844 122.1921406  84.1931748
  65.6767406 128.7178307  86.8384988  66.4984849 128.3158495  86.5567670
  65.6729809 128.6146541  87.7901104  53.6118342 121.7417647  81.0463184
  52.8149505 121.8536342  81.5646680  53.3843934 122.0804300  80.1804074
  59.4424009 128.2662351  88.9945698  59.5068442 128.7282758  89.8303870
  58.7334933 127.6359716  89.1228008  49.9441299 121.6303559  86.5194698
  50.1949338 122.5150569  86.7852274  50.4800848 121.4508160  85.7469790
  73.7673399 125.0617056  83.1869959  73.0137107 124.4924454  83.0313964
  73.9020940 125.0279720  84.1340594  59.1572027 129.9330458  78.8624679
  59.0217702 130.7781994  79.2909527  59.6981839 130.1349736  78.0990613
  55.6439366 116.0122038  95.5239034  55.2506312 115.4588237  96.1986678
  56.4605507 116.3232616  95.9145552  52.6101424 127.4505896  79.4352604
  53.1225945 128.2449146  79.5858169  53.2624137 126.7532187  79.3686205
  54.4196309 130.5671652  81.5175357  54.5962937 131.4889617  81.3296341
  55.2153142 130.2530072  81.9469737  58.5607327 117.4279917  93.1159291
  59.3017041 118.0287070  93.0363753  58.7925250 116.6857555  92.5577333
  53.7048665 122.6136284  91.3937520  53.5902181 121.7121542  91.6944619
  52.8493183 122.8599981  91.0422337  60.7840503 130.5554025  92.9925021
  60.3404357 129.7690403  92.6745925  61.4457717 130.7433175  92.3268912
  55.5427624 132.0849826  87.5185699  56.0935049 131.9566890  86.7462693
  54.7039100 132.3844715  87.1680592  62.8821741 130.8356825  91.0206422
  62.8640217 131.6565706  90.5286691  63.8041661 130.7110900  91.2456563
  59.3394795 128.3500954  91.8629931  59.8723132 127.5889242  91.6329238
  58.8108877 128.0574606  92.6054085  62.5064490 113.4561020  87.3923572
  62.1628760 114.3462662  87.3162683  62.8743453 113.2662678  86.5293157
  50.5750341 125.7794550  80.2112174  51.4125563 126.1891559  79.9945882
  50.7528609 124.8393993  80.1812368  62.4714773 123.4469631  75.8996007
  61.9561397 124.2174236  76.1384395  62.1992082 122.7734767  76.5229069
  60.0561884 118.2919332  80.9581246  59.2003480 117.9026182  80.7786884
  60.4688836 118.3711293  80.0981031  57.8303917 115.9104405  84.3638987
  58.6956913 115.7147214  84.0044877  57.8981426 115.6814757  85.2908344
  67.4449047 126.2001986  77.8349181  66.6678490 125.8613145  77.3904343
  68.1240528 126.2054609  77.1604146  62.2601076 121.3196723  77.7255789
  61.9551212 121.6342872  78.5765932  63.2131518 121.3978143  77.7683122
  60.7047508 127.4786947  79.3748743  60.1768870 126.7439706  79.0621980
  60.2035011 128.2561623  79.1288711  65.6840354 125.6735967  84.4915789
  65.0264029 126.3635228  84.5795917  66.4880753 126.0632399  84.8349775
  55.4366236 118.1406613  81.7355354  56.0109988 117.9181794  81.0028547
  56.0237218 118.2095307  82.4883955  64.4945813 124.0280340  82.5419731
  65.0077695 124.6610332  83.0441440  65.1447037 123.4281535  82.1763091
  55.7635823 120.1711074  75.7551239  54.9273135 120.5085760  76.0760514
  55.6240592 120.0360054  74.8178376  57.7388903 115.0147862  80.4630423
  57.0853316 114.6996879  79.8387038  57.6969378 114.3923602  81.1890246
  58.8500108 125.2967157  72.3783716  57.9427170 125.0656410  72.5774865
  59.3471140 124.5004776  72.5657697  61.7568187 134.0064664  75.2980402
  61.0829886 134.3096361  75.9065360  62.1434009 134.8093744  74.9485859
  60.9726644 121.5029795  84.7878071  60.0549205 121.7244742  84.6299759
  61.3886787 121.5776106  83.9289778  61.7561692 122.9021211  79.9180751
  62.5033511 123.4142608  79.6087873  62.0253281 122.5805264  80.7785145
  60.0288342 125.3979752  76.9007706  59.1199561 125.1138784  76.9980175
  60.0583426 125.8178830  76.0411013  65.2607609 129.0086341  80.6698873
  64.8069936 128.1677251  80.7264064  64.6301576 129.6447740  81.0073653
  64.2040529 119.9378327  81.8999541  63.4663286 119.4255713  82.2309783
  64.4567302 119.4978709  81.0882818  63.7040548 130.8462838  81.6048691
  63.9963523 131.4067895  80.8861057  64.2139169 131.1391399  82.3601850
  50.5976512 123.1185266  80.8822908  50.4000912 122.5254626  80.1573974
  50.0423176 122.8137476  81.5998847  58.5773236 123.0108372  83.0017501
  58.6321846 122.0582209  82.9259978  57.7664438 123.1667811  83.4858799
  59.7264430 126.9388495  74.2395784  59.2883859 126.2224354  73.7801422
  60.4674870 127.1664610  73.6780876  56.5165596 121.6285432  80.7607880
  55.7033461 121.9279603  81.1673072  57.0124590 121.2341121  81.4782362
  58.6674174 131.6243189  82.6942145  58.6250352 131.8504035  81.7650677
  59.5836872 131.3906564  82.8427946  62.1139807 122.0927256  89.5922774
  62.4689195 122.3198730  90.4517240  62.7611939 122.4245633  88.9700029
  67.8437544 125.2145692  80.2972103  67.7055443 125.4047288  79.3693292
  67.4873763 125.9765075  80.7540154  56.0079670 119.2003788  86.3769115
  56.6479050 119.0592547  85.6792078  55.1757201 118.9138301  86.0007717
  67.8706924 127.2822219  85.3083374  68.3043431 127.1897508  86.1566428
  68.5838505 127.2579720  84.6703390  56.7839974 128.5006218  82.4904107
  57.5780573 128.0056538  82.2886682  56.0731667 127.9724081  82.1271813
  61.6034819 130.8824313  86.8416475  61.6571841 131.4515250  87.6094191
  60.7349600 131.0526199  86.4770512  53.0922738 122.6449300  78.5663860
  52.1620326 122.5833755  78.7833822  53.1880210 122.1225252  77.7700501
  53.0108287 119.1704113  81.1542102  53.2715104 120.0849446  81.0451262
  53.8325459 118.7028555  81.3038714  54.4833212 120.5841870  88.3240926
  55.1556266 120.3759232  87.6753575  53.6562999 120.3863956  87.8846158
  68.7322473 127.3245920  87.8416260  68.9258364 128.2291731  88.0875535
  68.6323092 126.8653339  88.6754845  60.3858784 117.2103811  90.3406587
  59.7386699 117.9093760  90.2471063  61.1559800 117.6439955  90.7082835
  63.7937582 127.4752663  93.4157140  63.6423089 127.2463214  92.4987224
  63.7842262 128.4323264  93.4288485  60.5622919 125.0484576  88.4003407
  61.4914979 125.1995735  88.2272374  60.1413949 125.1368596  87.5452053
  59.3611250 129.0735240  86.1701944  59.2222336 128.7054024  87.0427882
  58.5725847 129.5882879  85.9985902  59.9559402 134.1744336  77.5127481
  60.1311158 133.7032380  78.3273104  59.2692190 134.8010103  77.7408742
  60.9116466 128.4516843  83.5590782  60.5766298 128.4117613  84.4548432
  60.4120411 127.7861559  83.0861192  54.8860709 123.8584473  89.0843363
  54.7480507 123.1264711  89.6854902  55.7965633 123.7693373  88.8027551
  63.8475657 125.7972877  73.8327842  63.2304828 125.0719705  73.7360895
  63.3792146 126.5582237  73.4894916  57.5143010 123.5704432  88.5727043
  58.2242629 122.9297624  88.5313661  57.4712318 123.8217327  89.4953224
  65.5029789 130.5071785  91.4933622  65.4442335 129.8231005  90.8264205
  65.9049307 131.2490775  91.0414248  56.2271944 120.5569650  90.3922682
  55.6909301 120.1060388  91.0444279  55.6388653 120.6915559  89.6493147
  54.5220488 137.3233699  84.2867341  54.7617086 137.9552223  84.9646360
  53.6789684 136.9721739  84.5732700  55.6374203 120.0158301  72.9549146
  54.7603669 119.8947102  72.5911393  56.1131956 119.2244380  72.7028035
  65.5047196 128.4711369  89.7247602  64.6173975 128.1337291  89.8474001
  66.0745747 127.7394400  89.9616367  47.1576343 124.8035461  83.0490653
  47.8447383 124.4897191  82.4611669  47.0024472 125.7076826  82.7757905
  51.9611065 119.6925658  87.4775677  51.8769254 119.0851327  86.7426087
  51.1393772 120.1834676  87.4785173  59.0348349 133.1312822  86.6908845
  58.9618521 133.9367793  87.2028150  58.5925743 133.3304787  85.8656866
  58.8238129 132.3684592  80.2011667  58.0405651 132.9106272  80.2949891
  59.5230874 132.8858571  80.6005908  62.1334779 118.1779221  82.8445872
  62.6303479 117.4249183  82.5246942  61.3621761 118.2143538  82.2789081
  69.9864537 123.8819587  84.4864164  69.9754413 124.7644302  84.1158097
  69.1181916 123.5291137  84.2918701  61.4947033 133.0299656  88.8467004
  62.2075005 133.6647120  88.7742905  61.0037062 133.1263522  88.0307006
  63.2164560 126.9350908  80.4184295  62.2820839 127.0552371  80.2489000
  63.3941228 126.0323375  80.1544305  58.7169748 120.3196604  82.5717557
  58.3467535 119.7667644  83.2598462  59.2128840 119.7154738  82.0192557
  66.6037111 122.7768228  80.9534330  67.0697563 123.6096219  80.8794632
  67.0544612 122.3113209  81.6579588  56.5458947 130.7794099  89.6672575
  57.2468406 131.4130582  89.8201969  56.0754062 131.1208831  88.9068214
  64.6713342 129.1212049  77.9520482  64.9473186 129.0068643  78.8614356
  63.8017841 128.7229534  77.9132655  64.3460233 123.3338707  87.4925125
  63.6931683 123.5814614  86.8377578  64.7240612 122.5202845  87.1587602
  61.3067406 133.3698400  81.5953295  61.4889801 132.5520056  82.0581048
  62.1300392 133.5866092  81.1578185  61.6409572 132.2966585  78.8568344
  62.1697338 131.7859039  78.2438506  61.9037791 131.9809115  79.7213877
  60.3947806 124.0758518  93.9791162  59.7188443 123.9752647  94.6493537
  61.2175439 123.9197731  94.4427159  52.1426665 130.3130454  86.6003677
  52.7280101 129.5674142  86.7331581  51.9451503 130.6234411  87.4840341
  54.9965320 133.3481702  81.6166120  54.3275695 133.8327829  81.1330160
  54.8578190 133.5950922  82.5309498  46.7344319 122.8836054  85.3208120
  46.7728419 122.3499645  86.1145238  46.2284612 122.3571260  84.7019098
  59.1370588 135.3825445  88.2148778  59.6888896 135.5457067  88.9797863
  59.4776782 135.9729883  87.5428803  54.1135082 117.7300595  88.8170663
  54.1776408 118.5915426  88.4048060  54.0502202 117.1174597  88.0843021
  53.5887354 119.8023727  92.4643697  54.2159393 119.4200805  93.0781221
  52.7315273 119.5837929  92.8299389  63.9881463 130.2086703  94.0697432
  64.5321367 130.8216661  93.5752387  63.4068308 130.7666281  94.5864445
  50.3652897 121.6100157  78.3962052  50.6606338 120.7010835  78.3429105
  49.4640933 121.5887896  78.0743054  62.2738976 133.3307421  85.2012460
  62.1490115 132.5297160  84.6923406  62.9318067 133.8253614  84.7126430
  53.8947144 119.6856153  84.3789600  53.1733730 120.2992121  84.2397074
  54.6840400 120.2213918  84.3006246  64.3373884 131.1316441  86.8292010
  63.3904220 131.0121792  86.7570337  64.6856657 130.2438939  86.9118272
  56.6973457 117.0210580  90.6530252  57.2207859 117.2672876  91.4156561
  56.4785791 117.8530614  90.2333389  52.0940738 119.2914254  78.5201377
  51.7653445 118.4111633  78.3376483  52.4480109 119.2361923  79.4077766
  61.3420317 130.9269157  83.0296362  61.1945280 129.9985864  83.2103932
  62.1673811 130.9489248  82.5453438  55.2082562 119.5787224  78.8876855
  55.5478634 120.1073145  78.1655463  55.6554682 119.9167630  79.6635421
  64.9454439 131.7497716  84.1161235  65.8700987 131.5440577  83.9785686
  64.7769743 131.5014117  85.0250577  57.9026002 117.9624275  88.3379923
  57.5622823 117.1632088  88.7400603  57.1965009 118.2625986  87.7656756
  58.5542474 115.0473587  86.7907246  59.3768544 114.5734065  86.6686136
  58.7980538 115.8264071  87.2905932  57.1950709 118.0761846  77.0870147
  57.9159071 118.4543098  76.5833864  56.5716013 118.7950722  77.1905125
  61.3381832 118.7806995  78.0228480  61.5545446 119.6631632  77.7217308
  60.8575899 118.3893208  77.2934122  56.0781053 121.7392708  84.5999224
  55.9325634 122.0533011  85.4923506  55.6006257 122.3577608  84.0470123
  57.9377436 118.7295256  84.6480114  57.9239005 117.8336349  84.3112412
  58.6549864 118.7365919  85.2818400  59.7903567 119.1632596  86.6933241
  59.5321344 120.0849667  86.6917572  59.2588607 118.7663030  87.3833705
  64.7349755 132.2683383  79.4723327  64.9086633 131.7029806  78.7197179
  65.2278647 133.0684278  79.2902817  50.5526715 124.2798052  87.5386885
  50.0080183 125.0557860  87.6707160  51.4306065 124.6268857  87.3806007
  57.3414332 117.6109636  79.9167684  57.4630243 116.6826282  80.1158571
  57.0516374 117.6248322  79.0045999  60.2105522 115.2964546  83.0534404
  60.2327219 115.3603880  82.0986383  60.6273581 114.4569055  83.2474910
  70.5889147 125.0319806  81.0913626  71.0320293 124.2827131  80.6932750
  69.7115657 125.0229942  80.7087358  65.7224928 131.5850147  76.5720225
  66.4175833 132.2056840  76.7907540  66.0648078 130.7345499  76.8472603
  51.3392737 123.4067948  90.4317042  50.5974473 123.5550584  91.0181673
  51.0185481 123.6676214  89.5683792  67.6216351 129.0349853  78.1007556
  68.1467675 129.3737126  77.3756876  67.5338704 128.0996868  77.9170690
  59.2836400 132.9483927  90.2297432  59.5923526 132.7033073  91.1020132
  60.0811882 133.1530565  89.7416303  59.3057012 135.1021836  82.4602809
  58.8662002 134.6098215  83.1535666  60.0565129 134.5594804  82.2194884
  51.7849351 131.2933377  82.4627437  52.6107371 130.9937149  82.0826080
  51.4343403 130.5241000  82.9117226  56.7530884 130.6459845  84.5325111
  56.1310893 129.9830550  84.2327338  57.4235751 130.6720977  83.8498758
  49.9857956 129.2119704  83.4216371  49.1489864 128.7841878  83.2400372
  49.9581601 129.4052147  84.3587162  56.8255411 119.1241633  94.1257617
  56.8743567 120.0003756  93.7435386  57.3677926 118.5819026  93.5529260
  67.3110257 129.6682757  93.4058754  66.5205801 129.6506895  92.8663253
  67.0743612 130.2071050  94.1607790  67.4308132 126.5175223  90.7191482
  67.4806137 126.3525230  91.6607005  67.3222055 125.6502482  90.3289363
  56.3144391 129.1963769  78.0083571  56.4632511 129.8799233  77.3550244
  57.1210834 129.1768859  78.5233027  64.7211895 122.5006151  92.0350789
  65.6221757 122.3612616  91.7434787  64.7959869 122.6660606  92.9748966
  59.0554700 119.8773006  90.8803975  58.1858009 120.1706572  90.6086564
  59.2914180 120.4613451  91.6011239  68.9326329 128.9372165  90.9633504
  68.6411137 129.3002145  91.7996965  68.3198460 128.2239173  90.7846836
  70.1322011 126.5025044  83.4836074  70.9668903 126.9414848  83.6473634
  70.2681140 126.0263698  82.6644320  67.1813517 124.0604779  89.4313562
  67.6567639 124.2532425  88.6232413  66.2579083 124.1163965  89.1856945
  54.0697024 125.2228946  79.0144640  53.8243066 124.3191276  79.2124850
  54.2392938 125.2246097  78.0724118  61.7593734 116.0952623  88.3969396
  62.2775678 116.8313650  88.0715884  61.4048866 116.4016616  89.2316155
  53.3392671 120.9557304  76.5130801  52.6461916 121.0301659  75.8570837
  53.0944423 120.1917648  77.0352318  59.8139796 131.6911899  75.4795319
  59.2413763 132.3102086  75.0265790  60.3872590 132.2411261  76.0135240
  65.8815186 120.9370539  87.6641867  66.8332609 121.0368637  87.6854091
  65.7118637 120.1448808  88.1739952  63.9029566 118.0226122  87.8501268
  63.3079498 118.3031135  87.1547757  63.6179262 118.5120023  88.6218009
  63.0337056 131.9749049  76.6103901  63.9667729 131.9094611  76.8136776
  62.9460269 132.8105316  76.1518433  65.6625073 131.2914920  73.5707848
  65.5838704 130.9574783  74.4643606  66.4834740 131.7836688  73.5699321
  68.3603264 124.1576659  86.7784167  68.3279584 123.2192660  86.9643851
  68.9703888 124.2360696  86.0449992  60.1986595 123.0272712  72.8211371
  61.1445700 122.8978920  72.8899789  59.8200840 122.2887374  73.2980799
  68.5097752 120.9487702  86.8242450  67.9936801 120.1646159  86.6372379
  69.3937701 120.6206419  86.9888970  74.1779814 125.2192666  85.9190204
  74.9083202 124.9577954  86.4797907  73.5686759 124.4821388  85.9592272
  72.2595111 123.3600528  86.5164655  71.5328275 123.2256493  85.9081147
  71.8442398 123.6677357  87.3221373  60.0825287 127.0790458  94.2812028
  61.0028297 127.2569057  94.4752075  60.0474870 126.1346503  94.1291727
  58.3829512 120.9522688  72.7566256  57.4760967 120.6555801  72.8328970
  58.6605493 120.6552506  71.8900542  49.3007452 122.2729052  83.2065303
  48.9810237 121.4194360  82.9139677  48.7540881 122.4877630  83.9623270
  53.0787360 124.9891493  86.9234809  53.2973370 125.9208601  86.9422843
  53.4913134 124.6299467  87.7089613  59.9991578 115.4959578  78.9110498
  59.1892306 115.1506663  79.2865744  60.6875995 115.1867122  79.4998109
  57.9515225 120.5624698  96.3137558  57.8511952 121.5119055  96.2449649
  57.7336767 120.2342937  95.4413628  57.1528297 117.8109624  72.8978235
  58.0147461 118.1364522  73.1574053  57.3378641 117.0241119  72.3851301
  49.1695712 125.8931963  85.1758424  48.4759184 125.4785916  84.6628379
  49.9168703 125.9352500  84.5791843  57.8146495 123.9921837  95.1302620
  57.3313577 124.7922197  95.3366509  57.9007434 124.0029782  94.1770064
  51.0832455 125.8250217  83.0524439  51.0603143 125.9237904  82.1006322
  51.3933091 126.6715368  83.3741605  53.7419833 127.8826372  87.1671054
  54.6963086 127.8510314  87.1000985  53.5432356 127.4216996  87.9821279
  54.3319215 126.4527488  89.7341851  55.1512104 126.9471567  89.7576688
  54.6056023 125.5359456  89.7059419  64.0885811 118.8438240  79.0969807
  63.2011666 119.1287891  78.8790001  64.5039800 118.6832004  78.2497084
  67.4400347 118.8684761  82.8124146  68.2160737 119.3581214  83.0848763
  66.7148481 119.2942816  83.2696015  69.8772906 119.5812381  83.8698087
  70.4717397 119.3408117  83.1591395  69.9499490 118.8619511  84.4971623
  52.0970062 133.4245991  84.1841251  51.9624530 132.6646392  83.6179249
  51.6802124 134.1486891  83.7170040  63.2329025 128.6082915  73.1917827
  63.9364875 128.8132918  73.8075482  62.5091673 129.1759677  73.4566910
  64.0626835 124.3592776  79.3120097  64.0062036 124.8161328  78.4727729
  64.6155177 123.5983461  79.1342940  67.8731641 120.1482508  80.1370216
  67.6168575 119.7479144  80.9678424  67.2484509 120.8626302  80.0120356
  55.2539187 134.3215309  84.3959694  55.1371572 135.2660741  84.2938384
  54.4331634 134.0188870  84.7845493  65.1415722 129.0465444  75.2416287
  65.9761326 128.6146643  75.0593762  64.9800065 128.8747458  76.1693181
  64.7961614 125.5497558  76.6072626  64.7410418 125.3841829  75.6661070
  64.1707669 126.2573590  76.7634816  49.5854129 120.7865622  90.4334048
  50.2312993 120.2764576  90.9221273  49.3771280 121.5234304  91.0077474
  62.1107521 127.8546469  95.9326189  62.9798681 128.0287122  95.5712824
  61.6314273 128.6740886  95.8101918  58.1057740 115.0505667  76.1857944
  58.0936409 115.9947506  76.3426215  58.9981162 114.8675812  75.8917406
  56.2793702 134.9743570  87.6115622  57.1820948 135.0067181  87.9282117
  56.0531072 134.0444021  87.6261958  58.0347304 133.7274557  84.2725701
  57.0842935 133.7276419  84.1590073  58.3379790 132.9807292  83.7561736
  53.9251620 117.9333239  94.5309062  54.7883082 117.5770044  94.7412387
  53.3517031 117.5947134  95.2184467  73.7699997 139.5635095  85.3371463
  74.4078407 139.4441843  84.6334804  73.6520840 140.5115939  85.3959416
  70.5789703 139.5162523  85.2732988  70.2408215 139.4003588  84.3853523
  71.4479472 139.1153689  85.2533994  66.4376519 141.3698000  81.2629879
  65.8741384 141.2787937  80.4946167  66.3228914 140.5497904  81.7432372
  71.0609486 140.6697375  91.2319194  71.0498127 140.2750173  90.3599697
  71.2230126 139.9363448  91.8252965  63.9840951 142.8649191  84.1014100
  64.7762243 142.5240016  83.6860399  64.2237601 142.9744167  85.0216253
  65.9431705 142.1258105  76.9731478  66.7162581 141.5787092  76.8344354
  66.2957104 142.9902354  77.1845940  68.7072954 140.8311335  86.7699737
  69.3036527 140.6067358  86.0556700  68.7647926 140.0896081  87.3725185
  68.2797983 138.2850771  74.6049928  68.5323503 137.7632292  73.8433391
  67.3422542 138.1216916  74.7076612  73.3241266 137.2886549  82.4124672
  74.1104355 136.8705972  82.0615089  73.5879970 138.1932641  82.5806320
  73.4951343 142.7259399  77.1113328  72.8597176 142.7994026  77.8234233
  73.1648749 143.3152998  76.4332408  78.7249693 137.2261782  83.3157650
  79.4574865 136.6560999  83.5495480  77.9689048 136.8383383  83.7564156
  67.9994272 140.1878877  76.8074303  67.8830530 139.5123780  77.4755388
  68.1096531 139.7011251  75.9906456  70.3425812 139.6489024  80.5120992
  69.9784020 139.1219645  81.2233914  71.1992928 139.2587493  80.3387478
  76.2475113 130.9383356  87.7752259  75.9158438 131.8078767  87.5513474
  75.6520726 130.6219640  88.4546289  69.9831299 134.6778924  75.5082341
  70.1505702 135.5459160  75.8752812  69.7928468 134.8406205  74.5843630
  72.7406633 143.1395902  87.1748171  72.4407356 144.0420941  87.0663979
  72.3957692 142.8728086  88.0269324  66.1919114 139.5909699  83.2084876
  65.2669611 139.4585913  83.4162568  66.4403527 140.3703919  83.7054818
  76.1403776 135.6578443  84.8545609  75.2320654 135.5893851  84.5604370
  76.0891372 136.1350388  85.6827434  69.9620520 137.1336581  76.4929008
  69.8420145 137.5793632  77.3314488  69.2673109 137.4821899  75.9342546
  63.5527925 139.2342973  84.0428665  63.6820306 139.4877452  84.9568077
  62.8725376 139.8270681  83.7233320  70.2144642 137.0768088  92.7980506
  69.4377976 137.6362008  92.7883371  70.8535205 137.5624871  93.3195376
  78.0065423 133.8594881  86.6323483  77.3639803 134.1527414  85.9863277
  77.5020351 133.7447801  87.4376679  75.6605586 137.6058054  77.3209342
  76.5723443 137.8385441  77.1457039  75.1515234 138.1895098  76.7584420
  68.4691014 139.8853542  92.3598473  69.2105699 140.4238586  92.0833297
  67.7628000 140.5119830  92.5170025  73.9446354 142.0282682  90.9570634
  74.3529710 141.5865093  90.2125267  73.2223616 141.4535310  91.2104827
  70.2977424 136.9655289  88.3304191  71.1438619 137.3894702  88.4738840
  70.2376062 136.3088913  89.0242755  74.2675169 142.5883873  84.7122923
  73.6384031 142.7529587  84.0098991  73.8800831 143.0025482  85.4833887
  78.1464401 143.5238311  82.0667287  77.4615439 143.9037212  81.5164320
  78.2308250 144.1333637  82.7999235  73.4476869 134.6259657  89.9885365
  73.2037801 135.3801718  89.4519641  73.7236800 135.0045005  90.8232612
  75.4015332 141.1698270  88.6662631  75.6132227 141.8130029  87.9897012
  75.3545081 140.3360586  88.1984561  73.0041561 133.7816090  85.5699203
  72.1426040 134.0797344  85.8615940  73.0303996 133.9986489  84.6380235
  69.8203131 142.3258281  81.9773008  70.2841476 142.6045984  81.1877631
  69.5559929 141.4241725  81.7946099  66.7127212 141.8729762  84.9152772
  67.2828569 142.3017031  84.2770256  67.3035324 141.5912347  85.6136957
  68.7572017 138.4481433  78.7862574  69.4596060 138.9002477  79.2536500
  68.4252645 137.8065252  79.4142467  67.2052378 137.0393190  93.1613783
  66.5751039 137.7209471  93.3949180  67.0988466 136.9276271  92.2166921
  62.4997351 136.7064986  84.0879707  61.7096405 136.9622514  83.6119818
  62.9908598 137.5213324  84.1931748  76.5161160 144.0470225  86.8384988
  77.3378604 143.6450412  86.5567670  76.5123563 143.9438459  87.7901104
  64.4512096 137.0709565  81.0463184  63.6543259 137.1828259  81.5646680
  64.2237688 137.4096217  80.1804074  70.2817764 143.5954268  88.9945698
  70.3462196 144.0574676  89.8303870  69.5728688 142.9651633  89.1228008
  60.7835054 136.9595476  86.5194698  61.0343092 137.8442486  86.7852274
  61.3194602 136.7800078  85.7469790  84.6067153 140.3908973  83.1869959
  83.8530862 139.8216372  83.0313964  84.7414694 140.3571638  84.1340594
  66.4833121 131.3413956  95.5239034  66.0900067 130.7880154  96.1986678
  67.2999261 131.6524534  95.9145552  69.4001082 132.7571835  93.1159291
  70.1410795 133.3578988  93.0363753  69.6319005 132.0149473  92.5577333
  64.5442420 137.9428202  91.3937520  64.4295935 137.0413459  91.6944619
  63.6886938 138.1891899  91.0422337  70.1788550 143.6792872  91.8629931
  70.7116887 142.9181160  91.6329238  69.6502631 143.3866524  92.6054085
  73.3458245 128.7852938  87.3923572  73.0022514 129.6754579  87.3162683
  73.7137207 128.5954595  86.5293157  61.4144095 141.1086468  80.2112174
  62.2519317 141.5183476  79.9945882  61.5922363 140.1685910  80.1812368
  73.3108528 138.7761549  75.8996007  72.7955151 139.5466153  76.1384395
  73.0385836 138.1026685  76.5229069  70.8955639 133.6211250  80.9581246
  70.0397235 133.2318100  80.7786884  71.3082590 133.7003210  80.0981031
  72.4254785 131.1557593  85.3572806  71.9219581 131.1187728  84.5440611
  72.7185392 132.0650336  85.4169462  68.6697671 131.2396323  84.3638987
  69.5350668 131.0439131  84.0044877  68.7375180 131.0106674  85.2908344
  78.2842802 141.5293903  77.8349181  77.5072244 141.1905063  77.3904343
  78.9634283 141.5346527  77.1604146  73.0994831 136.6488641  77.7255789
  72.7944966 136.9634790  78.5765932  74.0525273 136.7270061  77.7683122
  71.5441263 142.8078864  79.3748743  71.0162624 142.0731624  79.0621980
  71.0428765 143.5853541  79.1288711  76.5234109 141.0027885  84.4915789
  75.8657783 141.6927146  84.5795917  77.3274508 141.3924317  84.8349775
  66.2759990 133.4698530  81.7355354  66.8503742 133.2473712  81.0028547
  66.8630973 133.5387225  82.4883955  75.3339567 139.3572257  82.5419731
  75.8471449 139.9902249  83.0441440  75.9840791 138.7573453  82.1763091
  66.6029577 135.5002992  75.7551239  65.7666890 135.8377678  76.0760514
  66.4634347 135.3651971  74.8178376  68.5782658 130.3439779  80.4630423
  67.9247070 130.0288797  79.8387038  68.5363132 129.7215520  81.1890246
  69.6893863 140.6259074  72.3783716  68.7820925 140.3948328  72.5774865
  70.1864895 139.8296694  72.5657697  71.8120398 136.8321713  84.7878071
  70.8942960 137.0536660  84.6299759  72.2280542 136.9068023  83.9289778
  72.5955446 138.2313129  79.9180751  73.3427265 138.7434526  79.6087873
  72.8647036 137.9097181  80.7785145  70.8682096 140.7271669  76.9007706
  69.9593315 140.4430702  76.9980175  70.8977180 141.1470748  76.0411013
  76.1001364 144.3378259  80.6698873  75.6463691 143.4969169  80.7264064
  75.4695330 144.9739657  81.0073653  75.0434283 135.2670245  81.8999541
  74.3057040 134.7547631  82.2309783  75.2961057 134.8270626  81.0882818
  74.5434303 146.1754756  81.6048691  74.8357277 146.7359813  80.8861057
  75.0532923 146.4683317  82.3601850  61.4370267 138.4477183  80.8822908
  61.2394666 137.8546544  80.1573974  60.8816931 138.1429394  81.5998847
  69.4166990 138.3400290  83.0017501  69.4715600 137.3874126  82.9259978
  68.6058192 138.4959729  83.4858799  70.5658184 142.2680413  74.2395784
  70.1277614 141.5516272  73.7801422  71.3068625 142.4956528  73.6780876
  67.3559350 136.9577350  80.7607880  66.5427216 137.2571520  81.1673072
  67.8518344 136.5633038  81.4782362  72.9533562 137.4219174  89.5922774
  73.3082950 137.6490647  90.4517240  73.6005693 137.7537551  88.9700029
  78.6831299 140.5437610  80.2972103  78.5449197 140.7339206  79.3693292
  78.3267518 141.3056993  80.7540154  66.8473425 134.5295705  86.3769115
  67.4872804 134.3884464  85.6792078  66.0150955 134.2430219  86.0007717
  78.7100678 142.6114137  85.3083374  79.1437185 142.5189426  86.1566428
  79.4232259 142.5871638  84.6703390  67.6233729 143.8298136  82.4904107
  68.4174327 143.3348456  82.2886682  66.9125421 143.3015999  82.1271813
  63.9316492 137.9741217  78.5663860  63.0014080 137.9125673  78.7833822
  64.0273964 137.4517170  77.7700501  63.8502041 134.4996030  81.1542102
  64.1108859 135.4141363  81.0451262  64.6719214 134.0320473  81.3038714
  65.3226967 135.9133787  88.3240926  65.9950020 135.7051149  87.6753575
  64.4956753 135.7155873  87.8846158  79.5716228 142.6537838  87.8416260
  79.7652118 143.5583648  88.0875535  79.4716846 142.1945257  88.6754845
  71.2252539 132.5395728  90.3406587  70.5780454 133.2385678  90.2471063
  71.9953554 132.9731872  90.7082835  74.6331337 142.8044580  93.4157140
  74.4816843 142.5755132  92.4987224  74.6236016 143.7615182  93.4288485
  71.4016673 140.3776493  88.4003407  72.3308733 140.5287653  88.2272374
  70.9807703 140.4660514  87.5452053  71.7510220 143.7808760  83.5590782
  71.4160053 143.7409530  84.4548432  71.2514166 143.1153476  83.0861192
  65.7254464 139.1876390  89.0843363  65.5874262 138.4556629  89.6854902
  66.6359387 139.0985290  88.8027551  74.6869412 141.1264795  73.8327842
  74.0698582 140.4011623  73.7360895  74.2185900 141.8874155  73.4894916
  68.3536765 138.8996350  88.5727043  69.0636383 138.2589542  88.5313661
  68.3106073 139.1509244  89.4953224  76.3423543 145.8363703  91.4933622
  76.2836089 145.1522923  90.8264205  76.7443062 146.5782693  91.0414248
  67.0665699 135.8861568  90.3922682  66.5303056 135.4352306  91.0444279
  66.4782407 136.0207476  89.6493147  66.4767958 135.3450219  72.9549146
  65.5997424 135.2239020  72.5911393  66.9525711 134.5536297  72.7028035
  76.3440951 143.8003287  89.7247602  75.4567729 143.4629209  89.8474001
  76.9139502 143.0686318  89.9616367  62.8004820 135.0217575  87.4775677
  62.7163009 134.4143245  86.7426087  61.9787526 135.5126594  87.4785173
  72.9728534 133.5071139  82.8445872  73.4697233 132.7541101  82.5246942
  72.2015515 133.5435455  82.2789081  80.8258291 139.2111504  84.4864164
  80.8148167 140.0936220  84.1158097  79.9575671 138.8583055  84.2918701
  74.0558314 142.2642826  80.4184295  73.1214593 142.3844288  80.2489000
  74.2334983 141.3615293  80.1544305  69.5563502 135.6488522  82.5717557
  69.1861290 135.0959562  83.2598462  70.0522595 135.0446655  82.0192557
  77.4430866 138.1060145  80.9534330  77.9091318 138.9388137  80.8794632
  77.8938366 137.6405127  81.6579588  75.5107097 144.4503967  77.9520482
  75.7866941 144.3360561  78.8614356  74.6411596 144.0521451  77.9132655
  75.4147528 130.4740732  84.9925231  74.5010608 130.7044959  85.1607438
  75.8440630 130.5579176  85.8439263  75.1853987 138.6630624  87.4925125
  74.5325437 138.9106532  86.8377578  75.5634367 137.8494762  87.1587602
  71.2341560 139.4050435  93.9791162  70.5582197 139.3044565  94.6493537
  72.0569194 139.2489649  94.4427159  57.5738074 138.2127972  85.3208120
  57.6122173 137.6791563  86.1145238  57.0678367 137.6863178  84.7019098
  64.9528836 133.0592513  88.8170663  65.0170163 133.9207343  88.4048060
  64.8895956 132.4466514  88.0843021  64.4281109 135.1315645  92.4643697
  65.0553147 134.7492722  93.0781221  63.5709028 134.9129847  92.8299389
  74.8275217 145.5378620  94.0697432  75.3715121 146.1508579  93.5752387
  74.2462062 146.0958199  94.5864445  61.2046651 136.9392074  78.3962052
  61.5000092 136.0302753  78.3429105  60.3034687 136.9179814  78.0743054
  64.7340898 135.0148071  84.3789600  64.0127484 135.6284038  84.2397074
  65.5234154 135.5505836  84.3006246  75.1767639 146.4608358  86.8292010
  74.2297974 146.3413710  86.7570337  75.5250412 145.5730856  86.9118272
  67.5367212 132.3502497  90.6530252  68.0601614 132.5964794  91.4156561
  67.3179545 133.1822532  90.2333389  62.9334493 134.6206172  78.5201377
  62.6047199 133.7403551  78.3376483  63.2873864 134.5653841  79.4077766
  66.0476316 134.9079142  78.8876855  66.3872389 135.4365063  78.1655463
  66.4948437 135.2459548  79.6635421  75.7848194 147.0789633  84.1161235
  76.7094741 146.8732495  83.9785686  75.6163497 146.8306034  85.0250577
  68.7419757 133.2916192  88.3379923  68.4016577 132.4924005  88.7400603
  68.0358763 133.5917903  87.7656756  69.3936229 130.3765505  86.7907246
  70.2162298 129.9025983  86.6686136  69.6374292 131.1555989  87.2905932
  68.0344463 133.4053763  77.0870147  68.7552826 133.7835016  76.5833864
  67.4109767 134.1242640  77.1905125  72.1775586 134.1098912  78.0228480
  72.3939201 134.9923550  77.7217308  71.6969653 133.7185126  77.2934122
  66.9174808 137.0684625  84.5999224  66.7719388 137.3824928  85.4923506
  66.4400011 137.6869526  84.0470123  68.7771190 134.0587173  84.6480114
  68.7632759 133.1628267  84.3112412  69.4943619 134.0657837  85.2818400
  70.6297321 134.4924514  86.6933241  70.3715099 135.4141584  86.6917572
  70.0982362 134.0954948  87.3833705  61.3920470 139.6089970  87.5386885
  60.8473938 140.3849778  87.6707160  62.2699820 139.9560774  87.3806007
  68.1808086 132.9401554  79.9167684  68.3023998 132.0118200  80.1158571
  67.8910129 132.9540240  79.0045999  71.0499277 130.6256464  83.0534404
  71.0720974 130.6895797  82.0986383  71.4667336 129.7860973  83.2474910
  81.4282901 140.3611724  81.0913626  81.8714047 139.6119049  80.6932750
  80.5509411 140.3521860  80.7087358  76.5618682 146.9142065  76.5720225
  77.2569587 147.5348758  76.7907540  76.9041833 146.0637416  76.8472603
  62.1786492 138.7359866  90.4317042  61.4368228 138.8842501  91.0181673
  61.8579236 138.9968132  89.5683792  78.4610106 144.3641771  78.1007556
  78.9861430 144.7029043  77.3756876  78.3732458 143.4288786  77.9170690
  67.6649166 134.4533551  94.1257617  67.7137321 135.3295674  93.7435386
  68.2071680 133.9110944  93.5529260  78.1504012 144.9974674  93.4058754
  77.3599555 144.9798813  92.8663253  77.9137366 145.5362968  94.1607790
  78.2701887 141.8467141  90.7191482  78.3199892 141.6817148  91.6607005
  78.1615810 140.9794400  90.3289363  75.5605649 137.8298069  92.0350789
  76.4615512 137.6904534  91.7434787  75.6353624 137.9952524  92.9748966
  69.8948454 135.2064923  90.8803975  69.0251764 135.4998490  90.6086564
  70.1307935 135.7905368  91.6011239  79.7720083 144.2664082  90.9633504
  79.4804892 144.6294063  91.7996965  79.1592215 143.5531090  90.7846836
  80.9715766 141.8316962  83.4836074  81.8062657 142.2706766  83.6473634
  81.1074895 141.3555615  82.6644320  78.0207272 139.3896697  89.4313562
  78.4961393 139.5824343  88.6232413  77.0972837 139.4455883  89.1856945
  64.9090778 140.5520864  79.0144640  64.6636820 139.6483194  79.2124850
  65.0786693 140.5538014  78.0724118  72.5987488 131.4244540  88.3969396
  73.1169432 132.1605567  88.0715884  72.2442621 131.7308534  89.2316155
  64.1786426 136.2849222  76.5130801  63.4855671 136.3593577  75.8570837
  63.9338178 135.5209565  77.0352318  72.8500082 127.8444823  83.9170292
  73.1301836 127.1768012  84.5430719  73.6350689 128.0373919  83.4044956
  76.7208941 136.2662457  87.6641867  77.6726364 136.3660555  87.6854091
  76.5512391 135.4740725  88.1739952  74.7423320 133.3518040  87.8501268
  74.1473252 133.6323053  87.1547757  74.4573017 133.8411941  88.6218009
  76.5018827 146.6206837  73.5707848  76.4232459 146.2866701  74.4643606
  77.3228494 147.1128605  73.5699321  79.1997018 139.4868577  86.7784167
  79.1673339 138.5484577  86.9643851  79.8097642 139.5652613  86.0449992
  71.0380349 138.3564630  72.8211371  71.9839454 138.2270838  72.8899789
  70.6594594 137.6179291  73.2980799  79.3491507 136.2779620  86.8242450
  78.8330556 135.4938077  86.6372379  80.2331455 135.9498337  86.9888970
  77.0102234 130.0220636  82.7838263  76.8127055 129.7135724  83.6681595
  77.6201939 130.7482275  82.9136193  85.0173568 140.5484583  85.9190204
  85.7476957 140.2869872  86.4797907  84.4080514 139.8113305  85.9592272
  83.0988865 138.6892446  86.5164655  82.3722029 138.5548411  85.9081147
  82.6836152 138.9969275  87.3221373  70.9219042 142.4082376  94.2812028
  71.8422051 142.5860975  94.4752075  70.8868625 141.4638421  94.1291727
  69.2223266 136.2814606  72.7566256  68.3154722 135.9847719  72.8328970
  69.4999248 135.9844424  71.8900542  60.1401207 137.6020969  83.2065303
  59.8203991 136.7486278  82.9139677  59.5934635 137.8169548  83.9623270
  63.9181114 140.3183410  86.9234809  64.1367124 141.2500518  86.9422843
  64.3306888 139.9591385  87.7089613  70.8385332 130.8251496  78.9110498
  70.0286061 130.4798581  79.2865744  71.5269749 130.5159039  79.4998109
  72.7675881 129.9029542  80.5334794  73.3206919 130.3224996  81.1924817
  73.0045967 128.9765291  80.5757750  68.7908980 135.8916616  96.3137558
  68.6905707 136.8410973  96.2449649  68.5730522 135.5634855  95.4413628
  67.9922051 133.1401541  72.8978235  68.8541215 133.4656440  73.1574053
  68.1772395 132.3533037  72.3851301  60.0089467 141.2223881  85.1758424
  59.3152938 140.8077834  84.6628379  60.7562458 141.2644417  84.5791843
  76.1454688 132.0130068  80.0413458  75.5653357 132.6714872  79.6591511
  75.8790620 131.1907412  79.6300876  74.5958254 131.4135125  82.2434779
  75.0958032 131.5251660  81.4349098  75.2393862 131.1096178  82.8835587
  68.6540250 139.3213755  95.1302620  68.1707332 140.1214115  95.3366509
  68.7401189 139.3321700  94.1770064  61.9226209 141.1542135  83.0524439
  61.8996898 141.2529822  82.1006322  62.2326846 142.0007285  83.3741605
  65.1712969 141.7819406  89.7341851  65.9905858 142.2763484  89.7576688
  65.4449777 140.8651374  89.7059419  74.9279566 134.1730158  79.0969807
  74.0405421 134.4579809  78.8790001  75.3433555 134.0123921  78.2497084
  78.2794102 134.1976679  82.8124146  79.0554492 134.6873131  83.0848763
  77.5542236 134.6234733  83.2696015  80.7166660 134.9104298  83.8698087
  81.3111151 134.6700034  83.1591395  80.7893244 134.1911429  84.4971623
  74.0722779 143.9374833  73.1917827  74.7758629 144.1424835  73.8075482
  73.3485428 144.5051595  73.4566910  74.9020589 139.6884694  79.3120097
  74.8455791 140.1453245  78.4727729  75.4548932 138.9275379  79.1342940
  83.0237733 138.2170499  82.6441508  82.4637291 138.2863688  83.4173070
  82.4181236 138.0411484  81.9241004  75.9809476 144.3757362  75.2416287
  76.8155080 143.9438560  75.0593762  75.8193819 144.2039376  76.1693181
  75.6355369 140.8789475  76.6072626  75.5804172 140.7133747  75.6661070
  75.0101424 141.5865508  76.7634816  60.4247884 136.1157540  90.4334048
  61.0706747 135.6056494  90.9221273  60.2165035 136.8526221  91.0077474
  72.9501276 143.1838387  95.9326189  73.8192435 143.3579039  95.5712824
  72.4708027 144.0032804  95.8101918  68.9451494 130.3797584  76.1857944
  68.9330164 131.3239424  76.3426215  69.8374916 130.1967730  75.8917406
  72.7603614 126.9740361  80.4403881  71.9936009 126.4198848  80.5860564
  73.1714319 127.0462230  81.3018033  64.7645375 133.2625157  94.5309062
  65.6276836 132.9061962  94.7412387  64.1910785 132.9239051  95.2184467
  87.0868868 146.2675274  87.7752259  86.7552192 147.1370685  87.5513474
  86.4914481 145.9511558  88.4546289  88.8459177 149.1886799  86.6323483
  88.2033558 149.4819332  85.9863277  88.3414106 149.0739719  87.4376679
  83.8435316 149.1108008  85.5699203  82.9819795 149.4089261  85.8615940
  83.8697750 149.3278407  84.6380235  77.3226875 146.6705873  95.5239034
  76.9293821 146.1172072  96.1986678  78.1393016 146.9816452  95.9145552
  80.2394836 148.0863752  93.1159291  80.9804550 148.6870906  93.0363753
  80.4712759 147.3441390  92.5577333  84.1851999 144.1144855  87.3923572
  83.8416269 145.0046497  87.3162683  84.5530962 143.9246513  86.5293157
  81.7349393 148.9503167  80.9581246  80.8790989 148.5610018  80.7786884
  82.1476345 149.0295128  80.0981031  83.2648540 146.4849511  85.3572806
  82.7613335 146.4479646  84.5440611  83.5579147 147.3942253  85.4169462
  79.5091426 146.5688240  84.3638987  80.3744422 146.3731049  84.0044877
  79.5768935 146.3398592  85.2908344  79.4176412 145.6731697  80.4630423
  78.7640825 145.3580714  79.8387038  79.3756887 145.0507438  81.1890246
  85.8828038 150.5962163  81.8999541  85.1450794 150.0839549  82.2309783
  86.1354811 150.1562544  81.0882818  85.9839665 143.3738415  82.4941310
  86.2898542 142.5135778  82.2067225  86.7092270 143.9656035  82.2940304
  82.0646293 147.8687646  90.3406587  81.4174208 148.5677596  90.2471063
  82.8347309 148.3023790  90.7082835  83.8122288 148.8363056  82.8445872
  84.3090988 148.0833019  82.5246942  83.0409270 148.8727373  82.2789081
  86.2541283 145.8032650  84.9925231  85.3404363 146.0336877  85.1607438
  86.6834384 145.8871094  85.8439263  80.2329983 145.7057422  86.7907246
  81.0556053 145.2317901  86.6686136  80.4768047 146.4847906  87.2905932
  81.8893031 145.9548382  83.0534404  81.9114728 146.0187715  82.0986383
  82.3061090 145.1152890  83.2474910  83.4381243 146.7536458  88.3969396
  83.9563187 147.4897485  88.0715884  83.0836375 147.0600451  89.2316155
  83.6893837 143.1736741  83.9170292  83.9695591 142.5059930  84.5430719
  84.4744444 143.3665836  83.4044956  85.5817075 148.6809958  87.8501268
  84.9867007 148.9614971  87.1547757  85.2966771 149.1703859  88.6218009
  90.1885261 151.6071538  86.8242450  89.6724310 150.8229994  86.6372379
  91.0725210 151.2790254  86.9888970  87.8495988 145.3512553  82.7838263
  87.6520810 145.0427641  83.6681595  88.4595694 146.0774192  82.9136193
  81.6779087 146.1543413  78.9110498  80.8679815 145.8090498  79.2865744
  82.3663504 145.8450957  79.4998109  83.6069635 145.2321460  80.5334794
  84.1600674 145.6516914  81.1924817  83.8439721 144.3057208  80.5757750
  86.9848442 147.3421985  80.0413458  86.4047111 148.0006789  79.6591511
  86.7184375 146.5199330  79.6300876  85.4352008 146.7427043  82.2434779
  85.9351787 146.8543578  81.4349098  86.0787616 146.4388096  82.8835587
  85.7673320 149.5022076  79.0969807  84.8799175 149.7871726  78.8790001
  86.1827309 149.3415839  78.2497084  89.1187856 149.5268597  82.8124146
  89.8948246 150.0165049  83.0848763  88.3935990 149.9526651  83.2696015
  91.5560415 150.2396216  83.8698087  92.1504906 149.9991952  83.1591395
  91.6286999 149.5203346  84.4971623  89.5519150 150.8066344  80.1370216
  89.2956084 150.4062979  80.9678424  88.9272018 151.5210137  80.0120356
  79.7845249 145.7089502  76.1857944  79.7723918 146.6531342  76.3426215
  80.6768670 145.5259647  75.8917406  83.5997368 142.3032279  80.4403881
  82.8329764 141.7490765  80.5860564  84.0108073 142.3754147  81.3018033
   8.7337471  24.5945712  72.0616770   9.3715881  24.4752459  71.3580110
   8.6158314  25.5426556  72.1204722   5.5427178  24.5473140  71.9978295
   5.2045689  24.4314205  71.1098830   6.4116946  24.1464305  71.9779301
   1.4013993  26.4008616  67.9875186   0.8378859  26.3098553  67.2191474
   1.2866388  25.5808521  68.4677678   6.0246961  25.7007992  77.9564500
   6.0135601  25.3060790  77.0845004   6.1867600  24.9674064  78.5498272
   6.9813552  30.0679584  63.2989651   6.3301532  30.6533665  62.9123664
   7.7757915  30.5985779  63.3584688   0.9069179  27.1568721  63.6976785
   1.6800055  26.6097708  63.5589661   1.2594578  28.0212971  63.9091246
   2.7454222  28.4845104  76.9043684   2.4544088  29.3890734  76.7890351
   3.3811206  28.5261631  77.6187754   3.6710429  25.8621952  73.4945044
   4.2674001  25.6377974  72.7802007   3.7285400  25.1206698  74.0970492
   3.2435457  23.3161387  61.3295235   3.4960978  22.7942909  60.5678698
   2.3060016  23.1527533  61.4321919   8.2878740  22.3197166  69.1369978
   9.0741829  21.9016589  68.7860395   8.5517444  23.2243258  69.3051627
   8.4588817  27.7570016  63.8358635   7.8234650  27.8304643  64.5479540
   8.1286224  28.3463615  63.1577714  13.6887167  22.2572399  70.0402957
  14.4212339  21.6871616  70.2740786  12.9326523  21.8693999  70.4809462
   2.9631746  25.2189493  63.5319610   2.8468004  24.5434397  64.2000694
   3.0734006  24.7321867  62.7151763   5.3063287  24.6799640  67.2366299
   4.9421494  24.1530261  67.9479221   6.1630403  24.2898109  67.0632785
  11.2112587  15.9693973  74.4997565  10.8795912  16.8389384  74.2758780
  10.6158201  15.6530257  75.1791596   4.9468774  19.7089540  62.2327648
   5.1143176  20.5769777  62.5998119   4.7565943  19.8716822  61.3088937
   7.7044107  28.1706519  73.8993478   7.4044830  29.0731558  73.7909285
   7.3595166  27.9038702  74.7514631  11.1041251  20.6889059  71.5790915
  10.1958128  20.6204468  71.2849676  11.0528846  21.1661004  72.4072741
   4.9257995  22.1647198  63.2174314   4.8057620  22.6104248  64.0559795
   4.2310583  22.5132515  62.6587853   2.6864887  34.9350839  66.8664446
   2.6088916  35.8858664  66.9452926   2.0826530  34.5896712  67.5239372
   5.1782116  22.1078705  79.5225813   4.4015451  22.6672625  79.5128677
   5.8172680  22.5935488  80.0440683  12.9702897  18.8905498  73.3568789
  12.3277277  19.1838031  72.7108584  12.4657826  18.7758418  74.1621986
  10.6243061  22.6368671  64.0454649  11.5360917  22.8696058  63.8702346
  10.1152708  23.2205715  63.4829727   3.4328489  24.9164158  79.0843780
   4.1743173  25.4549202  78.8078603   2.7265474  25.5430447  79.2415331
   8.9083828  27.0593299  77.6815941   9.3167184  26.6175709  76.9370573
   8.1861090  26.4845926  77.9350134   5.2614898  21.9965905  75.0549498
   6.1076094  22.4205319  75.1984147   5.2013536  21.3399530  75.7488061
   9.2312643  27.6194489  71.4368230   8.6021506  27.7840203  70.7344298
   8.8438305  28.0336099  72.2079194  13.1101875  28.5548927  68.7912594
  12.4252913  28.9347828  68.2409627  13.1945724  29.1644254  69.5244541
   8.4114344  19.6570274  76.7130672   8.1675276  20.4112334  76.1764947
   8.6874274  20.0355621  77.5477919  10.3652807  26.2008886  75.3907937
  10.5769702  26.8440646  74.7142318  10.3182555  25.3671203  74.9229867
   7.9679036  18.8126707  72.2944509   7.1063515  19.1107960  72.5861247
   7.9941470  19.0297106  71.3625542   4.7840605  27.3568897  68.7018315
   5.2478950  27.6356600  67.9122938   4.5197403  26.4552342  68.5191406
   1.6764686  26.9040379  71.6398078   2.2466043  27.3327647  71.0015563
   2.2672798  26.6222964  72.3382264   3.7209491  23.4792050  65.5107880
   4.4233534  23.9313093  65.9781807   3.3890119  22.8375869  66.1387773
   2.1689853  22.0703806  79.8859090   1.5388513  22.7520087  80.1194486
   2.0625940  21.9586888  78.9412228  11.4798635  29.0780842  73.5630295
  12.3016078  28.6761029  73.2812976  11.4761037  28.9749076  74.5146410
   5.2455238  28.6264885  75.7191005   5.3099670  29.0885292  76.5549177
   4.5366162  27.9962250  75.8473315  19.5704628  25.4219590  69.9115266
  18.8168336  24.8526988  69.7559271  19.7052169  25.3882255  70.8585901
   4.9603256  30.2932992  65.5869985   4.8248930  31.1384528  66.0154833
   5.5013068  30.4952270  64.8235919   6.5871732  30.9156559  79.7170328
   6.1435586  30.1292937  79.3991232   7.2488946  31.1035709  79.0514218
   1.3458853  32.4452360  74.2431006   1.8966278  32.3169424  73.4708000
   0.5070329  32.7447249  73.8925899   8.6852970  31.1959359  77.7451729
   8.6671445  32.0168240  77.2531998   9.6072890  31.0713434  77.9701870
   5.1426024  28.7103488  78.5875237   5.6754361  27.9491776  78.3574545
   4.6140105  28.4177140  79.3299392   8.2746002  23.8072165  62.6241314
   7.7592625  24.5776770  62.8629701   8.0023310  23.1337301  63.2474375
   5.8593113  18.6521866  67.6826552   5.0034709  18.2628716  67.5032191
   6.2720065  18.7313827  66.8226338  13.2480276  26.5604520  64.5594487
  12.4709719  26.2215679  64.1149650  13.9271757  26.5657143  63.8849453
   8.0632305  21.6799257  64.4501095   7.7582441  21.9945407  65.3011238
   9.0162747  21.7580677  64.4928428   6.5078737  27.8389481  66.0994049
   5.9800099  27.1042240  65.7867287   6.0066240  28.6164157  65.8534018
  11.4871583  26.0338501  71.2161095  10.8295257  26.7237763  71.3041224
  12.2911982  26.4234933  71.5595082  10.2977042  24.3882874  69.2665037
  10.8108923  25.0212866  69.7686747  10.9478266  23.7884069  68.9008397
   1.5667052  20.5313608  62.4796546   0.7304364  20.8688295  62.8005821
   1.4271821  20.3962588  61.5423683   4.6531337  25.6569691  59.1029022
   3.7458399  25.4258944  59.3020171   5.1502369  24.8607310  59.2903004
   7.5599416  34.3667198  62.0225708   6.8861115  34.6698895  62.6310666
   7.9465238  35.1696279  61.6731165   6.7757873  21.8632329  71.5123378
   5.8580434  22.0847276  71.3545066   7.1918016  21.9378640  70.6535085
   7.5592920  23.2623745  66.6426058   8.3064739  23.7745142  66.3333180
   7.8284510  22.9407798  67.5030452   5.8319571  25.7582286  63.6253012
   4.9230790  25.4741319  63.7225482   5.8614654  26.1781364  62.7656319
  11.0638838  29.3688875  67.3944180  10.6101165  28.5279785  67.4509370
  10.4332805  30.0050274  67.7318960  10.0071758  20.2980861  68.6244847
   9.2694514  19.7858248  68.9555090  10.2598531  19.8581243  67.8128124
   9.5071777  31.2065372  68.3293998   9.7994752  31.7670429  67.6106364
  10.0170398  31.4993933  69.0847157   4.3804465  23.3710906  69.7262808
   4.4353074  22.4184743  69.6505284   3.5695667  23.5270346  70.2104106
   5.5295658  27.2991030  60.9641091   5.0915088  26.5826888  60.5046728
   6.2706099  27.5267144  60.4026182   2.3196825  21.9887966  67.4853187
   1.5064690  22.2882137  67.8918379   2.8155819  21.5943655  68.2027669
   4.4705402  31.9845723  69.4187451   4.4281581  32.2106569  68.4895983
   5.3868101  31.7509098  69.5673252   7.9171036  22.4529791  76.3168080
   8.2720424  22.6801264  77.1762546   8.5643167  22.7848167  75.6945336
  13.6468773  25.5748227  67.0217409  13.5086672  25.7649823  66.0938599
  13.2904992  26.3367609  67.4785461  13.6738153  27.6424754  72.0328681
  14.1074659  27.5500043  72.8811735  14.3869733  27.6182254  71.3948697
   2.5871203  28.8608752  69.2149414   3.3811802  28.3659072  69.0131989
   1.8762896  28.3326615  68.8517119   7.4066048  31.2426848  73.5661782
   7.4603070  31.8117784  74.3339497   6.5380829  31.4128733  73.2015819
  14.5353702  27.6848454  74.5661566  14.7289592  28.5894265  74.8120841
  14.4354320  27.2255873  75.4000151   6.1890013  17.5706345  77.0651894
   5.5417928  18.2696294  76.9716370   6.9591028  18.0042489  77.4328142
   9.5968811  27.8355197  80.1402447   9.4454317  27.6065749  79.2232531
   9.5873490  28.7925798  80.1533792   6.3654147  25.4087110  75.1248713
   7.2946207  25.5598269  74.9517681   5.9445177  25.4971131  74.2697360
   5.1642479  29.4337774  72.8947251   5.0253565  29.0656559  73.7673189
   4.3757075  29.9485414  72.7231209   5.7590631  34.5346871  64.2372788
   5.9342387  34.0634914  65.0518410   5.0723419  35.1612637  64.4654048
   6.7147694  28.8119377  70.2836089   6.3797527  28.7720147  71.1793739
   6.2151640  28.1464093  69.8106499   0.6891938  24.2187007  75.8088670
   0.5511736  23.4867246  76.4100209   1.5996862  24.1295907  75.5272858
   9.6506886  26.1575411  60.5573148   9.0336057  25.4322239  60.4606201
   9.1823374  26.9184771  60.2140223   3.3174239  23.9306966  75.2972350
   4.0273857  23.2900158  75.2558968   3.2743547  24.1819861  76.2198530
  11.3061018  30.8674320  78.2178929  11.2473564  30.1833540  77.5509512
  11.7080536  31.6093310  77.7659555   2.0303173  20.9172184  77.1167989
   1.4940530  20.4662923  77.7689585   1.4419881  21.0518093  76.3738453
  11.3078425  28.8313903  76.4492908  10.4205204  28.4939825  76.5719307
  11.8776976  28.0996935  76.6861674   4.8379578  33.4915356  73.4154152
   4.7649750  34.2970327  73.9273456   4.3956971  33.6907322  72.5902173
   4.6269358  32.7287126  66.9256973   3.8436880  33.2708806  67.0195198
   5.3262103  33.2461105  67.3251214   7.9366008  18.5381755  69.5691179
   8.4334708  17.7851718  69.2492249   7.1652990  18.5746072  69.0034388
  15.7895765  24.2422121  71.2109470  15.7785642  25.1246836  70.8403403
  14.9213145  23.8893672  71.0164007   7.2978262  33.3902190  75.5712310
   8.0106234  34.0249655  75.4988212   6.8068290  33.4866056  74.7552312
   9.0195789  27.2953443  67.1429602   8.0852067  27.4154905  66.9734306
   9.1972457  26.3925909  66.8789612   4.5200977  20.6799138  69.2962863
   4.1498764  20.1270179  69.9843769   5.0160069  20.0757272  68.7437863
  12.4068340  23.1370762  67.6779636  12.8728792  23.9698753  67.6039939
  12.8575841  22.6715743  68.3824895   2.3490175  31.1396633  76.3917881
   3.0499635  31.7733116  76.5447275   1.8785290  31.4811365  75.6313520
  10.4744571  29.4814583  64.6765788  10.7504415  29.3671178  65.5859662
   9.6049070  29.0832068  64.6377961  10.3785003  15.5051349  71.7170538
   9.4648083  15.7355576  71.8852744  10.8078104  15.5889793  72.5684570
  10.1491461  23.6941241  74.2170432   9.4962912  23.9417148  73.5622884
  10.5271841  22.8805379  73.8832909   7.1098635  33.7300934  68.3198602
   7.2921030  32.9122590  68.7826354   7.9331621  33.9468626  67.8823492
   7.4440801  32.6569119  65.5813650   7.9728567  32.1461574  64.9683812
   7.7069020  32.3411649  66.4459183   6.1979034  24.4361052  80.7036469
   5.5219671  24.3355181  81.3738844   7.0206668  24.2800266  81.1672466
   4.9401817  35.7427979  74.9394085   5.4920125  35.9059601  75.7043170
   5.2808011  36.3332417  74.2674109   9.7912692  30.5689237  80.7942739
  10.3352596  31.1819195  80.2997694   9.2099536  31.1268815  81.3109752
   8.0770204  33.6909955  71.9257767   7.9521344  32.8899695  71.4168712
   8.7349296  34.1856148  71.4371737  10.1405113  31.4918975  73.5537317
   9.1935448  31.3724326  73.4815644  10.4887886  30.6041473  73.6363578
   7.1451546  31.2871691  69.7541669   6.9976509  30.3588399  69.9349239
   7.9705040  31.3091782  69.2698744  10.7485668  32.1100250  70.8406542
  11.6732215  31.9043111  70.7030993  10.5800971  31.8616651  71.7495883
   7.1413060  19.1409529  64.7473786   7.3576675  20.0234167  64.4462614
   6.6607128  18.7495742  64.0179428   1.8812282  22.0995242  71.3244531
   1.7356863  22.4135545  72.2168812   1.4037485  22.7180142  70.7715430
   5.5934795  19.5235130  73.4178548   5.3352573  20.4452201  73.4162878
   5.0619836  19.1265565  74.1079012  10.5380984  32.6285917  66.1968633
  10.7117862  32.0632340  65.4442486  11.0309875  33.4286812  66.0148123
  16.3920375  25.3922340  67.8158933  16.8351521  24.6429665  67.4178056
  15.5146886  25.3832477  67.4332665  11.5256157  31.9452682  63.2965532
  12.2207061  32.5659374  63.5152846  11.8679307  31.0948033  63.5717909
  13.4247580  29.3952387  64.8252862  13.9498904  29.7339660  64.1002182
  13.3369932  28.4599403  64.6415997   5.0867629  33.3086461  76.9542739
   5.3954755  33.0635608  77.8265439   5.8843111  33.5133099  76.4661609
   5.1088241  35.4624370  69.1848116   4.6693231  34.9700749  69.8780972
   5.8596358  34.9197338  68.9440191   2.5562113  31.0062380  71.2570417
   1.9342122  30.3433085  70.9572645   3.2266980  31.0323511  70.5744065
  13.1141486  30.0285291  80.1304060  12.3237030  30.0109430  79.5908560
  12.8774840  30.5673585  80.8853097  13.2339361  26.8777757  77.4436789
  13.2837366  26.7127765  78.3852312  13.1253284  26.0105016  77.0534670
   2.1175620  29.5566303  64.7328878   2.2663740  30.2401767  64.0795550
   2.9242063  29.5371393  65.2478333  10.5243123  22.8608685  78.7596096
  11.4252986  22.7215150  78.4680093  10.5991098  23.0263140  79.6994273
   4.8585929  20.2375540  77.6049282   3.9889238  20.5309106  77.3331870
   5.0945409  20.8215985  78.3256545  14.7357558  29.2974699  77.6878810
  14.4442366  29.6604679  78.5242271  14.1229689  28.5841707  77.5092142
  15.9353240  26.8627579  70.2081381  16.7700131  27.3017383  70.3718941
  16.0712369  26.3866232  69.3889626  12.9844746  24.4207313  76.1558868
  13.4598868  24.6134960  75.3477720  12.0610311  24.4766499  75.9102252
   7.5624963  16.4555157  75.1214702   8.0806906  17.1916184  74.7961191
   7.2080095  16.7619150  75.9561461   5.6171025  32.0514433  62.2040625
   5.0444992  32.6704620  61.7511097   6.1903819  32.6013795  62.7380547
  11.6846415  21.2973073  74.3887174  12.6363838  21.3971171  74.4099398
  11.5149865  20.5051342  74.8985258   9.7060794  18.3828657  74.5746575
   9.1110727  18.6633669  73.8793064   9.4210491  18.8722558  75.3463316
   8.8368285  32.3351583  63.3349207   9.7698958  32.2697145  63.5382083
   8.7491498  33.1707850  62.8763740  11.4656302  31.6517454  60.2953155
  11.3869933  31.3177317  61.1888913  12.2865968  32.1439222  60.2944627
  14.1634493  24.5179193  73.5029474  14.1310813  23.5795194  73.6889157
  14.7735116  24.5963230  72.7695298   6.0017824  23.3875246  59.5456678
   6.9476928  23.2581454  59.6145096   5.6232069  22.6489908  60.0226106
  14.3128981  21.3090237  73.5487757  13.7968030  20.5248693  73.3617686
  15.1968930  20.9808953  73.7134276  11.9739708  15.0531252  69.5083569
  11.7764529  14.7446340  70.3926901  12.5839414  15.7792891  69.6381499
  19.9811043  25.5795200  72.6435510  20.7114431  25.3180488  73.2043214
  19.3717988  24.8423922  72.6837578  18.0626340  23.7203063  73.2409962
  17.3359503  23.5859028  72.6326453  17.6473627  24.0279891  74.0466680
   5.8856516  27.4392992  81.0057335   6.8059526  27.6171591  81.1997381
   5.8506099  26.4949038  80.8537034   4.1860741  21.3125223  59.4811563
   3.2792196  21.0158335  59.5574276   4.4636722  21.0155041  58.6145849
   3.7546454  20.9227233  83.0382865   3.6543181  21.8721590  82.9694956
   3.5367996  20.5945472  82.1658935  11.1092162  17.0440684  66.7658765
  10.5290831  17.7025488  66.3836817  10.8428095  16.2218029  66.3546183
   9.5595728  16.4445742  68.9680085  10.0595507  16.5562276  68.1594404
  10.2031336  16.1406795  69.6080894   3.6177724  24.3524372  81.8547926
   3.1344806  25.1524732  82.0611815   3.7038663  24.3632316  80.9015370
   9.8917040  19.2040775  65.8215113   9.0042895  19.4890425  65.6035308
  10.3071029  19.0434538  64.9742390  13.2431576  19.2287296  69.5369453
  14.0191966  19.7183748  69.8094069  12.5179710  19.6545350  69.9941322
  15.6804135  19.9414915  70.5943393  16.2748626  19.7010651  69.8836701
  15.7530718  19.2222045  71.2216929   9.0360253  28.9685449  59.9163133
   9.7396104  29.1735452  60.5320789   8.3122902  29.5362211  60.1812217
   9.8658064  24.7195311  66.0365403   9.8093265  25.1763862  65.1973036
  10.4186406  23.9585995  65.8588246  13.6762870  20.5085042  66.8615523
  13.4199804  20.1081678  67.6923731  13.0515738  21.2228836  66.7365662
  17.9875207  23.2481116  69.3686814  17.4274765  23.3174305  70.1418376
  17.3818711  23.0722100  68.6486311  10.9446951  29.4067978  61.9661593
  11.7792555  28.9749177  61.7839068  10.7831294  29.2349992  62.8938488
  10.5992843  25.9100092  63.3317933  10.5441647  25.7444363  62.3906377
   9.9738898  26.6176125  63.4880122   7.9138750  28.2149004  82.6571495
   8.7829910  28.3889656  82.2958130   7.4345502  29.0343420  82.5347225
   2.0824930  35.3346105  74.3360929   2.9852177  35.3669715  74.6527424
   1.8562300  34.4046556  74.3507265   3.8378532  34.0877091  70.9971008
   2.8874163  34.0878953  70.8835380   4.1411019  33.3409826  70.4807042
  19.5731226  39.9237630  72.0616770  20.2109636  39.8044377  71.3580110
  19.4552069  40.8718474  72.1204722  16.3820932  39.8765058  71.9978295
  16.0439444  39.7606122  71.1098830  17.2510700  39.4756223  71.9779301
  12.2407748  41.7300534  67.9875186  11.6772613  41.6390471  67.2191474
  12.1260143  40.9100439  68.4677678  16.8640715  41.0299909  77.9564500
  16.8529356  40.6352708  77.0845004  17.0261355  40.2965982  78.5498272
   9.7872180  43.2251726  70.8259406  10.5793472  42.8842550  70.4105706
  10.0268830  43.3346701  71.7461560  17.8207307  45.3971502  63.2989651
  17.1695286  45.9825582  62.9123664  18.6151669  45.9277697  63.3584688
  11.7462934  42.4860639  63.6976785  12.5193810  41.9389626  63.5589661
  12.0988333  43.3504888  63.9091246  13.5847976  43.8137021  76.9043684
  13.2937842  44.7182652  76.7890351  14.2204961  43.8553549  77.6187754
  14.5104183  41.1913870  73.4945044  15.1067755  40.9669892  72.7802007
  14.5679155  40.4498615  74.0970492  14.0829212  38.6453305  61.3295235
  14.3354732  38.1234826  60.5678698  13.1453771  38.4819450  61.4321919
  19.1272494  37.6489083  69.1369978  19.9135584  37.2308507  68.7860395
  19.3911199  38.5535176  69.3051627  19.2982572  43.0861934  63.8358635
  18.6628405  43.1596560  64.5479540  18.9679978  43.6755533  63.1577714
  24.5280922  37.5864317  70.0402957  25.2606093  37.0163533  70.2740786
  23.7720277  37.1985917  70.4809462  13.8025500  40.5481411  63.5319610
  13.6861758  39.8726314  64.2000694  13.9127760  40.0613785  62.7151763
  16.1457041  40.0091558  67.2366299  15.7815248  39.4822179  67.9479221
  17.0024157  39.6190027  67.0632785  22.0506342  31.2985891  74.4997565
  21.7189667  32.1681302  74.2758780  21.4551955  30.9822175  75.1791596
  15.7862528  35.0381458  62.2327648  15.9536931  35.9061694  62.5998119
  15.5959697  35.2008739  61.3088937  18.5437861  43.4998437  73.8993478
  18.2438584  44.4023476  73.7909285  18.1988921  43.2330620  74.7514631
  11.9950343  39.9512234  69.9330182  11.0700839  39.8188448  70.1407874
  12.2434756  40.7306453  70.4300125  21.9435005  36.0180977  71.5790915
  21.0351883  35.9496385  71.2849676  21.8922601  36.4952922  72.4072741
  15.7651749  37.4939115  63.2174314  15.6451374  37.9396166  64.0559795
  15.0704337  37.8424433  62.6587853   9.3559154  39.5945507  70.7673972
   9.4851535  39.8479986  71.6813383   8.6756605  40.1873215  70.4478627
  13.5258641  50.2642757  66.8664446  13.4482671  51.2150582  66.9452926
  12.9220285  49.9188630  67.5239372  16.0175871  37.4370622  79.5225813
  15.2409205  37.9964543  79.5128677  16.6566434  37.9227405  80.0440683
  23.8096652  34.2197415  73.3568789  23.1671032  34.5129948  72.7108584
  23.3051580  34.1050336  74.1621986  21.4636815  37.9660588  64.0454649
  22.3754671  38.1987975  63.8702346  20.9546462  38.5497633  63.4829727
  14.2722243  40.2456076  79.0843780  15.0136928  40.7841120  78.8078603
  13.5659229  40.8722365  79.2415331  19.7477583  42.3885216  77.6815941
  20.1560939  41.9467627  76.9370573  19.0254844  41.8137844  77.9350134
  16.1008653  37.3257823  75.0549498  16.9469848  37.7497237  75.1984147
  16.0407291  36.6691447  75.7488061  20.0706398  42.9486407  71.4368230
  19.4415260  43.1132121  70.7344298  19.6832060  43.3628016  72.2079194
  23.9495629  43.8840845  68.7912594  23.2646668  44.2639746  68.2409627
  24.0339479  44.4936171  69.5244541  19.2508098  34.9862191  76.7130672
  19.0069030  35.7404252  76.1764947  19.5268029  35.3647539  77.5477919
  21.2046561  41.5300804  75.3907937  21.4163456  42.1732564  74.7142318
  21.1576309  40.6963120  74.9229867  18.8072790  34.1418624  72.2944509
  17.9457269  34.4399878  72.5861247  18.8335225  34.3589023  71.3625542
  15.6234359  42.6860815  68.7018315  16.0872705  42.9648518  67.9122938
  15.3591158  41.7844260  68.5191406  12.5158440  42.2332297  71.6398078
  13.0859798  42.6619565  71.0015563  13.1066552  41.9514881  72.3382264
  14.5603245  38.8083967  65.5107880  15.2627289  39.2605011  65.9781807
  14.2283874  38.1667786  66.1387773  13.0083607  37.3995724  79.8859090
  12.3782268  38.0812005  80.1194486  12.9019695  37.2878806  78.9412228
   8.3028579  37.0667520  70.8125014   7.5127633  37.3225049  70.3365124
   8.7939827  37.8815858  70.9177054  22.3192389  44.4072759  73.5630295
  23.1409833  44.0052946  73.2812976  22.3154792  44.3040993  74.5146410
  10.2543325  37.4312099  67.7708490   9.4574488  37.5430794  68.2891986
  10.0268917  37.7698752  66.9049381  16.0848992  43.9556803  75.7191005
  16.1493425  44.4177210  76.5549177  15.3759916  43.3254167  75.8473315
   6.5866282  37.3198010  73.2440005   6.8374321  38.2045020  73.5097581
   7.1225831  37.1402612  72.4715096  30.4098382  40.7511508  69.9115266
  29.6562090  40.1818906  69.7559271  30.5445923  40.7174172  70.8585901
  15.7997010  45.6224910  65.5869985  15.6642685  46.4676446  66.0154833
  16.3406823  45.8244188  64.8235919  12.2864350  31.7016490  82.2484341
  11.8931295  31.1482688  82.9231985  13.1030490  32.0127068  82.6390858
   9.2526408  43.1400348  66.1597911   9.7650928  43.9343598  66.3103475
   9.9049120  42.4426638  66.0931512  11.0621292  46.2566104  68.2420664
  11.2387921  47.1784069  68.0541648  11.8578126  45.9424524  68.6715043
  15.2032311  33.1174369  79.8404597  15.9442024  33.7181522  79.7609060
  15.4350234  32.3752007  79.2822640  10.3473649  38.3030736  78.1182827
  10.2327164  37.4015993  78.4189926   9.4918166  38.5494433  77.7667643
  17.4265486  46.2448477  79.7170328  16.9829341  45.4584855  79.3991232
  18.0882700  46.4327627  79.0514218  12.1852608  47.7744278  74.2431006
  12.7360033  47.6461341  73.4708000  11.3464084  48.0739167  73.8925899
  19.5246725  46.5251276  77.7451729  19.5065200  47.3460157  77.2531998
  20.4466645  46.4005352  77.9701870  15.9819779  44.0395406  78.5875237
  16.5148116  43.2783694  78.3574545  15.4533860  43.7469058  79.3299392
  19.1489474  29.1455472  74.1168879  18.8053743  30.0357114  74.0407989
  19.5168436  28.9557130  73.2538464   7.2175324  41.4689002  66.9357481
   8.0550546  41.8786011  66.7191189   7.3953592  40.5288445  66.9057675
  19.1139756  39.1364083  62.6241314  18.5986380  39.9068688  62.8629701
  18.8417065  38.4629219  63.2474375  16.6986867  33.9813784  67.6826552
  15.8428464  33.5920634  67.5032191  17.1113819  34.0605745  66.8226338
  18.2286014  31.5160127  72.0818112  17.7250810  31.4790262  71.2685917
  18.5216621  32.4252870  72.1414769  14.4728900  31.5998857  71.0884294
  15.3381897  31.4041665  70.7290183  14.5406409  31.3709209  72.0153651
  24.0874031  41.8896438  64.5594487  23.3103473  41.5507597  64.1149650
  24.7665512  41.8949061  63.8849453  18.9026060  37.0091175  64.4501095
  18.5976195  37.3237324  65.3011238  19.8556502  37.0872595  64.4928428
  17.3472491  43.1681398  66.0994049  16.8193853  42.4334158  65.7867287
  16.8459994  43.9456075  65.8534018  22.3265337  41.3630419  71.2161095
  21.6689012  42.0529680  71.3041224  23.1305737  41.7526851  71.5595082
  12.0791219  33.8301065  68.4600661  12.6534971  33.6076246  67.7273854
  12.6662201  33.8989759  69.2129262  21.1370796  39.7174792  69.2665037
  21.6502678  40.3504783  69.7686747  21.7872020  39.1175987  68.9008397
  12.4060806  35.8605526  62.4796546  11.5698118  36.1980212  62.8005821
  12.2665576  35.7254506  61.5423683  14.3813887  30.7042314  67.1875730
  13.7278299  30.3891331  66.5632345  14.3394361  30.0818054  67.9135553
  15.4925092  40.9861609  59.1029022  14.5852153  40.7550862  59.3020171
  15.9896124  40.1899228  59.2903004  18.3993170  49.6959116  62.0225708
  17.7254869  49.9990813  62.6310666  18.7858992  50.4988196  61.6731165
  17.6151627  37.1924247  71.5123378  16.6974188  37.4139194  71.3545066
  18.0311771  37.2670558  70.6535085  18.3986675  38.5915663  66.6426058
  19.1458494  39.1037060  66.3333180  18.6678264  38.2699716  67.5030452
  16.6713325  41.0874204  63.6253012  15.7624544  40.8033236  63.7225482
  16.7008409  41.5073282  62.7656319  21.9032592  44.6980793  67.3944180
  21.4494920  43.8571703  67.4509370  21.2726559  45.3342191  67.7318960
  20.8465512  35.6272779  68.6244847  20.1088269  35.1150165  68.9555090
  21.0992286  35.1873161  67.8128124  20.3465532  46.5357290  68.3293998
  20.6388506  47.0962347  67.6106364  20.8564152  46.8285851  69.0847157
  20.9477139  28.4049031  69.2186617  21.2536016  27.5446394  68.9312532
  21.6729744  28.9966651  69.0185610   7.2401495  38.8079718  67.6068215
   7.0425895  38.2149078  66.8819281   6.6848159  38.5031928  68.3244153
  15.2198219  38.7002824  69.7262808  15.2746829  37.7476661  69.6505284
  14.4089421  38.8562263  70.2104106  16.3689413  42.6282947  60.9641091
  15.9308843  41.9118806  60.5046728  17.1099854  42.8559062  60.4026182
  13.1590579  37.3179884  67.4853187  12.3458445  37.6174054  67.8918379
  13.6549573  36.9235573  68.2027669  15.3099157  47.3137641  69.4187451
  15.2675336  47.5398487  68.4895983  16.2261856  47.0801015  69.5673252
  18.7564791  37.7821708  76.3168080  19.1114178  38.0093181  77.1762546
  19.4036922  38.1140085  75.6945336  24.4862528  40.9040144  67.0217409
  24.3480426  41.0941740  66.0938599  24.1298746  41.6659527  67.4785461
  12.6504654  34.8898239  73.1014421  13.2904033  34.7486999  72.4037385
  11.8182184  34.6032753  72.7253023  24.5131907  42.9716671  72.0328681
  24.9468414  42.8791960  72.8811735  25.2263488  42.9474172  71.3948697
  13.4264958  44.1900670  69.2149414  14.2205556  43.6950990  69.0131989
  12.7156650  43.6618533  68.8517119  18.2459802  46.5718765  73.5661782
  18.2996824  47.1409702  74.3339497  17.3774583  46.7420650  73.2015819
   9.7347721  38.3343752  65.2909167   8.8045309  38.2728207  65.5079129
   9.8305193  37.8119704  64.4945808   9.6533270  34.8598564  67.8787408
   9.9140087  35.7743898  67.7696569  10.4750443  34.3923007  68.0284021
  11.1258196  36.2736322  75.0486233  11.7981249  36.0653684  74.3998882
  10.2987982  36.0758408  74.6091465  25.3747457  43.0140372  74.5661566
  25.5683347  43.9186182  74.8120841  25.2748075  42.5547791  75.4000151
  17.0283768  32.8998262  77.0651894  16.3811683  33.5988212  76.9716370
  17.7984783  33.3334406  77.4328142  20.4362565  43.1647115  80.1402447
  20.2848072  42.9357666  79.2232531  20.4267245  44.1217716  80.1533792
  17.2047902  40.7379027  75.1248713  18.1339962  40.8890187  74.9517681
  16.7838932  40.8263048  74.2697360  16.0036234  44.7629692  72.8947251
  15.8647319  44.3948476  73.7673189  15.2150830  45.2777331  72.7231209
  16.5984386  49.8638788  64.2372788  16.7736141  49.3926831  65.0518410
  15.9117174  50.4904554  64.4654048  17.5541449  44.1411295  70.2836089
  17.2191281  44.1012064  71.1793739  17.0545394  43.4756010  69.8106499
  11.5285693  39.5478925  75.8088670  11.3905491  38.8159163  76.4100209
  12.4390616  39.4587825  75.5272858  20.4900640  41.4867329  60.5573148
  19.8729811  40.7614157  60.4606201  20.0217129  42.2476689  60.2140223
  14.1567993  39.2598884  75.2972350  14.8667612  38.6192076  75.2558968
  14.1137302  39.5111779  76.2198530  22.1454772  46.1966237  78.2178929
  22.0867318  45.5125457  77.5509512  22.5474290  46.9385227  77.7659555
  12.8696927  36.2464102  77.1167989  12.3334284  35.7954840  77.7689585
  12.2813636  36.3810011  76.3738453  11.1645471  53.0128151  71.0112648
  11.4042069  53.6446675  71.6891666  10.3214667  52.6616191  71.2978007
  12.2799186  35.7052753  59.6794453  11.4028653  35.5841554  59.3156699
  12.7556939  34.9138831  59.4273341  22.1472179  44.1605821  76.4492908
  21.2598958  43.8231743  76.5719307  22.7170730  43.4288852  76.6861674
   3.8001326  40.4929913  69.7735960   4.4872366  40.1791643  69.1856975
   3.6449455  41.3971278  69.5003211   8.6036049  35.3820109  74.2020984
   8.5194237  34.7745779  73.4671394   7.7818755  35.8729128  74.2030480
  15.6773333  48.8207273  73.4154152  15.6043504  49.6262245  73.9273456
  15.2350726  49.0199239  72.5902173  15.4663112  48.0579044  66.9256973
  14.6830634  48.6000724  67.0195198  16.1655858  48.5753023  67.3251214
  18.7759763  33.8673673  69.5691179  19.2728462  33.1143635  69.2492249
  18.0046744  33.9037990  69.0034388  26.6289520  39.5714039  71.2109470
  26.6179396  40.4538754  70.8403403  25.7606899  39.2185589  71.0164007
  18.1372016  48.7194108  75.5712310  18.8499989  49.3541572  75.4988212
  17.6462045  48.8157974  74.7552312  19.8589543  42.6245360  67.1429602
  18.9245822  42.7446823  66.9734306  20.0366212  41.7217827  66.8789612
  15.3594731  36.0091056  69.2962863  14.9892519  35.4562096  69.9843769
  15.8553824  35.4049189  68.7437863  23.2462095  38.4662679  67.6779636
  23.7122547  39.2990671  67.6039939  23.6969595  38.0007661  68.3824895
  13.1883930  46.4688551  76.3917881  13.8893389  47.1025034  76.5447275
  12.7179045  46.8103283  75.6313520  21.3138326  44.8106501  64.6765788
  21.5898170  44.6963095  65.5859662  20.4442824  44.4123986  64.6377961
  21.2178757  30.8343266  71.7170538  20.3041837  31.0647493  71.8852744
  21.6471859  30.9181711  72.5684570  20.9885216  39.0233158  74.2170432
  20.3356666  39.2709066  73.5622884  21.3665596  38.2097297  73.8832909
  17.9492390  49.0592852  68.3198602  18.1314784  48.2414508  68.7826354
  18.7725376  49.2760544  67.8823492  18.2834555  47.9861037  65.5813650
  18.8122322  47.4753491  64.9683812  18.5462775  47.6703567  66.4459183
  17.0372789  39.7652969  80.7036469  16.3613426  39.6647099  81.3738844
  17.8600423  39.6092183  81.1672466   8.7851648  46.0024906  73.3248984
   9.3705085  45.2568594  73.4576888   8.5876486  46.3128863  74.2085648
  11.6390303  49.0376153  68.3411426  10.9700678  49.5222281  67.8575466
  11.5003173  49.2845374  69.2554805   3.3769303  38.5730506  72.0453427
   3.4153402  38.0394097  72.8390545   2.8709595  38.0465712  71.4264404
  15.7795572  51.0719897  74.9394085  16.3313880  51.2351518  75.7043170
  16.1201765  51.6624335  74.2674109  10.7560065  33.4195047  75.5415969
  10.8201391  34.2809878  75.1293367  10.6927185  32.8069048  74.8088328
  10.2312337  35.4918179  79.1889004  10.8584376  35.1095257  79.8026528
   9.3740256  35.2732381  79.5544696  20.6306446  45.8981154  80.7942739
  21.1746350  46.5111113  80.2997694  20.0493291  46.4560733  81.3109752
   7.0077880  37.2994608  65.1207358   7.3031321  36.3905287  65.0674412
   6.1065916  37.2782348  64.7988361  18.9163959  49.0201872  71.9257767
  18.7915098  48.2191612  71.4168712  19.5743050  49.5148066  71.4371737
  10.5372127  35.3750605  71.1034907   9.8158713  35.9886573  70.9642380
  11.3265383  35.9108370  71.0251553  20.9798867  46.8210893  73.5537317
  20.0329203  46.7016244  73.4815644  21.3281640  45.9333391  73.6363578
  13.3398441  32.7105031  77.3775559  13.8632843  32.9567328  78.1401868
  13.1210774  33.5425066  76.9578696   8.7365722  34.9808706  65.2446684
   8.4078428  34.1006085  65.0621789   9.0905092  34.9256375  66.1323073
  17.9845301  46.6163609  69.7541669  17.8370263  45.6880316  69.9349239
  18.8098794  46.6383699  69.2698744  11.8507545  35.2681676  65.6122161
  12.1903617  35.7967597  64.8900770  12.2979665  35.6062082  66.3880728
  21.5879422  47.4392167  70.8406542  22.5125970  47.2335029  70.7030993
  21.4194726  47.1908569  71.7495883  14.5450986  33.6518727  75.0625229
  14.2047806  32.8526540  75.4645909  13.8389992  33.9520437  74.4902062
  15.1967458  30.7368039  73.5152552  16.0193527  30.2628517  73.3931443
  15.4405521  31.5158523  74.0151239  13.8375692  33.7656297  63.8115454
  14.5584055  34.1437550  63.3079171  13.2140996  34.4845174  63.9150432
  17.9806815  34.4701446  64.7473786  18.1970429  35.3526084  64.4462614
  17.5000882  34.0787660  64.0179428  12.7206036  37.4287160  71.3244531
  12.5750617  37.7427463  72.2168812  12.2431240  38.0472060  70.7715430
  14.5802419  34.4189708  71.3725420  14.5663988  33.5230801  71.0357718
  15.2974847  34.4260371  72.0063707  16.4328550  34.8527048  73.4178548
  16.1746328  35.7744118  73.4162878  15.9013590  34.4557482  74.1079012
  21.3774739  47.9577835  66.1968633  21.5511616  47.3924257  65.4442486
  21.8703630  48.7578730  66.0148123   7.1951699  39.9692504  74.2632192
   6.6505167  40.7452312  74.3952466   8.0731048  40.3163309  74.1051314
  13.9839315  33.3004088  66.6412991  14.1055226  32.3720734  66.8403878
  13.6941358  33.3142774  65.7291306  16.8530506  30.9858998  69.7779710
  16.8752202  31.0498331  68.8231690  17.2698565  30.1463507  69.9720217
  27.2314130  40.7214258  67.8158933  27.6745276  39.9721583  67.4178056
  26.3540640  40.7124394  67.4332665  22.3649911  47.2744599  63.2965532
  23.0600816  47.8951292  63.5152846  22.7073061  46.4239951  63.5717909
   7.9817720  39.0962400  77.1562349   7.2399456  39.2445036  77.7426979
   7.6610465  39.3570666  76.2929098  24.2641334  44.7244305  64.8252862
  24.7892658  45.0631578  64.1002182  24.1763687  43.7891320  64.6415997
  15.9261383  48.6378379  76.9542739  16.2348509  48.3927525  77.8265439
  16.7236865  48.8425017  76.4661609  15.9481995  50.7916288  69.1848116
  15.5086985  50.2992667  69.8780972  16.6990112  50.2489256  68.9440191
   8.4274334  46.9827829  69.1872744   9.2532354  46.6831601  68.8071387
   8.0768386  46.2135451  69.6362532  13.3955867  46.3354297  71.2570417
  12.7735877  45.6725002  70.9572645  14.0660734  46.3615429  70.5744065
   6.6282939  44.9014155  70.1461677   5.7914847  44.4736330  69.9645678
   6.6006585  45.0946599  71.0832468  13.4680395  34.8136085  80.8502923
  13.5168550  35.6898208  80.4680693  14.0102909  34.2713478  80.2774566
  24.0733115  42.2069675  77.4436789  24.1231120  42.0419682  78.3852312
  23.9647039  41.3396934  77.0534670  12.9569374  44.8858221  64.7328878
  13.1057494  45.5693685  64.0795550  13.7635818  44.8663311  65.2478333
  21.3636878  38.1900603  78.7596096  22.2646741  38.0507068  78.4680093
  21.4384852  38.3555058  79.6994273  15.6979683  35.5667458  77.6049282
  14.8282993  35.8601024  77.3331870  15.9339164  36.1507903  78.3256545
  25.5751312  44.6266616  77.6878810  25.2836121  44.9896597  78.5242271
  24.9623444  43.9133625  77.5092142  26.7746995  42.1919496  70.2081381
  27.6093886  42.6309300  70.3718941  26.9106123  41.7158149  69.3889626
  23.8238501  39.7499231  76.1558868  24.2992622  39.9426877  75.3477720
  22.9004066  39.8058417  75.9102252  10.7122007  40.9123398  65.7389947
  10.4668049  40.0085728  65.9370157  10.8817922  40.9140549  64.7969425
  18.4018717  31.7847075  75.1214702  18.9200661  32.5208102  74.7961191
  18.0473850  32.0911068  75.9561461   9.9817655  36.6451756  63.2376108
   9.2886900  36.7196111  62.5816144   9.7369407  35.8812099  63.7597625
  18.6531311  28.2047357  70.6415599  18.9333065  27.5370546  71.2676025
  19.4381918  28.3976453  70.1290263  16.4564780  47.3806351  62.2040625
  15.8838747  47.9996538  61.7511097  17.0297573  47.9305713  62.7380547
  22.5240170  36.6264991  74.3887174  23.4757592  36.7263089  74.4099398
  22.3543620  35.8343260  74.8985258  20.5454549  33.7120574  74.5746575
  19.9504481  33.9925587  73.8793064  20.2604246  34.2014475  75.3463316
  19.6762039  47.6643501  63.3349207  20.6092713  47.5989063  63.5382083
  19.5885252  48.4999768  62.8763740  22.3050056  46.9809372  60.2953155
  22.2263688  46.6469235  61.1888913  23.1259723  47.4731139  60.2944627
  25.0028247  39.8471111  73.5029474  24.9704567  38.9087112  73.6889157
  25.6128871  39.9255148  72.7695298  16.8411578  38.7167164  59.5456678
  17.7870683  38.5873372  59.6145096  16.4625823  37.9781826  60.0226106
  25.1522736  36.6382154  73.5487757  24.6361784  35.8540611  73.3617686
  26.0362684  36.3100871  73.7134276  22.8133463  30.3823170  69.5083569
  22.6158284  30.0738258  70.3926901  23.4233168  31.1084809  69.6381499
  30.8204797  40.9087118  72.6435510  31.5508186  40.6472406  73.2043214
  30.2111743  40.1715840  72.6837578  28.9020094  39.0494980  73.2409962
  28.1753258  38.9150945  72.6326453  28.4867381  39.3571809  74.0466680
  16.7250271  42.7684910  81.0057335  17.6453280  42.9463509  81.1997381
  16.6899854  41.8240955  80.8537034  15.0254495  36.6417140  59.4811563
  14.1185951  36.3450253  59.5574276  15.3030476  36.3446958  58.6145849
   5.9432436  37.9623504  69.9310609   5.6235220  37.1088812  69.6384983
   5.3965864  38.1772082  70.6868577   9.7212343  40.6785945  73.6480116
   9.9398353  41.6103052  73.6668150  10.1338117  40.3193919  74.4334920
  16.6416561  31.1854030  65.6355804  15.8317289  30.8401115  66.0111050
  17.3300978  30.8761574  66.2243416  18.5707109  30.2632077  67.2580101
  19.1238148  30.6827530  67.9170124  18.8077196  29.3367825  67.3003057
  14.5940209  36.2519150  83.0382865  14.4936935  37.2013507  82.9694956
  14.3761751  35.9237389  82.1658935  13.7953280  33.5004075  59.6223542
  14.6572444  33.8258974  59.8819359  13.9803624  32.7135571  59.1096608
   5.8120696  41.5826415  71.9003731   5.1184167  41.1680368  71.3873685
   6.5593687  41.6246952  71.3037150  21.9485916  32.3732602  66.7658765
  21.3684585  33.0317406  66.3836817  21.6821849  31.5509946  66.3546183
  20.3989483  31.7737660  68.9680085  20.8989261  31.8854194  68.1594404
  21.0425091  31.4698712  69.6080894  14.4571479  39.6816289  81.8547926
  13.9738560  40.4816649  82.0611815  14.5432418  39.6924234  80.9015370
   7.7257438  41.5144669  69.7769746   7.7028126  41.6132356  68.8251629
   8.0358075  42.3609820  70.0986912  10.3844816  43.5720824  73.8916360
  11.3388070  43.5404766  73.8246292  10.1857340  43.1111448  74.7066586
  10.9744198  42.1421940  76.4587158  11.7937087  42.6366019  76.4821995
  11.2481006  41.2253908  76.4304725  20.7310794  34.5332692  65.8215113
  19.8436649  34.8182343  65.6035308  21.1464784  34.3726456  64.9742390
  24.0825331  34.5579213  69.5369453  24.8585721  35.0475666  69.8094069
  23.3573465  34.9837267  69.9941322  26.5197889  35.2706832  70.5943393
  27.1142380  35.0302568  69.8836701  26.5924473  34.5513963  71.2216929
   8.7395045  49.1140443  70.9086558   8.6049513  48.3540844  70.3424556
   8.3227107  49.8381343  70.4415347  19.8754008  44.2977367  59.9163133
  20.5789858  44.5027369  60.5320789  19.1516657  44.8654129  60.1812217
  20.7051818  40.0487228  66.0365403  20.6487020  40.5055780  65.1973036
  21.2580161  39.2877913  65.8588246  24.5156624  35.8376960  66.8615523
  24.2593558  35.4373596  67.6923731  23.8909492  36.5520754  66.7365662
  28.8268962  38.5773033  69.3686814  28.2668520  38.6466223  70.1418376
  28.2212465  38.4014018  68.6486311  11.8964171  50.0109760  71.1205001
  11.7796555  50.9555193  71.0183691  11.0756617  49.7083322  71.5090800
  21.7840705  44.7359896  61.9661593  22.6186309  44.3041095  61.7839068
  21.6225048  44.5641910  62.8938488  21.4386597  41.2392009  63.3317933
  21.3835401  41.0736281  62.3906377  20.8132653  41.9468042  63.4880122
   6.2279112  36.4760074  77.1579355   6.8737976  35.9659028  77.6466580
   6.0196264  37.2128755  77.7322780  18.7532505  43.5440921  82.6571495
  19.6223664  43.7181574  82.2958130  18.2739256  44.3635338  82.5347225
  14.7482723  30.7400118  62.9103251  14.7361393  31.6841958  63.0671522
  15.6406145  30.5570264  62.6162712  12.9218685  50.6638022  74.3360929
  13.8245932  50.6961633  74.6527424  12.6956055  49.7338473  74.3507265
  14.6772287  49.4169009  70.9971008  13.7267918  49.4170870  70.8835380
  14.9804773  48.6701743  70.4807042  18.5634842  27.3342895  67.1649188
  17.7967238  26.7801382  67.3105870  18.9745547  27.4064764  68.0263339
  10.5676603  33.6227691  81.2554369  11.4308065  33.2664496  81.4657694
   9.9942014  33.2841586  81.9429773  20.6265934  58.5543643  70.8259406
  21.4187226  58.2134468  70.4105706  20.8662584  58.6638618  71.7461560
  28.6601061  60.7263419  63.2989651  28.0089041  61.3117500  62.9123664
  29.4545424  61.2569614  63.3584688  22.5856688  57.8152557  63.6976785
  23.3587564  57.2681544  63.5589661  22.9382087  58.6796806  63.9091246
  24.9222966  53.9745223  61.3295235  25.1748487  53.4526744  60.5678698
  23.9847525  53.8111368  61.4321919  30.1376326  58.4153851  63.8358635
  29.5022159  58.4888478  64.5479540  29.8073733  59.0047450  63.1577714
  24.6419255  55.8773329  63.5319610  24.5255513  55.2018232  64.2000694
  24.7521515  55.3905703  62.7151763  26.6256283  50.3673375  62.2327648
  26.7930685  51.2353612  62.5998119  26.4353452  50.5300657  61.3088937
  22.8344097  55.2804151  69.9330182  21.9094594  55.1480365  70.1407874
  23.0828511  56.0598370  70.4300125  26.6045504  52.8231033  63.2174314
  26.4845129  53.2688084  64.0559795  25.9098092  53.1716351  62.6587853
  20.1952908  54.9237425  70.7673972  20.3245290  55.1771904  71.6813383
  19.5150360  55.5165133  70.4478627  26.9402407  52.6549741  75.0549498
  27.7863603  53.0789154  75.1984147  26.8801045  51.9983365  75.7488061
  19.1422334  52.3959438  70.8125014  18.3521388  52.6516966  70.3365124
  19.6333581  53.2107776  70.9177054  21.0937079  52.7604017  67.7708490
  20.2968243  52.8722711  68.2891986  20.8662672  53.0990669  66.9049381
  17.4260037  52.6489928  73.2440005  17.6768075  53.5336938  73.5097581
  17.9619585  52.4694530  72.4715096  20.0920162  58.4692266  66.1597911
  20.6044683  59.2635516  66.3103475  20.7442875  57.7718556  66.0931512
  21.1867403  53.6322654  78.1182827  21.0720918  52.7307911  78.4189926
  20.3311921  53.8786351  77.7667643  23.0246362  63.1036196  74.2431006
  23.5753787  62.9753259  73.4708000  22.1857838  63.4031085  73.8925899
  18.0569079  56.7980920  66.9357481  18.8944301  57.2077928  66.7191189
  18.2347346  55.8580362  66.9057675  29.9533511  54.4656001  62.6241314
  29.4380134  55.2360605  62.8629701  29.6810819  53.7921137  63.2474375
  29.0679769  46.8452045  72.0818112  28.5644564  46.8082180  71.2685917
  29.3610375  47.7544787  72.1414769  25.3122654  46.9290774  71.0884294
  26.1775651  46.7333583  70.7290183  25.3800163  46.7001126  72.0153651
  22.9184974  49.1592982  68.4600661  23.4928725  48.9368164  67.7273854
  23.5055956  49.2281677  69.2129262  23.2454561  51.1897443  62.4796546
  22.4091873  51.5272130  62.8005821  23.1059330  51.0546423  61.5423683
  25.2207641  46.0334231  67.1875730  24.5672054  45.7183248  66.5632345
  25.1788115  45.4109972  67.9135553  26.3318846  56.3153526  59.1029022
  25.4245908  56.0842780  59.3020171  26.8289878  55.5191146  59.2903004
  29.2386925  65.0251034  62.0225708  28.5648624  65.3282730  62.6310666
  29.6252747  65.8280114  61.6731165  27.5107080  56.4166121  63.6253012
  26.6018299  56.1325154  63.7225482  27.5402163  56.8365200  62.7656319
  31.7870894  43.7340949  69.2186617  32.0929771  42.8738312  68.9312532
  32.5123499  44.3258569  69.0185610  18.0795250  54.1371635  67.6068215
  17.8819650  53.5440996  66.8819281  17.5241914  53.8323846  68.3244153
  27.2083167  57.9574865  60.9641091  26.7702597  57.2410724  60.5046728
  27.9493608  58.1850980  60.4026182  23.9984333  52.6471802  67.4853187
  23.1852199  52.9465972  67.8918379  24.4943328  52.2527490  68.2027669
  23.4898408  50.2190157  73.1014421  24.1297788  50.0778916  72.4037385
  22.6575939  49.9324670  72.7253023  20.5741476  53.6635669  65.2909167
  19.6439064  53.6020125  65.5079129  20.6698948  53.1411622  64.4945808
  20.4927025  50.1890482  67.8787408  20.7533842  51.1035815  67.7696569
  21.3144197  49.7214925  68.0284021  21.9651950  51.6028239  75.0486233
  22.6375003  51.3945601  74.3998882  21.1381737  51.4050325  74.6091465
  22.3679447  54.8770842  75.8088670  22.2299245  54.1451081  76.4100209
  23.2784371  54.7879742  75.5272858  31.3294395  56.8159247  60.5573148
  30.7123566  56.0906075  60.4606201  30.8610883  57.5768607  60.2140223
  22.0039225  68.3420069  71.0112648  22.2435824  68.9738593  71.6891666
  21.1608422  67.9908109  71.2978007  23.1192941  51.0344671  59.6794453
  22.2422407  50.9133472  59.3156699  23.5950694  50.2430749  59.4273341
  14.6395081  55.8221831  69.7735960  15.3266121  55.5083561  69.1856975
  14.4843210  56.7263195  69.5003211  19.4429803  50.7112027  74.2020984
  19.3587992  50.1037697  73.4671394  18.6212510  51.2021045  74.2030480
  32.0572512  46.1635184  71.7170538  31.1435592  46.3939411  71.8852744
  32.4865613  46.2473628  72.5684570  19.6245402  61.3316824  73.3248984
  20.2098839  60.5860512  73.4576888  19.4270241  61.6420780  74.2085648
  22.4784058  64.3668071  68.3411426  21.8094433  64.8514199  67.8575466
  22.3396927  64.6137292  69.2554805  14.2163057  53.9022424  72.0453427
  14.2547157  53.3686015  72.8390545  13.7103350  53.3757629  71.4264404
  26.6189326  66.4011815  74.9394085  27.1707634  66.5643436  75.7043170
  26.9595520  66.9916252  74.2674109  21.5953819  48.7486964  75.5415969
  21.6595146  49.6101795  75.1293367  21.5320940  48.1360966  74.8088328
  21.0706092  50.8210097  79.1889004  21.6978131  50.4387174  79.8026528
  20.2134011  50.6024299  79.5544696  17.8471635  52.6286526  65.1207358
  18.1425076  51.7197204  65.0674412  16.9459670  52.6074266  64.7988361
  21.3765882  50.7042523  71.1034907  20.6552467  51.3178490  70.9642380
  22.1659137  51.2400287  71.0251553  19.5759476  50.3100624  65.2446684
  19.2472182  49.4298003  65.0621789  19.9298847  50.2548292  66.1323073
  22.6901299  50.5973594  65.6122161  23.0297372  51.1259515  64.8900770
  23.1373420  50.9354000  66.3880728  26.0361212  46.0659957  73.5152552
  26.8587281  45.5920435  73.3931443  26.2799276  46.8450440  74.0151239
  24.6769447  49.0948215  63.8115454  25.3977809  49.4729468  63.3079171
  24.0534751  49.8137092  63.9150432  28.8200569  49.7993364  64.7473786
  29.0364184  50.6818002  64.4462614  28.3394637  49.4079577  64.0179428
  23.5599791  52.7579077  71.3244531  23.4144372  53.0719380  72.2168812
  23.0824994  53.3763978  70.7715430  25.4196174  49.7481625  71.3725420
  25.4057742  48.8522719  71.0357718  26.1368602  49.7552289  72.0063707
  27.2722304  50.1818966  73.4178548  27.0140082  51.1036036  73.4162878
  26.7407345  49.7849400  74.1079012  18.0345453  55.2984422  74.2632192
  17.4898921  56.0744230  74.3952466  18.9124803  55.6455226  74.1051314
  24.8233070  48.6296006  66.6412991  24.9448981  47.7012652  66.8403878
  24.5335112  48.6434692  65.7291306  27.6924260  46.3150916  69.7779710
  27.7145957  46.3790249  68.8231690  28.1092319  45.4755425  69.9720217
  33.2043666  62.6036517  63.2965532  33.8994570  63.2243210  63.5152846
  33.5466816  61.7531868  63.5717909  18.8211475  54.4254318  77.1562349
  18.0793211  54.5736953  77.7426979  18.5004219  54.6862584  76.2929098
  19.2668089  62.3119747  69.1872744  20.0926108  62.0123519  68.8071387
  18.9162141  61.5427369  69.6362532  17.4676694  60.2306073  70.1461677
  16.6308602  59.8028248  69.9645678  17.4400339  60.4238517  71.0832468
  21.5515762  56.2415316  65.7389947  21.3061804  55.3377646  65.9370157
  21.7211676  56.2432466  64.7969425  20.8211409  51.9743673  63.2376108
  20.1280654  52.0488028  62.5816144  20.5763161  51.2104017  63.7597625
  29.4925066  43.5339275  70.6415599  29.7726819  42.8662464  71.2676025
  30.2775673  43.7268370  70.1290263  27.2958534  62.7098269  62.2040625
  26.7232501  63.3288456  61.7511097  27.8691328  63.2597630  62.7380547
  33.1443811  62.3101289  60.2953155  33.0657442  61.9761153  61.1888913
  33.9653477  62.8023057  60.2944627  27.6805333  54.0459081  59.5456678
  28.6264437  53.9165290  59.6145096  27.3019578  53.3073743  60.0226106
  33.6527217  45.7115088  69.5083569  33.4552038  45.4030176  70.3926901
  34.2626923  46.4376726  69.6381499  25.8648250  51.9709058  59.4811563
  24.9579705  51.6742171  59.5574276  26.1424231  51.6738876  58.6145849
  16.7826190  53.2915421  69.9310609  16.4628975  52.4380729  69.6384983
  16.2359618  53.5063999  70.6868577  20.5606098  56.0077862  73.6480116
  20.7792108  56.9394970  73.6668150  20.9731872  55.6485837  74.4334920
  27.4810316  46.5145948  65.6355804  26.6711044  46.1693033  66.0111050
  28.1694732  46.2053491  66.2243416  24.6347034  48.8295993  59.6223542
  25.4966198  49.1550891  59.8819359  24.8197379  48.0427489  59.1096608
  16.6514450  56.9118333  71.9003731  15.9577922  56.4972286  71.3873685
  17.3987441  56.9538869  71.3037150  18.5651193  56.8436587  69.7769746
  18.5421881  56.9424274  68.8251629  18.8751829  57.6901737  70.0986912
  19.5788799  64.4432361  70.9086558  19.4443267  63.6832762  70.3424556
  19.1620862  65.1673261  70.4415347  30.7147762  59.6269285  59.9163133
  31.4183613  59.8319287  60.5320789  29.9910411  60.1946046  60.1812217
  22.7357925  65.3401678  71.1205001  22.6190309  66.2847111  71.0183691
  21.9150372  65.0375240  71.5090800  32.6234460  60.0651814  61.9661593
  33.4580064  59.6333012  61.7839068  32.4618803  59.8933827  62.8938488
  32.2780352  56.5683927  63.3317933  32.2229156  56.4028199  62.3906377
  31.6526407  57.2759960  63.4880122  17.0672867  51.8051991  77.1579355
  17.7131731  51.2950945  77.6466580  16.8590018  52.5420673  77.7322780
  25.5876477  46.0692036  62.9103251  25.5755147  47.0133876  63.0671522
  26.4799899  45.8862182  62.6162712  23.7612439  65.9929940  74.3360929
  24.6639686  66.0253550  74.6527424  23.5349809  65.0630391  74.3507265
  29.4028597  42.6634813  67.1649188  28.6360993  42.1093299  67.3105870
  29.8139302  42.7356682  68.0263339  33.9195257  72.3884369  67.9875186
  33.3560122  72.2974306  67.2191474  33.8047652  71.5684274  68.4677678
  38.5428224  71.6883745  77.9564500  38.5316865  71.2936543  77.0845004
  38.7048864  70.9549817  78.5498272  31.4659689  73.8835561  70.8259406
  32.2580981  73.5426386  70.4105706  31.7056339  73.9930536  71.7461560
  39.4994816  76.0555337  63.2989651  38.8482795  76.6409418  62.9123664
  40.2939178  76.5861532  63.3584688  33.4250443  73.1444474  63.6976785
  34.1981319  72.5973461  63.5589661  33.7775842  74.0088724  63.9091246
  35.2635485  74.4720857  76.9043684  34.9725351  75.3766487  76.7890351
  35.8992470  74.5137384  77.6187754  36.1891692  71.8497705  73.4945044
  36.7855264  71.6253727  72.7802007  36.2466664  71.1082451  74.0970492
  35.7616721  69.3037140  61.3295235  36.0142241  68.7818662  60.5678698
  34.8241280  69.1403286  61.4321919  40.9770081  73.7445769  63.8358635
  40.3415914  73.8180396  64.5479540  40.6467487  74.3339368  63.1577714
  35.4813009  71.2065246  63.5319610  35.3649267  70.5310150  64.2000694
  35.5915269  70.7197620  62.7151763  40.2225370  74.1582272  73.8993478
  39.9226093  75.0607311  73.7909285  39.8776430  73.8914455  74.7514631
  33.6737852  70.6096069  69.9330182  32.7488348  70.4772283  70.1407874
  33.9222265  71.3890288  70.4300125  37.4439258  68.1522951  63.2174314
  37.3238883  68.5980001  64.0559795  36.7491846  68.5008268  62.6587853
  31.0346663  70.2529342  70.7673972  31.1639044  70.5063821  71.6813383
  30.3544114  70.8457050  70.4478627  35.2046150  80.9226592  66.8664446
  35.1270180  81.8734417  66.9452926  34.6007794  80.5772465  67.5239372
  37.6963380  68.0954458  79.5225813  36.9196714  68.6548378  79.5128677
  38.3353943  68.5811241  80.0440683  43.1424324  68.6244424  64.0454649
  44.0542180  68.8571811  63.8702346  42.6333971  69.2081468  63.4829727
  35.9509752  70.9039911  79.0843780  36.6924437  71.4424955  78.8078603
  35.2446738  71.5306200  79.2415331  41.4265092  73.0469052  77.6815941
  41.8348448  72.6051462  76.9370573  40.7042353  72.4721679  77.9350134
  41.7493907  73.6070242  71.4368230  41.1202769  73.7715956  70.7344298
  41.3619569  74.0211852  72.2079194  45.6283138  74.5424680  68.7912594
  44.9434177  74.9223581  68.2409627  45.7126988  75.1520007  69.5244541
  42.8834070  72.1884639  75.3907937  43.0950965  72.8316399  74.7142318
  42.8363818  71.3546956  74.9229867  37.3021868  73.3444650  68.7018315
  37.7660214  73.6232353  67.9122938  37.0378667  72.4428095  68.5191406
  34.1945949  72.8916132  71.6398078  34.7647307  73.3203400  71.0015563
  34.7854061  72.6098717  72.3382264  43.9979898  75.0656595  73.5630295
  44.8197342  74.6636782  73.2812976  43.9942301  74.9624829  74.5146410
  37.7636501  74.6140638  75.7191005  37.8280934  75.0761045  76.5549177
  37.0547425  73.9838003  75.8473315  52.0885891  71.4095343  69.9115266
  51.3349599  70.8402741  69.7559271  52.2233432  71.3758008  70.8585901
  37.4784519  76.2808745  65.5869985  37.3430194  77.1260281  66.0154833
  38.0194332  76.4828023  64.8235919  30.9313916  73.7984183  66.1597911
  31.4438437  74.5927434  66.3103475  31.5836629  73.1010474  66.0931512
  32.7408801  76.9149940  68.2420664  32.9175430  77.8367904  68.0541648
  33.5365635  76.6008359  68.6715043  39.1052995  76.9032312  79.7170328
  38.6616850  76.1168690  79.3991232  39.7670209  77.0911462  79.0514218
  33.8640117  78.4328113  74.2431006  34.4147542  78.3045177  73.4708000
  33.0251593  78.7323002  73.8925899  41.2034234  77.1835112  77.7451729
  41.1852709  78.0043993  77.2531998  42.1254154  77.0589187  77.9701870
  37.6607288  74.6979241  78.5875237  38.1935624  73.9367529  78.3574545
  37.1321369  74.4052893  79.3299392  28.8962833  72.1272838  66.9357481
  29.7338055  72.5369846  66.7191189  29.0741101  71.1872280  66.9057675
  40.7927265  69.7947918  62.6241314  40.2773889  70.5652523  62.8629701
  40.5204574  69.1213055  63.2474375  45.7661540  72.5480273  64.5594487
  44.9890982  72.2091432  64.1149650  46.4453020  72.5532896  63.8849453
  40.5813569  67.6675010  64.4501095  40.2763704  67.9821160  65.3011238
  41.5344011  67.7456430  64.4928428  39.0260000  73.8265234  66.0994049
  38.4981362  73.0917993  65.7867287  38.5247503  74.6039910  65.8534018
  34.0848315  66.5189361  62.4796546  33.2485627  66.8564048  62.8005821
  33.9453085  66.3838341  61.5423683  37.1712601  71.6445444  59.1029022
  36.2639662  71.4134697  59.3020171  37.6683633  70.8483063  59.2903004
  40.0780679  80.3542951  62.0225708  39.4042378  80.6574648  62.6310666
  40.4646501  81.1572032  61.6731165  38.3500834  71.7458039  63.6253012
  37.4412053  71.4617072  63.7225482  38.3795918  72.1657117  62.7656319
  43.5820101  75.3564628  67.3944180  43.1282429  74.5155538  67.4509370
  42.9514068  75.9926027  67.7318960  42.0253041  77.1941125  68.3293998
  42.3176015  77.7546182  67.6106364  42.5351661  77.4869686  69.0847157
  38.0476922  73.2866783  60.9641091  37.6096352  72.5702641  60.5046728
  38.7887363  73.5142897  60.4026182  36.9886666  77.9721476  69.4187451
  36.9462845  78.1982322  68.4895983  37.9049365  77.7384851  69.5673252
  46.1650037  71.5623980  67.0217409  46.0267935  71.7525576  66.0938599
  45.8086255  72.3243362  67.4785461  46.1919416  73.6300507  72.0328681
  46.6255923  73.5375796  72.8811735  46.9050997  73.6058007  71.3948697
  35.1052467  74.8484505  69.2149414  35.8993065  74.3534825  69.0131989
  34.3944159  74.3202368  68.8517119  39.9247311  77.2302601  73.5661782
  39.9784333  77.7993537  74.3339497  39.0562092  77.4004486  73.2015819
  31.4135230  68.9927587  65.2909167  30.4832818  68.9312042  65.5079129
  31.5092702  68.4703540  64.4945808  47.0534966  73.6724207  74.5661566
  47.2470856  74.5770018  74.8120841  46.9535584  73.2131626  75.4000151
  42.1150074  73.8230950  80.1402447  41.9635581  73.5941502  79.2232531
  42.1054754  74.7801551  80.1533792  38.8835411  71.3962863  75.1248713
  39.8127471  71.5474022  74.9517681  38.4626441  71.4846884  74.2697360
  37.6823743  75.4213527  72.8947251  37.5434828  75.0532312  73.7673189
  36.8938339  75.9361167  72.7231209  38.2771895  80.5222624  64.2372788
  38.4523650  80.0510667  65.0518410  37.5904683  81.1488390  64.4654048
  39.2328958  74.7995130  70.2836089  38.8978790  74.7595900  71.1793739
  38.7332903  74.1339846  69.8106499  33.2073202  70.2062760  75.8088670
  33.0693000  69.4742999  76.4100209  34.1178125  70.1171660  75.5272858
  42.1688149  72.1451164  60.5573148  41.5517320  71.4197992  60.4606201
  41.7004638  72.9060524  60.2140223  35.8355502  69.9182719  75.2972350
  36.5455121  69.2775911  75.2558968  35.7924811  70.1695614  76.2198530
  43.8242281  76.8550073  78.2178929  43.7654827  76.1709293  77.5509512
  44.2261799  77.5969063  77.7659555  32.8432980  83.6711986  71.0112648
  33.0829578  84.3030511  71.6891666  32.0002176  83.3200026  71.2978007
  33.9586695  66.3636589  59.6794453  33.0816162  66.2425389  59.3156699
  34.4344448  65.5722667  59.4273341  43.8259688  74.8189656  76.4492908
  42.9386467  74.4815578  76.5719307  44.3958239  74.0872688  76.6861674
  37.3560842  79.4791109  73.4154152  37.2831013  80.2846080  73.9273456
  36.9138235  79.6783075  72.5902173  37.1450621  78.7162879  66.9256973
  36.3618143  79.2584559  67.0195198  37.8443367  79.2336859  67.3251214
  48.3077029  70.2297874  71.2109470  48.2966905  71.1122589  70.8403403
  47.4394408  69.8769425  71.0164007  39.8159525  79.3777943  75.5712310
  40.5287497  80.0125408  75.4988212  39.3249554  79.4741809  74.7552312
  41.5377052  73.2829196  67.1429602  40.6033331  73.4030658  66.9734306
  41.7153721  72.3801662  66.8789612  34.8671439  77.1272386  76.3917881
  35.5680898  77.7608869  76.5447275  34.3966554  77.4687118  75.6313520
  42.9925835  75.4690336  64.6765788  43.2685679  75.3546931  65.5859662
  42.1230333  75.0707821  64.6377961  39.6279899  79.7176687  68.3198602
  39.8102293  78.8998343  68.7826354  40.4512885  79.9344379  67.8823492
  39.9622064  78.6444872  65.5813650  40.4909831  78.1337327  64.9683812
  40.2250284  78.3287402  66.4459183  38.7160298  70.4236805  80.7036469
  38.0400935  70.3230934  81.3738844  39.5387932  70.2676019  81.1672466
  30.4639157  76.6608741  73.3248984  31.0492594  75.9152429  73.4576888
  30.2663995  76.9712698  74.2085648  33.3177812  79.6959989  68.3411426
  32.6488187  80.1806116  67.8575466  33.1790682  79.9429209  69.2554805
  37.4583081  81.7303732  74.9394085  38.0101389  81.8935354  75.7043170
  37.7989274  82.3208170  74.2674109  42.3093955  76.5564990  80.7942739
  42.8533859  77.1694948  80.2997694  41.7280800  77.1144568  81.3109752
  40.5951468  79.6785708  71.9257767  40.4702607  78.8775448  71.4168712
  41.2530559  80.1731901  71.4371737  42.6586376  77.4794728  73.5537317
  41.7116712  77.3600079  73.4815644  43.0069149  76.5917226  73.6363578
  39.6632810  77.2747444  69.7541669  39.5157772  76.3464152  69.9349239
  40.4886303  77.2967535  69.2698744  43.2666931  78.0976003  70.8406542
  44.1913479  77.8918864  70.7030993  43.0982235  77.8492404  71.7495883
  43.0562248  78.6161670  66.1968633  43.2299125  78.0508093  65.4442486
  43.5491139  79.4162565  66.0148123  28.8739207  70.6276339  74.2632192
  28.3292676  71.4036147  74.3952466  29.7518557  70.9747144  74.1051314
  48.9101639  71.3798093  67.8158933  49.3532785  70.6305418  67.4178056
  48.0328149  71.3708230  67.4332665  44.0437420  77.9328435  63.2965532
  44.7388325  78.5535127  63.5152846  44.3860570  77.0823786  63.5717909
  29.6605229  69.7546236  77.1562349  28.9186965  69.9028871  77.7426979
  29.3397974  70.0154501  76.2929098  45.9428843  75.3828140  64.8252862
  46.4680167  75.7215413  64.1002182  45.8551196  74.4475156  64.6415997
  37.6048892  79.2962214  76.9542739  37.9136018  79.0511361  77.8265439
  38.4024374  79.5008852  76.4661609  37.6269504  81.4500124  69.1848116
  37.1874494  80.9576502  69.8780972  38.3777621  80.9073091  68.9440191
  30.1061843  77.6411664  69.1872744  30.9319863  77.3415436  68.8071387
  29.7555895  76.8719287  69.6362532  35.0743376  76.9938133  71.2570417
  34.4523385  76.3308838  70.9572645  35.7448243  77.0199264  70.5744065
  28.3070448  75.5597991  70.1461677  27.4702356  75.1320165  69.9645678
  28.2794094  75.7530434  71.0832468  45.6322749  76.0161044  80.1304060
  44.8418293  75.9985183  79.5908560  45.3956104  76.5549338  80.8853097
  45.7520624  72.8653510  77.4436789  45.8018629  72.7003518  78.3852312
  45.6434548  71.9980769  77.0534670  34.6356883  75.5442056  64.7328878
  34.7845003  76.2277520  64.0795550  35.4423327  75.5247146  65.2478333
  47.2538821  75.2850452  77.6878810  46.9623630  75.6480432  78.5242271
  46.6410953  74.5717460  77.5092142  48.4534504  72.8503332  70.2081381
  49.2881395  73.2893136  70.3718941  48.5893632  72.3741985  69.3889626
  32.3909516  71.5707234  65.7389947  32.1455558  70.6669564  65.9370157
  32.5605431  71.5724384  64.7969425  31.6605164  67.3035591  63.2376108
  30.9674409  67.3779946  62.5816144  31.4156916  66.5395935  63.7597625
  38.1352289  78.0390186  62.2040625  37.5626256  78.6580374  61.7511097
  38.7085082  78.5889548  62.7380547  41.3549548  78.3227337  63.3349207
  42.2880222  78.2572898  63.5382083  41.2672761  79.1583603  62.8763740
  43.9837565  77.6393207  60.2953155  43.9051197  77.3053070  61.1888913
  44.8047232  78.1314975  60.2944627  38.5199087  69.3750999  59.5456678
  39.4658192  69.2457207  59.6145096  38.1413332  68.6365661  60.0226106
  52.4992306  71.5670953  72.6435510  53.2295695  71.3056241  73.2043214
  51.8899252  70.8299675  72.6837578  38.4037780  73.4268745  81.0057335
  39.3240789  73.6047344  81.1997381  38.3687363  72.4824791  80.8537034
  36.7042004  67.3000976  59.4811563  35.7973460  67.0034088  59.5574276
  36.9817985  67.0030794  58.6145849  31.3999852  71.3369780  73.6480116
  31.6185862  72.2686888  73.6668150  31.8125626  70.9777754  74.4334920
  36.2727718  66.9102986  83.0382865  36.1724444  67.8597343  82.9694956
  36.0549260  66.5821225  82.1658935  35.4740789  64.1587911  59.6223542
  36.3359953  64.4842809  59.8819359  35.6591133  63.3719407  59.1096608
  27.4908205  72.2410250  71.9003731  26.7971676  71.8264203  71.3873685
  28.2381196  72.2830787  71.3037150  36.1358988  70.3400125  81.8547926
  35.6526069  71.1400485  82.0611815  36.2219927  70.3508069  80.9015370
  29.4044947  72.1728504  69.7769746  29.3815635  72.2716191  68.8251629
  29.7145584  73.0193655  70.0986912  32.0632325  74.2304659  73.8916360
  33.0175579  74.1988602  73.8246292  31.8644849  73.7695283  74.7066586
  32.6531707  72.8005775  76.4587158  33.4724596  73.2949854  76.4821995
  32.9268515  71.8837743  76.4304725  30.4182554  79.7724279  70.9086558
  30.2837022  79.0124680  70.3424556  30.0014616  80.4965179  70.4415347
  41.5541517  74.9561202  59.9163133  42.2577367  75.1611205  60.5320789
  40.8304166  75.5237964  60.1812217  42.3839327  70.7071064  66.0365403
  42.3274529  71.1639615  65.1973036  42.9367670  69.9461748  65.8588246
  50.5056471  69.2356869  69.3686814  49.9456029  69.3050058  70.1418376
  49.8999974  69.0597853  68.6486311  33.5751680  80.6693596  71.1205001
  33.4584064  81.6139028  71.0183691  32.7544126  80.3667157  71.5090800
  43.4628214  75.3943731  61.9661593  44.2973818  74.9624930  61.7839068
  43.3012557  75.2225745  62.8938488  43.1174106  71.8975845  63.3317933
  43.0622910  71.7320116  62.3906377  42.4920162  72.6051878  63.4880122
  27.9066621  67.1343909  77.1579355  28.5525485  66.6242863  77.6466580
  27.6983773  67.8712591  77.7322780  40.4320014  74.2024757  82.6571495
  41.3011173  74.3765409  82.2958130  39.9526765  75.0219173  82.5347225
  34.6006194  81.3221858  74.3360929  35.5033441  81.3545468  74.6527424
  34.3743564  80.3922309  74.3507265  36.3559796  80.0752844  70.9971008
  35.4055427  80.0754706  70.8835380  36.6592282  79.3285579  70.4807042
  48.9002196  85.8640811  71.9978295  48.5620707  85.7481875  71.1098830
  49.7691964  85.4631976  71.9779301  49.3821979  87.0175662  77.9564500
  49.3710619  86.6228461  77.0845004  49.5442618  86.2841735  78.5498272
  42.3053443  89.2127479  70.8259406  43.0974735  88.8718303  70.4105706
  42.5450093  89.3222454  71.7461560  44.2644197  88.4736392  63.6976785
  45.0375073  87.9265379  63.5589661  44.6169596  89.3380641  63.9091246
  46.1029240  89.8012774  76.9043684  45.8119106  90.7058405  76.7890351
  46.7386224  89.8429302  77.6187754  47.0285447  87.1789623  73.4945044
  47.6249019  86.9545645  72.7802007  47.0860418  86.4374368  74.0970492
  51.6453758  83.6364836  69.1369978  52.4316847  83.2184260  68.7860395
  51.9092462  84.5410929  69.3051627  48.3043792  81.0257211  62.2327648
  48.4718194  81.8937447  62.5998119  48.1140961  81.1884493  61.3088937
  51.0619125  89.4874190  73.8993478  50.7619848  90.3899229  73.7909285
  50.7170184  89.2206373  74.7514631  44.5131606  85.9387987  69.9330182
  43.5882103  85.8064201  70.1407874  44.7616020  86.7182206  70.4300125
  41.8740417  85.5821260  70.7673972  42.0032799  85.8355739  71.6813383
  41.1937869  86.1748968  70.4478627  46.0439905  96.2518510  66.8664446
  45.9663934  97.2026335  66.9452926  45.4401548  95.9064383  67.5239372
  48.5357134  83.4246376  79.5225813  47.7590468  83.9840296  79.5128677
  49.1747697  83.9103158  80.0440683  46.7903507  86.2331829  79.0843780
  47.5318191  86.7716873  78.8078603  46.0840492  86.8598118  79.2415331
  52.2658846  88.3760969  77.6815941  52.6742202  87.9343380  76.9370573
  51.5436108  87.8013597  77.9350134  48.6189916  83.3133576  75.0549498
  49.4651112  83.7372990  75.1984147  48.5588554  82.6567200  75.7488061
  51.7689362  80.9737944  76.7130672  51.5250294  81.7280005  76.1764947
  52.0449292  81.3523292  77.5477919  51.3254053  80.1294377  72.2944509
  50.4638533  80.4275631  72.5861247  51.3516488  80.3464776  71.3625542
  45.0339704  88.2208050  71.6398078  45.6041061  88.6495318  71.0015563
  45.6247816  87.9390634  72.3382264  47.0784509  84.7959720  65.5107880
  47.7808552  85.2480764  65.9781807  46.7465137  84.1543539  66.1387773
  45.5264870  83.3871477  79.8859090  44.8963531  84.0687758  80.1194486
  45.4200958  83.2754559  78.9412228  40.8209843  83.0543273  70.8125014
  40.0308897  83.3100802  70.3365124  41.3121090  83.8691611  70.9177054
  42.7724588  83.4187852  67.7708490  41.9755752  83.5306547  68.2891986
  42.5450181  83.7574505  66.9049381  48.6030256  89.9432556  75.7191005
  48.6674688  90.4052963  76.5549177  47.8941180  89.3129920  75.8473315
  39.1047546  83.3073764  73.2440005  39.3555584  84.1920773  73.5097581
  39.6407094  83.1278365  72.4715096  44.8045613  77.6892243  82.2484341
  44.4112559  77.1358441  82.9231985  45.6211754  78.0002821  82.6390858
  41.7707671  89.1276101  66.1597911  42.2832192  89.9219351  66.3103475
  42.4230384  88.4302392  66.0931512  43.5802556  92.2441857  68.2420664
  43.7569184  93.1659822  68.0541648  44.3759389  91.9300277  68.6715043
  47.7213574  79.1050122  79.8404597  48.4623288  79.7057275  79.7609060
  47.9531497  78.3627760  79.2822640  42.8654912  84.2906489  78.1182827
  42.7508427  83.3891746  78.4189926  42.0099430  84.5370186  77.7667643
  49.9446750  92.2324230  79.7170328  49.5010604  91.4460608  79.3991232
  50.6063964  92.4203380  79.0514218  44.7033871  93.7620031  74.2431006
  45.2541296  93.6337094  73.4708000  43.8645347  94.0614920  73.8925899
  48.5001042  90.0271159  78.5875237  49.0329379  89.2659447  78.3574545
  47.9715123  89.7344811  79.3299392  51.6670737  75.1331225  74.1168879
  51.3235007  76.0232867  74.0407989  52.0349700  74.9432883  73.2538464
  39.7356588  87.4564755  66.9357481  40.5731810  87.8661764  66.7191189
  39.9134855  86.5164198  66.9057675  49.2168131  79.9689537  67.6826552
  48.3609727  79.5796387  67.5032191  49.6295083  80.0481498  66.8226338
  50.7467278  77.5035880  72.0818112  50.2432073  77.4666015  71.2685917
  51.0397884  78.4128623  72.1414769  46.9910163  77.5874610  71.0884294
  47.8563160  77.3917418  70.7290183  47.0587672  77.3584962  72.0153651
  44.5972482  79.8176818  68.4600661  45.1716234  79.5951999  67.7273854
  45.1843465  79.8865512  69.2129262  44.9242070  81.8481279  62.4796546
  44.0879382  82.1855965  62.8005821  44.7846839  81.7130259  61.5423683
  46.8995150  76.6918067  67.1875730  46.2459563  76.3767084  66.5632345
  46.8575624  76.0693807  67.9135553  50.1332891  83.1800000  71.5123378
  49.2155452  83.4014947  71.3545066  50.5493034  83.2546311  70.6535085
  53.3646775  81.6148532  68.6244847  52.6269532  81.1025918  68.9555090
  53.6173549  81.1748914  67.8128124  53.4658403  74.3924784  69.2186617
  53.7717280  73.5322148  68.9312532  54.1911008  74.9842404  69.0185610
  39.7582759  84.7955471  67.6068215  39.5607159  84.2024831  66.8819281
  39.2029423  84.4907681  68.3244153  47.7379483  84.6878577  69.7262808
  47.7928092  83.7352414  69.6505284  46.9270685  84.8438016  70.2104106
  45.6771842  83.3055637  67.4853187  44.8639708  83.6049807  67.8918379
  46.1730837  82.9111326  68.2027669  45.1685917  80.8773992  73.1014421
  45.8085297  80.7362752  72.4037385  44.3363448  80.5908506  72.7253023
  42.2528985  84.3219505  65.2909167  41.3226573  84.2603960  65.5079129
  42.3486457  83.7995457  64.4945808  42.1714534  80.8474317  67.8787408
  42.4321351  81.7619651  67.7696569  42.9931706  80.3798760  68.0284021
  43.6439459  82.2612075  75.0486233  44.3162512  82.0529437  74.3998882
  42.8169246  82.0634161  74.6091465  49.5465031  78.8874016  77.0651894
  48.8992946  79.5863965  76.9716370  50.3166046  79.3210159  77.4328142
  52.9543829  89.1522868  80.1402447  52.8029335  88.9233419  79.2232531
  52.9448508  90.1093469  80.1533792  49.7229165  86.7254780  75.1248713
  50.6521225  86.8765940  74.9517681  49.3020195  86.8138801  74.2697360
  48.5217497  90.7505445  72.8947251  48.3828583  90.3824229  73.7673189
  47.7332093  91.2653084  72.7231209  49.1165649  95.8514541  64.2372788
  49.2917405  95.3802584  65.0518410  48.4298437  96.4780308  64.4654048
  44.0466956  85.5354678  75.8088670  43.9086754  84.8034916  76.4100209
  44.9571880  85.4463578  75.5272858  46.6749257  85.2474637  75.2972350
  47.3848875  84.6067829  75.2558968  46.6318565  85.4987532  76.2198530
  54.6636036  92.1841990  78.2178929  54.6048582  91.5001210  77.5509512
  55.0655554  92.9260980  77.7659555  45.3878191  82.2339855  77.1167989
  44.8515548  81.7830593  77.7689585  44.7994899  82.3685764  76.3738453
  43.6826734  99.0003904  71.0112648  43.9223333  99.6322428  71.6891666
  42.8395931  98.6491944  71.2978007  44.7980450  81.6928506  59.6794453
  43.9209916  81.5717307  59.3156699  45.2738203  80.9014584  59.4273341
  54.6653443  90.1481574  76.4492908  53.7780222  89.8107496  76.5719307
  55.2351994  89.4164605  76.6861674  36.3182590  86.4805666  69.7735960
  37.0053630  86.1667396  69.1856975  36.1630719  87.3847031  69.5003211
  41.1217312  81.3695862  74.2020984  41.0375501  80.7621532  73.4671394
  40.3000019  81.8604881  74.2030480  48.1954596  94.8083027  73.4154152
  48.1224768  95.6137998  73.9273456  47.7531989  95.0074992  72.5902173
  51.2941026  79.8549426  69.5691179  51.7909726  79.1019388  69.2492249
  50.5228007  79.8913743  69.0034388  50.6553280  94.7069861  75.5712310
  51.3681252  95.3417325  75.4988212  50.1643308  94.8033727  74.7552312
  47.8775995  81.9966809  69.2962863  47.5073782  81.4437849  69.9843769
  48.3735087  81.3924942  68.7437863  45.7065193  92.4564304  76.3917881
  46.4074653  93.0900787  76.5447275  45.2360308  92.7979036  75.6313520
  53.7360021  76.8219019  71.7170538  52.8223101  77.0523246  71.8852744
  54.1653122  76.9057464  72.5684570  49.5554052  85.7528723  80.7036469
  48.8794689  85.6522852  81.3738844  50.3781686  85.5967936  81.1672466
  41.3032911  91.9900659  73.3248984  41.8886348  91.2444347  73.4576888
  41.1057750  92.3004616  74.2085648  44.1571567  95.0251906  68.3411426
  43.4881942  95.5098034  67.8575466  44.0184436  95.2721127  69.2554805
  35.8950566  84.5606259  72.0453427  35.9334666  84.0269850  72.8390545
  35.3890859  84.0341465  71.4264404  48.2976835  97.0595650  74.9394085
  48.8495143  97.2227271  75.7043170  48.6383029  97.6500088  74.2674109
  43.2741328  79.4070800  75.5415969  43.3382655  80.2685631  75.1293367
  43.2108449  78.7944801  74.8088328  42.7493601  81.4793932  79.1889004
  43.3765640  81.0971010  79.8026528  41.8921520  81.2608134  79.5544696
  53.1487709  91.8856907  80.7942739  53.6927613  92.4986866  80.2997694
  52.5674554  92.4436486  81.3109752  39.5259144  83.2870361  65.1207358
  39.8212585  82.3781040  65.0674412  38.6247179  83.2658101  64.7988361
  43.0553391  81.3626358  71.1034907  42.3339976  81.9762326  70.9642380
  43.8446646  81.8984123  71.0251553  45.8579704  78.6980784  77.3775559
  46.3814106  78.9443081  78.1401868  45.6392037  79.5300819  76.9578696
  41.2546985  80.9684459  65.2446684  40.9259691  80.0881838  65.0621789
  41.6086356  80.9132128  66.1323073  44.3688808  81.2557429  65.6122161
  44.7084881  81.7843350  64.8900770  44.8160929  81.5937835  66.3880728
  47.0632249  79.6394480  75.0625229  46.7229070  78.8402293  75.4645909
  46.3571256  79.9396190  74.4902062  47.7148721  76.7243792  73.5152552
  48.5374790  76.2504270  73.3931443  47.9586785  77.5034276  74.0151239
  46.3556956  79.7532050  63.8115454  47.0765318  80.1313303  63.3079171
  45.7322260  80.4720927  63.9150432  50.4988078  80.4577199  64.7473786
  50.7151693  81.3401837  64.4462614  50.0182146  80.0663413  64.0179428
  45.2387300  83.4162913  71.3244531  45.0931881  83.7303216  72.2168812
  44.7612503  84.0347813  70.7715430  47.0983683  80.4065461  71.3725420
  47.0845251  79.5106554  71.0357718  47.8156111  80.4136124  72.0063707
  48.9509813  80.8402801  73.4178548  48.6927591  81.7619872  73.4162878
  48.4194854  80.4433235  74.1079012  39.7132962  85.9568257  74.2632192
  39.1686430  86.7328065  74.3952466  40.5912312  86.3039062  74.1051314
  46.5020579  79.2879841  66.6412991  46.6236490  78.3596487  66.8403878
  46.2122621  79.3018527  65.7291306  49.3711769  76.9734751  69.7779710
  49.3933466  77.0374084  68.8231690  49.7879828  76.1339260  69.9720217
  40.4998984  85.0838153  77.1562349  39.7580720  85.2320789  77.7426979
  40.1791728  85.3446419  76.2929098  48.4442646  94.6254132  76.9542739
  48.7529773  94.3803278  77.8265439  49.2418129  94.8300770  76.4661609
  48.4663259  96.7792041  69.1848116  48.0268249  96.2868420  69.8780972
  49.2171375  96.2365009  68.9440191  40.9455598  92.9703582  69.1872744
  41.7713617  92.6707354  68.8071387  40.5949650  92.2011204  69.6362532
  39.1464203  90.8889909  70.1461677  38.3096111  90.4612083  69.9645678
  39.1187848  91.0822352  71.0832468  45.9861658  80.8011838  80.8502923
  46.0349814  81.6773961  80.4680693  46.5284172  80.2589231  80.2774566
  56.4716504  91.3452962  80.1304060  55.6812048  91.3277100  79.5908560
  56.2349858  91.8841255  80.8853097  48.2160947  81.5543211  77.6049282
  47.3464256  81.8476777  77.3331870  48.4520427  82.1383656  78.3256545
  43.2303271  86.8999151  65.7389947  42.9849313  85.9961481  65.9370157
  43.3999185  86.9016302  64.7969425  50.9199980  77.7722828  75.1214702
  51.4381924  78.5083855  74.7961191  50.5655113  78.0786821  75.9561461
  42.4998918  82.6327509  63.2376108  41.8068163  82.7071864  62.5816144
  42.2550670  81.8687852  63.7597625  51.1712575  74.1923110  70.6415599
  51.4514328  73.5246299  71.2676025  51.9563182  74.3852206  70.1290263
  53.0635812  79.6996327  74.5746575  52.4685745  79.9801340  73.8793064
  52.7785509  80.1890228  75.3463316  55.3314726  76.3698923  69.5083569
  55.1339547  76.0614011  70.3926901  55.9414432  77.0960562  69.6381499
  49.2431534  88.7560663  81.0057335  50.1634544  88.9339262  81.1997381
  49.2081117  87.8116708  80.8537034  38.4613699  83.9499257  69.9310609
  38.1416484  83.0964565  69.6384983  37.9147127  84.1647835  70.6868577
  42.2393607  86.6661698  73.6480116  42.4579616  87.5978805  73.6668150
  42.6519381  86.3069672  74.4334920  49.1597825  77.1729783  65.6355804
  48.3498553  76.8276868  66.0111050  49.8482241  76.8637327  66.2243416
  51.0888373  76.2507830  67.2580101  51.6419411  76.6703283  67.9170124
  51.3258459  75.3243578  67.3003057  47.1121472  82.2394903  83.0382865
  47.0118199  83.1889260  82.9694956  46.8943014  81.9113142  82.1658935
  46.3134543  79.4879828  59.6223542  47.1753707  79.8134727  59.8819359
  46.4984888  78.7011324  59.1096608  38.3301959  87.5702168  71.9003731
  37.6365431  87.1556121  71.3873685  39.0774950  87.6122705  71.3037150
  54.4667180  78.3608355  66.7658765  53.8865849  79.0193159  66.3836817
  54.2003113  77.5385699  66.3546183  52.9170746  77.7613413  68.9680085
  53.4170525  77.8729947  68.1594404  53.5606354  77.4574465  69.6080894
  46.9752742  85.6692042  81.8547926  46.4919824  86.4692402  82.0611815
  47.0613681  85.6799987  80.9015370  40.2438702  87.5020422  69.7769746
  40.2209390  87.6008109  68.8251629  40.5539338  88.3485573  70.0986912
  42.9026080  89.5596577  73.8916360  43.8569333  89.5280519  73.8246292
  42.7038603  89.0987201  74.7066586  43.4925462  88.1297693  76.4587158
  44.3118351  88.6241772  76.4821995  43.7662269  87.2129661  76.4304725
  53.2492058  80.5208445  65.8215113  52.3617913  80.8058096  65.6035308
  53.6646047  80.3602209  64.9742390  41.2576308  95.1016196  70.9086558
  41.1230776  94.3416597  70.3424556  40.8408371  95.8257096  70.4415347
  44.4145434  95.9985513  71.1205001  44.2977818  96.9430946  71.0183691
  43.5937880  95.6959075  71.5090800  38.7460376  82.4635827  77.1579355
  39.3919240  81.9534781  77.6466580  38.5377527  83.2004508  77.7322780
  51.2713768  89.5316674  82.6571495  52.1404928  89.7057327  82.2958130
  50.7920520  90.3511091  82.5347225  47.2663986  76.7275871  62.9103251
  47.2542656  77.6717711  63.0671522  48.1587408  76.5446017  62.6162712
  45.4399948  96.6513775  74.3360929  46.3427195  96.6837386  74.6527424
  45.2137318  95.7214226  74.3507265  47.1953550  95.4044762  70.9971008
  46.2449181  95.4046623  70.8835380  47.4986037  94.6577496  70.4807042
  51.0816106  73.3218648  67.1649188  50.3148502  72.7677135  67.3105870
  51.4926811  73.3940517  68.0263339  43.0857867  79.6103444  81.2554369
  43.9489328  79.2540249  81.4657694  42.5123278  79.2717339  81.9429773
  60.2215733 102.3467580  77.9564500  60.2104374 101.9520378  77.0845004
  60.3836373 101.6133653  78.5498272  56.9422994 105.1304692  76.9043684
  56.6512860 106.0350323  76.7890351  57.5779979 105.1721220  77.6187754
  57.8679201 102.5081540  73.4945044  58.4642773 102.2837563  72.7802007
  57.9254173 101.7666286  74.0970492  61.9012879 104.8166107  73.8993478
  61.6013602 105.7191146  73.7909285  61.5563939 104.5498291  74.7514631
  56.8833659 111.5810428  66.8664446  56.8057689 112.5318253  66.9452926
  56.2795303 111.2356300  67.5239372  59.3750889  98.7538293  79.5225813
  58.5984223  99.3132213  79.5128677  60.0141452  99.2395076  80.0440683
  57.6297261 101.5623747  79.0843780  58.3711946 102.1008791  78.8078603
  56.9234247 102.1890035  79.2415331  63.1052601 103.7052887  77.6815941
  63.5135957 103.2635298  76.9370573  62.3829862 103.1305515  77.9350134
  64.5621579 102.8468475  75.3907937  64.7738474 103.4900234  74.7142318
  64.5151327 102.0130791  74.9229867  56.3658625  98.7163395  79.8859090
  55.7357286  99.3979676  80.1194486  56.2594713  98.6046476  78.9412228
  65.6767407 105.7240430  73.5630295  66.4984851 105.3220617  73.2812976
  65.6729810 105.6208664  74.5146410  59.4424010 105.2724473  75.7191005
  59.5068443 105.7344880  76.5549177  58.7334934 104.6421838  75.8473315
  49.9441300  98.6365681  73.2440005  50.1949339  99.5212691  73.5097581
  50.4800849  98.4570283  72.4715096  55.6439368  93.0184161  82.2484341
  55.2506313  92.4650359  82.9231985  56.4605508  93.3294739  82.6390858
  53.7048667  99.6198407  78.1182827  53.5902182  98.7183664  78.4189926
  52.8493184  99.8662104  77.7667643  60.7840504 107.5616147  79.7170328
  60.3404359 106.7752526  79.3991232  61.4457718 107.7495298  79.0514218
  55.5427626 109.0911949  74.2431006  56.0935051 108.9629012  73.4708000
  54.7039102 109.3906838  73.8925899  62.8821743 107.8418947  77.7451729
  62.8640218 108.6627828  77.2531998  63.8041663 107.7173022  77.9701870
  59.3394797 105.3563077  78.5875237  59.8723133 104.5951365  78.3574545
  58.8108878 105.0636728  79.3299392  65.6840355 102.6798090  71.2161095
  65.0264030 103.3697351  71.3041224  66.4880755 103.0694522  71.5595082
  50.5976513 100.1247388  67.6068215  50.4000913  99.5316749  66.8819281
  50.0423177  99.8199599  68.3244153  67.8706925 104.2884342  72.0328681
  68.3043432 104.1959631  72.8811735  68.5838506 104.2641842  71.3948697
  61.6034820 107.8886436  73.5661782  61.6571842 108.4577372  74.3339497
  60.7349601 108.0588321  73.2015819  63.7937583 104.4814785  80.1402447
  63.6423090 104.2525337  79.2232531  63.7842263 105.4385387  80.1533792
  60.5622920 102.0546698  75.1248713  61.4914980 102.2057858  74.9517681
  60.1413950 102.1430719  74.2697360  59.3611252 106.0797363  72.8947251
  59.2222337 105.7116147  73.7673189  58.5725848 106.5945002  72.7231209
  54.8860711 100.8646595  75.8088670  54.7480509 100.1326834  76.4100209
  55.7965634 100.7755495  75.5272858  57.5143011 100.5766555  75.2972350
  58.2242630  99.9359747  75.2558968  57.4712320 100.8279449  76.2198530
  56.2271945  97.5631772  77.1167989  55.6909302  97.1122511  77.7689585
  55.6388654  97.6977681  76.3738453  54.5220489 114.3295822  71.0112648
  54.7617087 114.9614346  71.6891666  53.6789685 113.9783862  71.2978007
  65.5047197 105.4773492  76.4492908  64.6173976 105.1399414  76.5719307
  66.0745748 104.7456523  76.6861674  47.1576344 101.8097584  69.7735960
  47.8447384 101.4959314  69.1856975  47.0024473 102.7138948  69.5003211
  59.0348351 110.1374944  73.4154152  58.9618522 110.9429916  73.9273456
  58.5925744 110.3366910  72.5902173  61.4947034 110.0361778  75.5712310
  62.2075006 110.6709243  75.4988212  61.0037063 110.1325644  74.7552312
  56.5458948 107.7856222  76.3917881  57.2468407 108.4192705  76.5447275
  56.0754063 108.1270953  75.6313520  64.3460234 100.3400829  74.2170432
  63.6931684 100.5876737  73.5622884  64.7240614  99.5264967  73.8832909
  60.3947807 101.0820640  80.7036469  59.7188444 100.9814770  81.3738844
  61.2175441 100.9259854  81.1672466  52.1426666 107.3192577  73.3248984
  52.7280103 106.5736265  73.4576888  51.9451504 107.6296533  74.2085648
  46.7344321  99.8898177  72.0453427  46.7728420  99.3561768  72.8390545
  46.2284613  99.3633382  71.4264404  59.1370590 112.3887568  74.9394085
  59.6888898 112.5519189  75.7043170  59.4776783 112.9792005  74.2674109
  54.1135083  94.7362717  75.5415969  54.1776409  95.5977548  75.1293367
  54.0502203  94.1236719  74.8088328  53.5887355  96.8085850  79.1889004
  54.2159394  96.4262927  79.8026528  52.7315274  96.5900052  79.5544696
  50.3652898  98.6162279  65.1207358  50.6606339  97.7072958  65.0674412
  49.4640934  98.5950019  64.7988361  62.2738977 110.3369543  71.9257767
  62.1490116 109.5359283  71.4168712  62.9318068 110.8315737  71.4371737
  64.3373885 108.1378563  73.5537317  63.3904221 108.0183914  73.4815644
  64.6856658 107.2501061  73.6363578  50.5526716 101.2860175  74.2632192
  50.0080185 102.0619983  74.3952466  51.4306066 101.6330979  74.1051314
  51.3392738 100.4130071  77.1562349  50.5974474 100.5612706  77.7426979
  51.0185483 100.6738337  76.2929098  59.2836401 109.9546049  76.9542739
  59.5923527 109.7095196  77.8265439  60.0811883 110.1592688  76.4661609
  59.3057013 112.1083959  69.1848116  58.8662003 111.6160338  69.8780972
  60.0565130 111.5656927  68.9440191  56.7530885 107.6521968  71.2570417
  56.1310894 106.9892673  70.9572645  57.4235752 107.6783100  70.5744065
  56.8255413  96.1303756  80.8502923  56.8743568  97.0065879  80.4680693
  57.3677927  95.5881149  80.2774566  67.4308133 103.5237346  77.4436789
  67.4806138 103.3587353  78.3852312  67.3222057 102.6564605  77.0534670
  64.7211896  99.5068274  78.7596096  65.6221759  99.3674738  78.4680093
  64.7959870  99.6722728  79.6994273  67.1813518 101.0666902  76.1558868
  67.6567640 101.2594548  75.3477720  66.2579084 101.1226088  75.9102252
  53.3392673  97.9619427  63.2376108  52.6461918  98.0363781  62.5816144
  53.0944425  97.1979770  63.7597625  68.3603265 101.1638782  73.5029474
  68.3279585 100.2254782  73.6889157  68.9703889 101.2422818  72.7695298
  60.0825289 104.0852581  81.0057335  61.0028298 104.2631180  81.1997381
  60.0474872 103.1408626  80.8537034  49.3007454  99.2791174  69.9310609
  48.9810238  98.4256482  69.6384983  48.7540882  99.4939752  70.6868577
  53.0787361 101.9953615  73.6480116  53.2973371 102.9270723  73.6668150
  53.4913135 101.6361590  74.4334920  57.9515227  97.5686821  83.0382865
  57.8511953  98.5181178  82.9694956  57.7336769  97.2405060  82.1658935
  49.1695714 102.8994086  71.9003731  48.4759185 102.4848039  71.3873685
  49.9168705 102.9414622  71.3037150  57.8146497 100.9983960  81.8547926
  57.3313578 101.7984320  82.0611815  57.9007436 101.0091905  80.9015370
  53.7419834 104.8888495  73.8916360  54.6963088 104.8572437  73.8246292
  53.5432358 104.4279118  74.7066586  54.3319216 103.4589611  76.4587158
  55.1512105 103.9533689  76.4821995  54.6056024 102.5421579  76.4304725
  52.0970063 110.4308114  70.9086558  51.9624531 109.6708515  70.3424556
  51.6802125 111.1549014  70.4415347  55.2539189 111.3277431  71.1205001
  55.1371573 112.2722864  71.0183691  54.4331635 111.0250993  71.5090800
  49.5854130  97.7927745  77.1579355  50.2312994  97.2826698  77.6466580
  49.3771282  98.5296426  77.7322780  62.1107523 104.8608592  82.6571495
  62.9798682 105.0349244  82.2958130  61.6314274 105.6803009  82.5347225
  56.2793703 111.9805693  74.3360929  57.1820950 112.0129303  74.6527424
  56.0531073 111.0506144  74.3507265  58.0347305 110.7336680  70.9971008
  57.0842936 110.7338541  70.8835380  58.3379791 109.9869414  70.4807042
  53.9251621  94.9395362  81.2554369  54.7883083  94.5832166  81.4657694
  53.3517032  94.6009256  81.9429773  70.5789705 116.5224646  71.9978295
  70.2408216 116.4065711  71.1098830  71.4479473 116.1215811  71.9779301
  66.4376520 118.3760122  67.9875186  65.8741385 118.2850059  67.2191474
  66.3228915 117.5560027  68.4677678  63.9840952 119.8711314  70.8259406
  64.7762244 119.5302139  70.4105706  64.2237602 119.9806289  71.7461560
  72.0176079 122.0431090  63.2989651  71.3664059 122.6285171  62.9123664
  72.8120442 122.5737285  63.3584688  65.9431706 119.1320227  63.6976785
  66.7162582 118.5849214  63.5589661  66.2957105 119.9964477  63.9091246
  67.7816749 120.4596610  76.9043684  67.4906615 121.3642240  76.7890351
  68.4173733 120.5013137  77.6187754  68.7072956 117.8373458  73.4945044
  69.3036528 117.6129480  72.7802007  68.7647927 117.0958204  74.0970492
  68.2797984 115.2912893  61.3295235  68.5323505 114.7694415  60.5678698
  67.3422543 115.1279039  61.4321919  73.3241267 114.2948672  69.1369978
  74.1104356 113.8768095  68.7860395  73.5879971 115.1994764  69.3051627
  73.4951344 119.7321522  63.8358635  72.8597177 119.8056149  64.5479540
  73.1648751 120.3215121  63.1577714  67.9994273 117.1940999  63.5319610
  67.8830531 116.5185903  64.2000694  68.1096533 116.7073373  62.7151763
  70.3425814 116.6551146  67.2366299  69.9784021 116.1281767  67.9479221
  71.1992930 116.2649616  67.0632785  72.7406634 120.1458025  73.8993478
  72.4407357 121.0483064  73.7909285  72.3957693 119.8790208  74.7514631
  66.1919115 116.5971822  69.9330182  65.2669612 116.4648036  70.1407874
  66.4403529 117.3766041  70.4300125  69.9620522 114.1398704  63.2174314
  69.8420147 114.5855754  64.0559795  69.2673110 114.4884021  62.6587853
  63.5527926 116.2405095  70.7673972  63.6820308 116.4939574  71.6813383
  62.8725378 116.8332803  70.4478627  67.7227414 126.9102345  66.8664446
  67.6451443 127.8610171  66.9452926  67.1189057 126.5648218  67.5239372
  74.2675170 119.5945995  71.4368230  73.6384032 119.7591709  70.7344298
  73.8800832 120.0087605  72.2079194  69.8203132 119.3320403  68.7018315
  70.2841477 119.6108106  67.9122938  69.5559930 118.4303848  68.5191406
  66.7127213 118.8791885  71.6398078  67.2828570 119.3079153  71.0015563
  67.3035325 118.5974470  72.3382264  68.7572018 115.4543556  65.5107880
  69.4596061 115.9064599  65.9781807  68.4252646 114.8127375  66.1387773
  62.4997352 113.7127108  70.8125014  61.7096406 113.9684637  70.3365124
  62.9908599 114.5275446  70.9177054  64.4512097 114.0771688  67.7708490
  63.6543261 114.1890382  68.2891986  64.2237689 114.4158340  66.9049381
  70.2817765 120.6016391  75.7191005  70.3462197 121.0636798  76.5549177
  69.5728689 119.9713756  75.8473315  60.7835055 113.9657599  73.2440005
  61.0343093 114.8504609  73.5097581  61.3194603 113.7862200  72.4715096
  69.9965783 122.2684498  65.5869985  69.8611457 123.1136034  66.0154833
  70.5375595 122.4703776  64.8235919  63.4495180 119.7859936  66.1597911
  63.9619701 120.5803187  66.3103475  64.1017893 119.0886227  66.0931512
  65.2590065 122.9025693  68.2420664  65.4356693 123.8243657  68.0541648
  66.0546898 122.5884112  68.6715043  64.5442421 114.9490325  78.1182827
  64.4295936 114.0475582  78.4189926  63.6886939 115.1954021  77.7667643
  71.6234259 122.8908065  79.7170328  71.1798113 122.1044443  79.3991232
  72.2851473 123.0787215  79.0514218  66.3821380 124.4203866  74.2431006
  66.9328805 124.2920930  73.4708000  65.5432856 124.7198756  73.8925899
  73.7215497 123.1710865  77.7451729  73.7033972 123.9919746  77.2531998
  74.6435417 123.0464940  77.9701870  70.1788551 120.6854994  78.5875237
  70.7116888 119.9243282  78.3574545  69.6502632 120.3928646  79.3299392
  61.4144097 118.1148591  66.9357481  62.2519319 118.5245599  66.7191189
  61.5922364 117.1748033  66.9057675  73.3108529 115.7823671  62.6241314
  72.7955152 116.5528276  62.8629701  73.0385837 115.1088808  63.2474375
  68.6697672 108.2458445  71.0884294  69.5350669 108.0501254  70.7290183
  68.7375181 108.0168797  72.0153651  73.0994832 113.6550763  64.4501095
  72.7944968 113.9696913  65.3011238  74.0525274 113.7332183  64.4928428
  71.5441264 119.8140987  66.0994049  71.0162625 119.0793746  65.7867287
  71.0428767 120.5915663  65.8534018  69.6893864 117.6321197  59.1029022
  68.7820926 117.4010451  59.3020171  70.1864896 116.8358816  59.2903004
  72.5961943 126.3418704  62.0225708  71.9223642 126.6450401  62.6310666
  72.9827765 127.1447785  61.6731165  71.8120400 113.8383836  71.5123378
  70.8942961 114.0598783  71.3545066  72.2280543 113.9130146  70.6535085
  72.5955447 115.2375251  66.6426058  73.3427266 115.7496648  66.3333180
  72.8647037 114.9159304  67.5030452  70.8682097 117.7333792  63.6253012
  69.9593317 117.4492825  63.7225482  70.8977181 118.1532870  62.7656319
  76.1001365 121.3440381  67.3944180  75.6463692 120.5031291  67.4509370
  75.4695332 121.9801780  67.7318960  74.5434304 123.1816878  68.3293998
  74.8357279 123.7421935  67.6106364  75.0532925 123.4745439  69.0847157
  61.4370268 115.4539306  67.6068215  61.2394668 114.8608667  66.8819281
  60.8816932 115.1491516  68.3244153  69.4166992 115.3462413  69.7262808
  69.4715601 114.3936249  69.6505284  68.6058194 115.5021852  70.2104106
  70.5658185 119.2742536  60.9641091  70.1277615 118.5578395  60.5046728
  71.3068626 119.5018650  60.4026182  67.3559351 113.9639472  67.4853187
  66.5427217 114.2633643  67.8918379  67.8518346 113.5695161  68.2027669
  69.5067929 123.9597229  69.4187451  69.4644108 124.1858076  68.4895983
  70.4230628 123.7260604  69.5673252  66.8473426 111.5357828  73.1014421
  67.4872806 111.3946587  72.4037385  66.0150957 111.2492341  72.7253023
  67.6233730 120.8360258  69.2149414  68.4174329 120.3410578  69.0131989
  66.9125422 120.3078121  68.8517119  72.4428575 123.2178354  73.5661782
  72.4965597 123.7869290  74.3339497  71.5743356 123.3880239  73.2015819
  63.9316494 114.9803340  65.2909167  63.0014082 114.9187795  65.5079129
  64.0273966 114.4579293  64.4945808  65.3226968 112.9195910  75.0486233
  65.9950021 112.7113272  74.3998882  64.4956754 112.7217996  74.6091465
  70.2005006 121.4089280  72.8947251  70.0616092 121.0408065  73.7673189
  69.4119602 121.9236920  72.7231209  70.7953158 126.5098377  64.2372788
  70.9704914 126.0386420  65.0518410  70.1085946 127.1364143  64.4654048
  71.7510221 120.7870883  70.2836089  71.4160054 120.7471653  71.1793739
  71.2514167 120.1215599  69.8106499  65.7254465 116.1938513  75.8088670
  65.5874263 115.4618752  76.4100209  66.6359389 116.1047413  75.5272858
  74.6869413 118.1326917  60.5573148  74.0698584 117.4073745  60.4606201
  74.2185901 118.8936278  60.2140223  68.3536766 115.9058472  75.2972350
  69.0636384 115.2651664  75.2558968  68.3106074 116.1571367  76.2198530
  76.3423545 122.8425826  78.2178929  76.2836091 122.1585046  77.5509512
  76.7443063 123.5844816  77.7659555  65.3614243 129.6587739  71.0112648
  65.6010842 130.2906264  71.6891666  64.5183440 129.3075779  71.2978007
  66.4767959 112.3512342  59.6794453  65.5997425 112.2301142  59.3156699
  66.9525712 111.5598420  59.4273341  57.9970099 117.1389501  69.7735960
  58.6841139 116.8251231  69.1856975  57.8418228 118.0430866  69.5003211
  62.8004821 112.0279698  74.2020984  62.7163010 111.4205367  73.4671394
  61.9787527 112.5188716  74.2030480  69.8742105 125.4666862  73.4154152
  69.8012277 126.2721833  73.9273456  69.4319498 125.6658828  72.5902173
  69.6631885 124.7038632  66.9256973  68.8799407 125.2460312  67.0195198
  70.3624630 125.2212612  67.3251214  72.3340789 125.3653696  75.5712310
  73.0468761 126.0001161  75.4988212  71.8430817 125.4617562  74.7552312
  74.0558316 119.2704949  67.1429602  73.1214594 119.3906411  66.9734306
  74.2334984 118.3677415  66.8789612  69.5563504 112.6550644  69.2962863
  69.1861291 112.1021685  69.9843769  70.0522596 112.0508778  68.7437863
  67.3852702 123.1148139  76.3917881  68.0862162 123.7484622  76.5447275
  66.9147817 123.4562871  75.6313520  75.5107098 121.4566089  64.6765788
  75.7866942 121.3422684  65.5859662  74.6411597 121.0583574  64.6377961
  72.1461162 125.7052440  68.3198602  72.3283557 124.8874096  68.7826354
  72.9694148 125.9220132  67.8823492  72.4803328 124.6320625  65.5813650
  73.0091094 124.1213080  64.9683812  72.7431547 124.3163155  66.4459183
  62.9820420 122.6484494  73.3248984  63.5673857 121.9028182  73.4576888
  62.7845259 122.9588451  74.2085648  65.8359076 125.6835742  68.3411426
  65.1669451 126.1681869  67.8575466  65.6971945 125.9304962  69.2554805
  57.5738075 115.2190095  72.0453427  57.6122175 114.6853685  72.8390545
  57.0678368 114.6925300  71.4264404  69.9764344 127.7179485  74.9394085
  70.5282652 127.8811107  75.7043170  70.3170538 128.3083923  74.2674109
  64.9528837 110.0654635  75.5415969  65.0170164 110.9269466  75.1293367
  64.8895958 109.4528637  74.8088328  61.2046653 113.9454197  65.1207358
  61.5000094 113.0364875  65.0674412  60.3034688 113.9241936  64.7988361
  73.1132731 125.6661461  71.9257767  72.9883871 124.8651201  71.4168712
  73.7711823 126.1607654  71.4371737  64.7340900 112.0210193  71.1034907
  64.0127485 112.6346161  70.9642380  65.5234155 112.5567958  71.0251553
  62.9334494 111.6268294  65.2446684  62.6047200 110.7465673  65.0621789
  63.2873865 111.5715963  66.1323073  72.1814073 123.2623197  69.7541669
  72.0339036 122.3339905  69.9349239  73.0067567 123.2843288  69.2698744
  66.9174809 114.0746748  71.3244531  66.7719390 114.3887051  72.2168812
  66.4400012 114.6931648  70.7715430  68.7771192 111.0649296  71.3725420
  68.7632760 110.1690389  71.0357718  69.4943620 111.0719960  72.0063707
  75.5743511 124.6037423  66.1968633  75.7480389 124.0383846  65.4442486
  76.0672402 125.4038318  66.0148123  61.3920471 116.6152092  74.2632192
  60.8473939 117.3911900  74.3952466  62.2699821 116.9622897  74.1051314
  76.5618684 123.9204188  63.2965532  77.2569588 124.5410880  63.5152846
  76.9041834 123.0699539  63.5717909  62.1786493 115.7421989  77.1562349
  61.4368229 115.8904624  77.7426979  61.8579237 116.0030254  76.2929098
  78.4610107 121.3703893  64.8252862  78.9861431 121.7091166  64.1002182
  78.3732459 120.4350909  64.6415997  70.1230155 125.2837967  76.9542739
  70.4317282 125.0387114  77.8265439  70.9205637 125.4884605  76.4661609
  70.1450768 127.4375877  69.1848116  69.7055758 126.9452255  69.8780972
  70.8958884 126.8948844  68.9440191  62.6243106 123.6287417  69.1872744
  63.4501126 123.3291189  68.8071387  62.2737158 122.8595040  69.6362532
  67.5924640 122.9813886  71.2570417  66.9704649 122.3184591  70.9572645
  68.2629507 123.0075018  70.5744065  60.8251712 121.5473744  70.1461677
  59.9883620 121.1195918  69.9645678  60.7975357 121.7406187  71.0832468
  67.1538147 121.5317809  64.7328878  67.3026267 122.2153273  64.0795550
  67.9604590 121.5122899  65.2478333  64.9090780 117.5582987  65.7389947
  64.6636821 116.6545317  65.9370157  65.0786694 117.5600137  64.7969425
  64.1786427 113.2911344  63.2376108  63.4855672 113.3655699  62.5816144
  63.9338179 112.5271688  63.7597625  70.6533552 124.0265939  62.2040625
  70.0807519 124.6456127  61.7511097  71.2266346 124.5765301  62.7380547
  73.8730812 124.3103090  63.3349207  74.8061485 124.2448651  63.5382083
  73.7854025 125.1459356  62.8763740  76.5018829 123.6268960  60.2953155
  76.4232460 123.2928823  61.1888913  77.3228495 124.1190728  60.2944627
  71.0380351 115.3626752  59.5456678  71.9839455 115.2332960  59.6145096
  70.6594596 114.6241414  60.0226106  60.1401208 114.6083092  69.9310609
  59.8203992 113.7548400  69.6384983  59.5934636 114.8231670  70.6868577
  63.9181116 117.3245533  73.6480116  64.1367125 118.2562641  73.6668150
  64.3306890 116.9653507  74.4334920  60.0089468 118.2286003  71.9003731
  59.3152940 117.8139956  71.3873685  60.7562459 118.2706540  71.3037150
  61.9226211 118.1604257  69.7769746  61.8996899 118.2591945  68.8251629
  62.2326847 119.0069408  70.0986912  64.5813589 120.2180412  73.8916360
  65.5356842 120.1864355  73.8246292  64.3826112 119.7571036  74.7066586
  65.1712971 118.7881528  76.4587158  65.9905860 119.2825607  76.4821995
  65.4449778 117.8713496  76.4304725  62.9363817 125.7600032  70.9086558
  62.8018285 125.0000433  70.3424556  62.5195880 126.4840932  70.4415347
  74.0722780 120.9436955  59.9163133  74.7758630 121.1486958  60.5320789
  73.3485429 121.5113717  60.1812217  74.9020591 116.6946817  66.0365403
  74.8455792 117.1515368  65.1973036  75.4548933 115.9337501  65.8588246
  66.0932943 126.6569349  71.1205001  65.9765327 127.6014781  71.0183691
  65.2725389 126.3542910  71.5090800  75.9809478 121.3819484  61.9661593
  76.8155082 120.9500683  61.7839068  75.8193821 121.2101498  62.8938488
  75.6355370 117.8851598  63.3317933  75.5804174 117.7195869  62.3906377
  75.0101425 118.5927631  63.4880122  60.4247885 113.1219662  77.1579355
  61.0706749 112.6118616  77.6466580  60.2165036 113.8588344  77.7322780
  67.1187457 127.3097611  74.3360929  68.0214704 127.3421221  74.6527424
  66.8924827 126.3798062  74.3507265  68.8741059 126.0628597  70.9971008
  67.9236690 126.0630459  70.8835380  69.1773545 125.3161332  70.4807042
  77.2770275 133.7052040  67.9875186  76.7135140 133.6141977  67.2191474
  77.1622670 132.8851945  68.4677678  74.8234707 135.2003232  70.8259406
  75.6155999 134.8594056  70.4105706  75.0631357 135.3098207  71.7461560
  82.8569834 137.3723008  63.2989651  82.2057813 137.9577088  62.9123664
  83.6514196 137.9029203  63.3584688  76.7825461 134.4612145  63.6976785
  77.5556337 133.9141132  63.5589661  77.1350860 135.3256394  63.9091246
  79.1191739 130.6204811  61.3295235  79.3717259 130.0986332  60.5678698
  78.1816298 130.4570957  61.4321919  84.3345099 135.0613440  63.8358635
  83.6990932 135.1348066  64.5479540  84.0042505 135.6507039  63.1577714
  89.5643448 129.5615823  70.0402957  90.2968620 128.9915039  70.2740786
  88.8082804 129.1737423  70.4809462  78.8388027 132.5232917  63.5319610
  78.7224285 131.8477820  64.2000694  78.9490287 132.0365291  62.7151763
  81.1819568 131.9843064  67.2366299  80.8177775 131.4573685  67.9479221
  82.0386684 131.5941533  67.0632785  80.8225055 127.0132964  62.2327648
  80.9899458 127.8813200  62.5998119  80.6322224 127.1760246  61.3088937
  80.8014276 129.4690621  63.2174314  80.6813901 129.9147672  64.0559795
  80.1066864 129.8175939  62.6587853  74.3921681 131.5697013  70.7673972
  74.5214062 131.8231492  71.6813383  73.7119132 132.1624721  70.4478627
  78.5621168 142.2394263  66.8664446  78.4845198 143.1902088  66.9452926
  77.9582812 141.8940136  67.5239372  86.4999342 129.9412095  64.0454649
  87.4117198 130.1739481  63.8702346  85.9908989 130.5249139  63.4829727
  84.7840110 134.3636722  77.6815941  85.1923466 133.9219133  76.9370573
  84.0617371 133.7889350  77.9350134  88.9858156 135.8592351  68.7912594
  88.3009195 136.2391252  68.2409627  89.0702006 136.4687677  69.5244541
  86.2409088 133.5052310  75.3907937  86.4525983 134.1484070  74.7142318
  86.1938836 132.6714626  74.9229867  79.5965772 130.7835473  65.5107880
  80.2989816 131.2356517  65.9781807  79.2646401 130.1419292  66.1387773
  73.3391106 129.0419026  70.8125014  72.5490160 129.2976555  70.3365124
  73.8302354 129.8567364  70.9177054  87.3554916 136.3824265  73.5630295
  88.1772360 135.9804453  73.2812976  87.3517319 136.2792499  74.5146410
  75.2905852 129.4063605  67.7708490  74.4937015 129.5182300  68.2891986
  75.0631444 129.7450258  66.9049381  71.6228809 129.2949517  73.2440005
  71.8736848 130.1796526  73.5097581  72.1588358 129.1154118  72.4715096
  95.4460909 132.7263014  69.9115266  94.6924617 132.1570412  69.7559271
  95.5808450 132.6925678  70.8585901  80.8359537 137.5976416  65.5869985
  80.7005212 138.4427952  66.0154833  81.3769350 137.7995694  64.8235919
  74.2888934 135.1151854  66.1597911  74.8013455 135.9095104  66.3103475
  74.9411647 134.4178145  66.0931512  76.0983819 138.2317610  68.2420664
  76.2750447 139.1535575  68.0541648  76.8940653 137.9176030  68.6715043
  75.3836176 130.2782242  78.1182827  75.2689691 129.3767499  78.4189926
  74.5280693 130.5245939  77.7667643  82.4628013 138.2199983  79.7170328
  82.0191868 137.4336361  79.3991232  83.1245227 138.4079133  79.0514218
  77.2215135 139.7495784  74.2431006  77.7722560 139.6212848  73.4708000
  76.3826611 140.0490673  73.8925899  84.5609251 138.5002782  77.7451729
  84.5427727 139.3211664  77.2531998  85.4829172 138.3756858  77.9701870
  72.2537851 133.4440508  66.9357481  73.0913073 133.8537517  66.7191189
  72.4316119 132.5039951  66.9057675  84.1502283 131.1115589  62.6241314
  83.6348907 131.8820194  62.8629701  83.8779592 130.4380725  63.2474375
  89.1236557 133.8647944  64.5594487  88.3466000 133.5259103  64.1149650
  89.8028038 133.8700567  63.8849453  83.9388587 128.9842681  64.4501095
  83.6338722 129.2988830  65.3011238  84.8919029 129.0624101  64.4928428
  82.3835018 135.1432904  66.0994049  81.8556380 134.4085664  65.7867287
  81.8822521 135.9207581  65.8534018  87.3627864 133.3381925  71.2161095
  86.7051539 134.0281186  71.3041224  88.1668264 133.7278357  71.5595082
  77.4423333 127.8357032  62.4796546  76.6060645 128.1731718  62.8005821
  77.3028103 127.7006012  61.5423683  80.5287619 132.9613115  59.1029022
  79.6214680 132.7302368  59.3020171  81.0258651 132.1650734  59.2903004
  83.4355697 141.6710622  62.0225708  82.7617396 141.9742319  62.6310666
  83.8221519 142.4739702  61.6731165  81.7075852 133.0625710  63.6253012
  80.7987071 132.7784742  63.7225482  81.7370936 133.4824788  62.7656319
  86.9395119 136.6732299  67.3944180  86.4857446 135.8323209  67.4509370
  86.3089086 137.3093697  67.7318960  85.3828059 138.5108796  68.3293998
  85.6751033 139.0713853  67.6106364  85.8926679 138.8037357  69.0847157
  72.2764022 130.7831224  67.6068215  72.0788422 130.1900584  66.8819281
  71.7210686 130.4783434  68.3244153  81.4051940 134.6034453  60.9641091
  80.9671370 133.8870312  60.5046728  82.1462381 134.8310568  60.4026182
  80.3461684 139.2889147  69.4187451  80.3037863 139.5149993  68.4895983
  81.2624383 139.0552521  69.5673252  89.5225055 132.8791650  67.0217409
  89.3842953 133.0693246  66.0938599  89.1661273 133.6411033  67.4785461
  89.5494434 134.9468177  72.0328681  89.9830941 134.8543466  72.8811735
  90.2626015 134.9225678  71.3948697  78.4627485 136.1652176  69.2149414
  79.2568083 135.6702496  69.0131989  77.7519177 135.6370039  68.8517119
  74.7710248 130.3095258  65.2909167  73.8407836 130.2479713  65.5079129
  74.8667720 129.7871210  64.4945808  90.4109984 134.9891878  74.5661566
  90.6045874 135.8937688  74.8120841  90.3110602 134.5299297  75.4000151
  85.4725092 135.1398621  80.1402447  85.3210599 134.9109172  79.2232531
  85.4629772 136.0969222  80.1533792  81.6346913 141.8390294  64.2372788
  81.8098668 141.3678338  65.0518410  80.9479701 142.4656061  64.4654048
  85.5263167 133.4618835  60.5573148  84.9092338 132.7365663  60.4606201
  85.0579656 134.2228195  60.2140223  87.1817299 138.1717743  78.2178929
  87.1229845 137.4876963  77.5509512  87.5836817 138.9136733  77.7659555
  76.2007998 144.9879657  71.0112648  76.4404596 145.6198181  71.6891666
  75.3577194 144.6367697  71.2978007  77.3161713 127.6804259  59.6794453
  76.4391180 127.5593060  59.3156699  77.7919466 126.8890338  59.4273341
  87.1834706 136.1357327  76.4492908  86.2961485 135.7983249  76.5719307
  87.7533257 135.4040358  76.6861674  68.8363853 132.4681419  69.7735960
  69.5234893 132.1543149  69.1856975  68.6811982 133.3722784  69.5003211
  80.7135860 140.7958780  73.4154152  80.6406031 141.6013751  73.9273456
  80.2713253 140.9950745  72.5902173  80.5025639 140.0330550  66.9256973
  79.7193161 140.5752230  67.0195198  81.2018385 140.5504529  67.3251214
  91.6652047 131.5465545  71.2109470  91.6541923 132.4290260  70.8403403
  90.7969426 131.1937095  71.0164007  83.1734543 140.6945614  75.5712310
  83.8862515 141.3293078  75.4988212  82.6824572 140.7909480  74.7552312
  84.8952070 134.5996866  67.1429602  83.9608349 134.7198329  66.9734306
  85.0728739 133.6969333  66.8789612  88.2824621 130.4414186  67.6779636
  88.7485074 131.2742177  67.6039939  88.7332122 129.9759167  68.3824895
  78.2246457 138.4440057  76.3917881  78.9255916 139.0776540  76.5447275
  77.7541572 138.7854789  75.6313520  86.3500853 136.7858007  64.6765788
  86.6260696 136.6714601  65.5859662  85.4805351 136.3875492  64.6377961
  86.0247743 130.9984664  74.2170432  85.3719193 131.2460572  73.5622884
  86.4028123 130.1848803  73.8832909  82.9854917 141.0344358  68.3198602
  83.1677311 140.2166014  68.7826354  83.8087903 141.2512050  67.8823492
  83.3197082 139.9612543  65.5813650  83.8484849 139.4504997  64.9683812
  83.5825302 139.6455073  66.4459183  73.8214175 137.9776412  73.3248984
  74.4067612 137.2320100  73.4576888  73.6239013 138.2880369  74.2085648
  76.6752830 141.0127659  68.3411426  76.0063205 141.4973787  67.8575466
  76.5365700 141.2596880  69.2554805  68.4131830 130.5482012  72.0453427
  68.4515929 130.0145603  72.8390545  67.9072122 130.0217218  71.4264404
  80.8158099 143.0471403  74.9394085  81.3676407 143.2103024  75.7043170
  81.1564292 143.6375841  74.2674109  75.2674864 127.4669685  79.1889004
  75.8946903 127.0846763  79.8026528  74.4102783 127.2483887  79.5544696
  85.6668973 137.8732661  80.7942739  86.2108877 138.4862619  80.2997694
  85.0855818 138.4312239  81.3109752  72.0440407 129.2746114  65.1207358
  72.3393848 128.3656793  65.0674412  71.1428443 129.2533854  64.7988361
  83.9526486 140.9953379  71.9257767  83.8277625 140.1943118  71.4168712
  84.6105577 141.4899572  71.4371737  86.0161394 138.7962399  73.5537317
  85.0691730 138.6767750  73.4815644  86.3644167 137.9084897  73.6363578
  73.7728249 126.9560212  65.2446684  73.4440955 126.0757591  65.0621789
  74.1267619 126.9007881  66.1323073  83.0207828 138.5915115  69.7541669
  82.8732790 137.6631822  69.9349239  83.8461321 138.6135206  69.2698744
  76.8870072 127.2433182  65.6122161  77.2266144 127.7719103  64.8900770
  77.3342192 127.5813588  66.3880728  86.6241949 139.4143674  70.8406542
  87.5488497 139.2086535  70.7030993  86.4557253 139.1660075  71.7495883
  78.8738219 125.7407804  63.8115454  79.5946582 126.1189056  63.3079171
  78.2503523 126.4596680  63.9150432  83.0169342 126.4452952  64.7473786
  83.2332956 127.3277590  64.4462614  82.5363409 126.0539166  64.0179428
  86.4137266 139.9329341  66.1968633  86.5874143 139.3675763  65.4442486
  86.9066157 140.7330236  66.0148123  72.2314225 131.9444010  74.2632192
  71.6867694 132.7203818  74.3952466  73.1093575 132.2914815  74.1051314
  92.2676657 132.6965764  67.8158933  92.7107803 131.9473089  67.4178056
  91.3903167 132.6875900  67.4332665  87.4012438 139.2496105  63.2965532
  88.0963343 139.8702798  63.5152846  87.7435588 138.3991457  63.5717909
  73.0180247 131.0713906  77.1562349  72.2761983 131.2196542  77.7426979
  72.6972992 131.3322172  76.2929098  89.3003861 136.6995811  64.8252862
  89.8255185 137.0383084  64.1002182  89.2126214 135.7642826  64.6415997
  80.9623910 140.6129885  76.9542739  81.2711036 140.3679031  77.8265439
  81.7599392 140.8176523  76.4661609  80.9844522 142.7667794  69.1848116
  80.5449512 142.2744173  69.8780972  81.7352639 142.2240762  68.9440191
  73.4636861 138.9579335  69.1872744  74.2894881 138.6583107  68.8071387
  73.1130913 138.1886958  69.6362532  78.4318394 138.3105803  71.2570417
  77.8098403 137.6476508  70.9572645  79.1023261 138.3366935  70.5744065
  71.6645466 136.8765662  70.1461677  70.8277374 136.4487836  69.9645678
  71.6369111 137.0698105  71.0832468  78.5042922 126.7887591  80.8502923
  78.5531077 127.6649714  80.4680693  79.0465436 126.2464984  80.2774566
  88.9897767 137.3328715  80.1304060  88.1993311 137.3152853  79.5908560
  88.7531122 137.8717008  80.8853097  89.1095642 134.1821181  77.4436789
  89.1593647 134.0171188  78.3852312  89.0009566 133.3148440  77.0534670
  77.9931901 136.8609727  64.7328878  78.1420021 137.5445191  64.0795550
  78.7998345 136.8414817  65.2478333  90.6113839 136.6018122  77.6878810
  90.3198648 136.9648103  78.5242271  89.9985970 135.8885131  77.5092142
  91.8109522 134.1671002  70.2081381  92.6456413 134.6060806  70.3718941
  91.9468650 133.6909655  69.3889626  88.8601027 131.7250737  76.1558868
  89.3355149 131.9178383  75.3477720  87.9366593 131.7809923  75.9102252
  75.7484534 132.8874904  65.7389947  75.5030576 131.9837234  65.9370157
  75.9180449 132.8892055  64.7969425  75.0180182 128.6203262  63.2376108
  74.3249427 128.6947617  62.5816144  74.7731933 127.8563605  63.7597625
  81.4927307 139.3557857  62.2040625  80.9201274 139.9748044  61.7511097
  82.0660100 139.9057219  62.7380547  84.7124566 139.6395007  63.3349207
  85.6455240 139.5740569  63.5382083  84.6247779 140.4751274  62.8763740
  87.3412583 138.9560878  60.2953155  87.2626215 138.6220741  61.1888913
  88.1622250 139.4482645  60.2944627  90.0390774 131.8222617  73.5029474
  90.0067094 130.8838618  73.6889157  90.6491398 131.9006654  72.7695298
  81.8774105 130.6918670  59.5456678  82.8233210 130.5624878  59.6145096
  81.4988350 129.9533332  60.0226106  90.1885263 128.6133660  73.5487757
  89.6724311 127.8292117  73.3617686  91.0725211 128.2852377  73.7134276
  95.8567324 132.8838624  72.6435510  96.5870713 132.6223912  73.2043214
  95.2474270 132.1467346  72.6837578  93.9382621 131.0246486  73.2409962
  93.2115785 130.8902451  72.6326453  93.5229908 131.3323315  74.0466680
  80.0617022 128.6168646  59.4811563  79.1548478 128.3201759  59.5574276
  80.3393003 128.3198464  58.6145849  70.9794963 129.9375010  69.9310609
  70.6597747 129.0840318  69.6384983  70.4328391 130.1523588  70.6868577
  74.7574870 132.6537451  73.6480116  74.9760880 133.5854558  73.6668150
  75.1700644 132.2945425  74.4334920  79.6302735 128.2270656  83.0382865
  79.5299462 129.1765013  82.9694956  79.4124278 127.8988895  82.1658935
  78.8315807 125.4755581  59.6223542  79.6934971 125.8010480  59.8819359
  79.0166151 124.6887077  59.1096608  70.8483223 133.5577921  71.9003731
  70.1546694 133.1431874  71.3873685  71.5956214 133.5998458  71.3037150
  72.7619965 133.4896175  69.7769746  72.7390653 133.5883862  68.8251629
  73.0720602 134.3361326  70.0986912  75.4207343 135.5472330  73.8916360
  76.3750597 135.5156272  73.8246292  75.2219867 135.0862954  74.7066586
  85.7673321 126.5084198  65.8215113  84.8799176 126.7933849  65.6035308
  86.1827310 126.3477962  64.9742390  73.7757572 141.0891949  70.9086558
  73.6412040 140.3292350  70.3424556  73.3589634 141.8132849  70.4415347
  84.9116535 136.2728873  59.9163133  85.6152385 136.4778875  60.5320789
  84.1879184 136.8405635  60.1812217  85.7414345 132.0238734  66.0365403
  85.6849547 132.4807286  65.1973036  86.2942688 131.2629419  65.8588246
  89.5519151 127.8128466  66.8615523  89.2956085 127.4125102  67.6923731
  88.9272019 128.5272260  66.7365662  93.8631489 130.5524539  69.3686814
  93.3031047 130.6217729  70.1418376  93.2574992 130.3765524  68.6486311
  76.9326698 141.9861266  71.1205001  76.8159082 142.9306699  71.0183691
  76.1119144 141.6834828  71.5090800  86.8203232 136.7111402  61.9661593
  87.6548836 136.2792601  61.7839068  86.6587575 136.5393416  62.8938488
  86.4749124 133.2143515  63.3317933  86.4197928 133.0487787  62.3906377
  85.8495180 133.9219548  63.4880122  71.2641639 128.4511580  77.1579355
  71.9100503 127.9410534  77.6466580  71.0558791 129.1880262  77.7322780
  83.7895032 135.5192427  82.6571495  84.6586191 135.6933080  82.2958130
  83.3101783 136.3386844  82.5347225  79.7845250 122.7151624  62.9103251
  79.7723920 123.6593464  63.0671522  80.6768672 122.5321770  62.6162712
  77.9581212 142.6389528  74.3360929  78.8608459 142.6713139  74.6527424
  77.7318582 141.7089979  74.3507265  79.7134814 141.3920515  70.9971008
  78.7630445 141.3922377  70.8835380  80.0167300 140.6453249  70.4807042
  75.6039130 125.5979197  81.2554369  76.4670592 125.2416002  81.4657694
  75.0304541 125.2593092  81.9429773  95.4487507 147.2281053  72.0616770
  96.0865917 147.1087801  71.3580110  95.3308350 148.1761897  72.1204722
  92.2577214 147.1808481  71.9978295  91.9195725 147.0649546  71.1098830
  93.1266982 146.7799646  71.9779301  88.1164029 149.0343958  67.9875186
  87.5528894 148.9433895  67.2191474  88.0016424 148.2143862  68.4677678
  92.7396997 148.3343333  77.9564500  92.7285637 147.9396131  77.0845004
  92.9017636 147.6009406  78.5498272  85.6628461 150.5295149  70.8259406
  86.4549753 150.1885974  70.4105706  85.9025111 150.6390124  71.7461560
  87.6219215 149.7904063  63.6976785  88.3950091 149.2433050  63.5589661
  87.9744614 150.6548312  63.9091246  90.3860465 148.4957293  73.4945044
  90.9824037 148.2713316  72.7802007  90.4435436 147.7542039  74.0970492
  89.9585493 145.9496729  61.3295235  90.2111014 145.4278250  60.5678698
  89.0210052 145.7862874  61.4321919  95.0028776 144.9532507  69.1369978
  95.7891865 144.5351930  68.7860395  95.2667480 145.8578599  69.3051627
  95.1738853 150.3905357  63.8358635  94.5384686 150.4639984  64.5479540
  94.8436260 150.9798956  63.1577714 100.4037203 144.8907740  70.0402957
 101.1362375 144.3206957  70.2740786  99.6476559 144.5029341  70.4809462
  89.6781782 147.8524835  63.5319610  89.5618040 147.1769738  64.2000694
  89.7884042 147.3657209  62.7151763  92.0213323 147.3134982  67.2366299
  91.6571530 146.7865603  67.9479221  92.8780439 146.9233451  67.0632785
  97.9262623 138.6029314  74.4997565  97.5945948 139.4724725  74.2758780
  97.3308237 138.2865598  75.1791596  91.6618810 142.3424882  62.2327648
  91.8293212 143.2105118  62.5998119  91.4715979 142.5052163  61.3088937
  94.4194143 150.8041860  73.8993478  94.1194866 151.7066899  73.7909285
  94.0745202 150.5374044  74.7514631  87.8706624 147.2555657  69.9330182
  86.9457121 147.1231871  70.1407874  88.1191038 148.0349877  70.4300125
  97.8191287 143.3224401  71.5790915  96.9108164 143.2539809  71.2849676
  97.7678882 143.7996346  72.4072741  91.6408031 144.7982539  63.2174314
  91.5207656 145.2439590  64.0559795  90.9460619 145.1467857  62.6587853
  85.2315435 146.8988931  70.7673972  85.3607817 147.1523410  71.6813383
  84.5512887 147.4916639  70.4478627  91.8932152 144.7414046  79.5225813
  91.1165486 145.3007966  79.5128677  92.5322715 145.2270829  80.0440683
  99.6852933 141.5240839  73.3568789  99.0427313 141.8173372  72.7108584
  99.1807862 141.4093759  74.1621986  97.3393097 145.2704012  64.0454649
  98.2510953 145.5031399  63.8702346  96.8302744 145.8541056  63.4829727
  90.1478525 147.5499500  79.0843780  90.8893209 148.0884544  78.8078603
  89.4415510 148.1765788  79.2415331  95.6233864 149.6928640  77.6815941
  96.0317220 149.2511051  76.9370573  94.9011126 149.1181268  77.9350134
  91.9764934 144.6301247  75.0549498  92.8226130 145.0540660  75.1984147
  91.9163572 143.9734871  75.7488061  95.9462679 150.2529831  71.4368230
  95.3171541 150.4175545  70.7344298  95.5588341 150.6671440  72.2079194
  95.1264380 142.2905615  76.7130672  94.8825312 143.0447676  76.1764947
  95.4024310 142.6690963  77.5477919  97.0802842 148.8344228  75.3907937
  97.2919738 149.4775987  74.7142318  97.0332591 148.0006544  74.9229867
  94.6829071 141.4462048  72.2944509  93.8213550 141.7443302  72.5861247
  94.7091506 141.6632447  71.3625542  91.4990641 149.9904239  68.7018315
  91.9628986 150.2691942  67.9122938  91.2347439 149.0887683  68.5191406
  88.3914722 149.5375720  71.6398078  88.9616079 149.9662989  71.0015563
  88.9822834 149.2558305  72.3382264  90.4359527 146.1127391  65.5107880
  91.1383570 146.5648435  65.9781807  90.1040155 145.4711210  66.1387773
  88.8839888 144.7039148  79.8859090  88.2538549 145.3855429  80.1194486
  88.7775976 144.5922229  78.9412228  84.1784861 144.3710944  70.8125014
  83.3883915 144.6268472  70.3365124  84.6696108 145.1859282  70.9177054
  86.1299606 144.7355523  67.7708490  85.3330770 144.8474217  68.2891986
  85.9025198 145.0742175  66.9049381  91.9605274 151.2600226  75.7191005
  92.0249706 151.7220633  76.5549177  91.2516198 150.6297591  75.8473315
  82.4622564 144.6241434  73.2440005  82.7130602 145.5088444  73.5097581
  82.9982112 144.4446036  72.4715096  88.1620631 139.0059914  82.2484341
  87.7687577 138.4526112  82.9231985  88.9786771 139.3170492  82.6390858
  91.0788592 140.4217793  79.8404597  91.8198306 141.0224946  79.7609060
  91.3106515 139.6795430  79.2822640  86.2229930 145.6074160  78.1182827
  86.1083445 144.7059417  78.4189926  85.3674448 145.8537857  77.7667643
  91.8576060 151.3438830  78.5875237  92.3904397 150.5827118  78.3574545
  91.3290141 151.0512481  79.3299392  95.0245755 136.4498896  74.1168879
  94.6810024 137.3400537  74.0407989  95.3924718 136.2600553  73.2538464
  83.0931606 148.7732426  66.9357481  83.9306828 149.1829434  66.7191189
  83.2709873 147.8331868  66.9057675  94.9896038 146.4407507  62.6241314
  94.4742661 147.2112111  62.8629701  94.7173346 145.7672643  63.2474375
  92.5743149 141.2857208  67.6826552  91.7184745 140.8964058  67.5032191
  92.9870101 141.3649168  66.8226338  94.1042295 138.8203551  72.0818112
  93.6007091 138.7833686  71.2685917  94.3972902 139.7296293  72.1414769
  90.3485181 138.9042280  71.0884294  91.2138178 138.7085089  70.7290183
  90.4162690 138.6752632  72.0153651  94.7782341 144.3134599  64.4501095
  94.4732477 144.6280748  65.3011238  95.7312783 144.3916019  64.4928428
  93.2228773 150.4724822  66.0994049  92.6950134 149.7377582  65.7867287
  92.7216276 151.2499498  65.8534018  98.2021619 148.6673843  71.2161095
  97.5445293 149.3573104  71.3041224  99.0062018 149.0570275  71.5595082
  87.9547500 141.1344488  68.4600661  88.5291252 140.9119670  67.7273854
  88.5418483 141.2033183  69.2129262  97.0127078 147.0218215  69.2665037
  97.5258959 147.6548207  69.7686747  97.6628302 146.4219411  68.9008397
  88.2817088 143.1648949  62.4796546  87.4454400 143.5023636  62.8005821
  88.1421857 143.0297929  61.5423683  90.2570168 138.0085737  67.1875730
  89.6034581 137.6934754  66.5632345  90.2150642 137.3861478  67.9135553
  91.3681373 148.2905032  59.1029022  90.4608435 148.0594286  59.3020171
  91.8652405 147.4942652  59.2903004  93.4907909 144.4967671  71.5123378
  92.5730470 144.7182618  71.3545066  93.9068052 144.5713981  70.6535085
  94.2742956 145.8959087  66.6426058  95.0214775 146.4080484  66.3333180
  94.5434546 145.5743139  67.5030452  92.5469606 148.3917627  63.6253012
  91.6380826 148.1076660  63.7225482  92.5764690 148.8116706  62.7656319
  96.7221793 142.9316203  68.6244847  95.9844550 142.4193589  68.9555090
  96.9748567 142.4916584  67.8128124  96.8233421 135.7092455  69.2186617
  97.1292298 134.8489818  68.9312532  97.5486026 136.3010075  69.0185610
  83.1157777 146.1123141  67.6068215  82.9182177 145.5192502  66.8819281
  82.5604441 145.8075352  68.3244153  91.0954501 146.0046248  69.7262808
  91.1503110 145.0520084  69.6505284  90.2845703 146.1605687  70.2104106
  92.2445694 149.9326371  60.9641091  91.8065124 149.2162230  60.5046728
  92.9856135 150.1602486  60.4026182  89.0346860 144.6223308  67.4853187
  88.2214726 144.9217478  67.8918379  89.5305855 144.2278996  68.2027669
  94.6321072 145.0865132  76.3168080  94.9870460 145.3136605  77.1762546
  95.2793203 145.4183509  75.6945336 100.3618809 148.2083568  67.0217409
 100.2236708 148.3985164  66.0938599 100.0055028 148.9702951  67.4785461
  88.5260935 142.1941663  73.1014421  89.1660315 142.0530422  72.4037385
  87.6938466 141.9076177  72.7253023  89.3021239 151.4944094  69.2149414
  90.0961838 150.9994414  69.0131989  88.5912931 150.9661957  68.8517119
  85.6104003 145.6387175  65.2909167  84.6801591 145.5771631  65.5079129
  85.7061475 145.1163128  64.4945808  85.5289552 142.1641988  67.8787408
  85.7896369 143.0787321  67.7696569  86.3506724 141.6966431  68.0284021
  87.0014477 143.5779745  75.0486233  87.6737530 143.3697107  74.3998882
  86.1744263 143.3801831  74.6091465  92.9040049 140.2041686  77.0651894
  92.2567964 140.9031636  76.9716370  93.6741064 140.6377830  77.4328142
  96.3118847 150.4690538  80.1402447  96.1604353 150.2401090  79.2232531
  96.3023526 151.4261140  80.1533792  93.0804183 148.0422451  75.1248713
  94.0096243 148.1933611  74.9517681  92.6595213 148.1306472  74.2697360
  93.4297730 151.4454718  70.2836089  93.0947563 151.4055488  71.1793739
  92.9301676 150.7799434  69.8106499  87.4041974 146.8522348  75.8088670
  87.2661772 146.1202587  76.4100209  88.3146898 146.7631248  75.5272858
  96.3656922 148.7910753  60.5573148  95.7486093 148.0657581  60.4606201
  95.8973410 149.5520113  60.2140223  90.0324275 146.5642308  75.2972350
  90.7423893 145.9235500  75.2558968  89.9893583 146.8155202  76.2198530
  88.7453209 143.5507525  77.1167989  88.2090566 143.0998264  77.7689585
  88.1569917 143.6853434  76.3738453  88.1555468 143.0096177  59.6794453
  87.2784934 142.8884978  59.3156699  88.6313221 142.2182255  59.4273341
  84.4792330 142.6863533  74.2020984  84.3950519 142.0789203  73.4671394
  83.6575036 143.1772551  74.2030480  94.6516044 141.1717097  69.5691179
  95.1484743 140.4187059  69.2492249  93.8803025 141.2081413  69.0034388
 102.5045801 146.8757462  71.2109470 102.4935678 147.7582178  70.8403403
 101.6363181 146.5229013  71.0164007  95.7345825 149.9288784  67.1429602
  94.8002103 150.0490246  66.9734306  95.9122493 149.0261251  66.8789612
  91.2351013 143.3134480  69.2962863  90.8648800 142.7605520  69.9843769
  91.7310105 142.7092613  68.7437863  99.1218376 145.7706103  67.6779636
  99.5878828 146.6034095  67.6039939  99.5725876 145.3051085  68.3824895
  97.0935039 138.1386690  71.7170538  96.1798119 138.3690917  71.8852744
  97.5228140 138.2225134  72.5684570  96.8641497 146.3276582  74.2170432
  96.2112947 146.5752490  73.5622884  97.2421877 145.5140720  73.8832909
  92.9129070 147.0696393  80.7036469  92.2369707 146.9690523  81.3738844
  93.7356704 146.9135607  81.1672466  79.2525584 145.8773930  72.0453427
  79.2909684 145.3437521  72.8390545  78.7465877 145.3509135  71.4264404
  86.6316346 140.7238470  75.5415969  86.6957673 141.5853301  75.1293367
  86.5683467 140.1112472  74.8088328  86.1068619 142.7961603  79.1889004
  86.7340658 142.4138680  79.8026528  85.2496538 142.5775805  79.5544696
  82.8834162 144.6038032  65.1207358  83.1787603 143.6948711  65.0674412
  81.9822197 144.5825772  64.7988361  86.4128409 142.6794029  71.1034907
  85.6914994 143.2929996  70.9642380  87.2021664 143.2151794  71.0251553
  89.2154722 140.0148455  77.3775559  89.7389124 140.2610752  78.1401868
  88.9967055 140.8468490  76.9578696  84.6122003 142.2852130  65.2446684
  84.2834709 141.4049509  65.0621789  84.9661374 142.2299798  66.1323073
  87.7263826 142.5725100  65.6122161  88.0659899 143.1011021  64.8900770
  88.1735947 142.9105506  66.3880728  90.4207267 140.9562150  75.0625229
  90.0804088 140.1569963  75.4645909  89.7146273 141.2563861  74.4902062
  91.0723739 138.0411463  73.5152552  91.8949808 137.5671941  73.3931443
  91.3161803 138.8201946  74.0151239  89.7131974 141.0699721  63.8115454
  90.4340336 141.4480974  63.3079171  89.0897278 141.7888598  63.9150432
  93.8563096 141.7744870  64.7473786  94.0726711 142.6569508  64.4462614
  93.3757164 141.3831084  64.0179428  88.5962318 144.7330583  71.3244531
  88.4506899 145.0470886  72.2168812  88.1187521 145.3515484  70.7715430
  90.4558701 141.7233131  71.3725420  90.4420269 140.8274225  71.0357718
  91.1731129 141.7303795  72.0063707  92.3084831 142.1570472  73.4178548
  92.0502609 143.0787542  73.4162878  91.7769872 141.7600906  74.1079012
  83.0707980 147.2735928  74.2632192  82.5261448 148.0495736  74.3952466
  83.9487330 147.6206732  74.1051314  89.8595597 140.6047512  66.6412991
  89.9811508 139.6764158  66.8403878  89.5697639 140.6186198  65.7291306
  92.7286787 138.2902422  69.7779710  92.7508484 138.3541755  68.8231690
  93.1454846 137.4506931  69.9720217  83.8574002 146.4005824  77.1562349
  83.1155738 146.5488459  77.7426979  83.5366746 146.6614090  76.2929098
  89.3436676 142.1179509  80.8502923  89.3924832 142.9941632  80.4680693
  89.8859190 141.5756902  80.2774566  99.9489397 149.5113099  77.4436789
  99.9987402 149.3463106  78.3852312  99.8403320 148.6440358  77.0534670
  97.2393159 145.4944027  78.7596096  98.1403022 145.3550492  78.4680093
  97.3141134 145.6598481  79.6994273  91.5735965 142.8710881  77.6049282
  90.7039274 143.1644447  77.3331870  91.8095445 143.4551326  78.3256545
  99.6994782 147.0542655  76.1558868 100.1748904 147.2470301  75.3477720
  98.7760347 147.1101841  75.9102252  86.5878289 148.2166822  65.7389947
  86.3424330 147.3129152  65.9370157  86.7574203 148.2183972  64.7969425
  94.2774998 139.0890498  75.1214702  94.7956942 139.8251525  74.7961191
  93.9230131 139.3954492  75.9561461  85.8573936 143.9495180  63.2376108
  85.1643181 144.0239535  62.5816144  85.6125688 143.1855523  63.7597625
  94.5287593 135.5090781  70.6415599  94.8089346 134.8413970  71.2676025
  95.3138200 135.7019876  70.1290263  98.3996451 143.9308415  74.3887174
  99.3513874 144.0306513  74.4099398  98.2299901 143.1386683  74.8985258
  96.4210830 141.0163998  74.5746575  95.8260763 141.2969011  73.8793064
  96.1360527 141.5057899  75.3463316 100.8784529 147.1514535  73.5029474
 100.8460849 146.2130535  73.6889157 101.4885152 147.2298571  72.7695298
  92.7167860 146.0210588  59.5456678  93.6626964 145.8916796  59.6145096
  92.3382105 145.2825249  60.0226106 101.0279017 143.9425578  73.5487757
 100.5118066 143.1584035  73.3617686 101.9118966 143.6144295  73.7134276
  98.6889744 137.6866594  69.5083569  98.4914565 137.3781682  70.3926901
  99.2989450 138.4128232  69.6381499  92.6006552 150.0728334  81.0057335
  93.5209562 150.2506933  81.1997381  92.5656135 149.1284379  80.8537034
  90.9010777 143.9460564  59.4811563  89.9942232 143.6493677  59.5574276
  91.1786758 143.6490382  58.6145849  81.8188717 145.2666927  69.9310609
  81.4991501 144.4132236  69.6384983  81.2722145 145.4815505  70.6868577
  85.5968625 147.9829368  73.6480116  85.8154634 148.9146476  73.6668150
  86.0094398 147.6237343  74.4334920  92.5172842 138.4897454  65.6355804
  91.7073571 138.1444539  66.0111050  93.2057259 138.1804997  66.2243416
  94.4463391 137.5675500  67.2580101  94.9994429 137.9870954  67.9170124
  94.6833477 136.6411249  67.3003057  90.4696490 143.5562574  83.0382865
  90.3693217 144.5056931  82.9694956  90.2518032 143.2280813  82.1658935
  89.6709561 140.8047499  59.6223542  90.5328725 141.1302397  59.8819359
  89.8559906 140.0178995  59.1096608  81.6876977 148.8869839  71.9003731
  80.9940449 148.4723792  71.3873685  82.4349968 148.9290375  71.3037150
  97.8242198 139.6776026  66.7658765  97.2440867 140.3360830  66.3836817
  97.5578131 138.8553370  66.3546183  96.2745764 139.0781083  68.9680085
  96.7745543 139.1897618  68.1594404  96.9181372 138.7742136  69.6080894
  90.3327760 146.9859713  81.8547926  89.8494842 147.7860073  82.0611815
  90.4188699 146.9967658  80.9015370  83.6013720 148.8188093  69.7769746
  83.5784408 148.9175780  68.8251629  83.9114356 149.6653243  70.0986912
  86.8500480 149.4465364  76.4587158  87.6693369 149.9409442  76.4821995
  87.1237287 148.5297332  76.4304725  96.6067076 141.8376116  65.8215113
  95.7192931 142.1225767  65.6035308  97.0221065 141.6769879  64.9742390
  99.9581612 141.8622637  69.5369453 100.7342002 142.3519089  69.8094069
  99.2329746 142.2880691  69.9941322 102.3954171 142.5750256  70.5943393
 102.9898661 142.3345992  69.8836701 102.4680754 141.8557387  71.2216929
  95.7510289 151.6020791  59.9163133  96.4546139 151.8070793  60.5320789
  95.0272938 152.1697553  60.1812217  96.5808100 147.3530652  66.0365403
  96.5243301 147.8099203  65.1973036  97.1336442 146.5921337  65.8588246
 100.3912906 143.1420384  66.8615523 100.1349840 142.7417019  67.6923731
  99.7665774 143.8564178  66.7365662 104.7025243 145.8816457  69.3686814
 104.1424801 145.9509646  70.1418376 104.0968747 145.7057442  68.6486311
  97.3142879 148.5435433  63.3317933  97.2591683 148.3779705  62.3906377
  96.6888934 149.2511466  63.4880122  82.1035394 143.7803498  77.1579355
  82.7494257 143.2702452  77.6466580  81.8952545 144.5172179  77.7322780
  94.6288786 150.8484345  82.6571495  95.4979946 151.0224997  82.2958130
  94.1495538 151.6678762  82.5347225  90.6239004 138.0443542  62.9103251
  90.6117674 138.9885382  63.0671522  91.5162426 137.8613688  62.6162712
  94.4391124 134.6386319  67.1649188  93.6723520 134.0844806  67.3105870
  94.8501829 134.7108188  68.0263339  86.4432885 140.9271115  81.2554369
  87.3064346 140.5707919  81.4657694  85.8698296 140.5885009  81.9429773
  19.5731227  16.9299752  58.7862077  20.2109637  16.8106500  58.0825417
  19.4552070  17.8780596  58.8450029  16.3820933  16.8827180  58.7223601
  16.0439445  16.7668245  57.8344136  17.2510702  16.4818345  58.7024608
  12.2407749  18.7362657  54.7120492  11.6772614  18.6452594  53.9436780
  12.1260144  17.9162561  55.1922985  16.8640716  18.0362032  64.6809807
  16.8529357  17.6414830  63.8090311  17.0261356  17.3028105  65.2743578
   9.7872181  20.2313848  57.5504713  10.5793473  19.8904673  57.1351012
  10.0268831  20.3408823  58.4706866  17.8207308  22.4033624  50.0234957
  17.1695288  22.9887705  49.6368971  18.6151671  22.9339819  50.0829995
  11.7462935  19.4922762  50.4222092  12.5193811  18.9451749  50.2834967
  12.0988334  20.3567011  50.6336553  13.5847978  20.8199144  63.6288991
  13.2937844  21.7244775  63.5135657  14.2204962  20.8615671  64.3433061
  14.5104184  18.1975992  60.2190351  15.1067757  17.9732015  59.5047314
  14.5679156  17.4560738  60.8215798  14.0829213  15.6515428  48.0540542
  14.3354734  15.1296949  47.2924005  13.1453772  15.4881573  48.1567225
  19.1272496  14.6551206  55.8615285  19.9135585  14.2370629  55.5105702
  19.3911200  15.5597298  56.0296933  19.2982573  20.0924056  50.5603942
  18.6628406  20.1658683  51.2724846  18.9679979  20.6817655  49.8823021
  24.5280923  14.5926439  56.7648263  25.2606095  14.0225656  56.9986093
  23.7720278  14.2048040  57.2054769  13.8025502  17.5543534  50.2564917
  13.6861760  16.8788437  50.9246001  13.9127761  17.0675908  49.4397070
  16.1457042  17.0153681  53.9611606  15.7815250  16.4884302  54.6724527
  17.0024158  16.6252150  53.7878091  22.0506343   8.3048013  61.2242872
  21.7189668   9.1743424  61.0004087  21.4551957   7.9884297  61.9036902
  15.7862529  12.0443580  48.9572954  15.9536932  12.9123817  49.3243425
  15.5959699  12.2070862  48.0334244  18.5437863  20.5060559  60.6238785
  18.2438586  21.4085598  60.5154592  18.1988922  20.2392743  61.4759938
  11.9950344  16.9574356  56.6575489  11.0700841  16.8250570  56.8653181
  12.2434757  17.7368575  57.1545431  21.9435006  13.0243099  58.3036222
  21.0351884  12.9558508  58.0094983  21.8922602  13.5015044  59.1318047
  15.7651750  14.5001238  49.9419621  15.6451376  14.9458289  50.7805101
  15.0704339  14.8486556  49.3833159   9.3559155  16.6007630  57.4919278
   9.4851536  16.8542109  58.4058690   8.6756606  17.1935338  57.1723933
  13.5258642  27.2704880  53.5909752  13.4482672  28.2212705  53.6698233
  12.9220286  26.9250752  54.2484679  16.0175872  14.4432745  66.2471119
  15.2409206  15.0026665  66.2373984  16.6566435  14.9289528  66.7685989
  23.8096653  11.2259538  60.0814096  23.1671033  11.5192071  59.4353890
  23.3051581  11.1112458  60.8867293  21.4636817  14.9722711  50.7699955
  22.3754673  15.2050098  50.5947653  20.9546464  15.5559755  50.2075034
  14.2722245  17.2518198  65.8089086  15.0136929  17.7903242  65.5323910
  13.5659230  17.8784487  65.9660638  19.7477584  19.3947339  64.4061248
  20.1560940  18.9529749  63.6615880  19.0254846  18.8199966  64.6595441
  16.1008654  14.3319946  61.7794805  16.9469849  14.7559359  61.9229454
  16.0407292  13.6753570  62.4733368  20.0706399  19.9548530  58.1613537
  19.4415261  20.1194244  57.4589604  19.6832061  20.3690139  58.9324501
  23.9495631  20.8902967  55.5157900  23.2646669  21.2701869  54.9654934
  24.0339480  21.4998294  56.2489848  19.2508100  11.9924314  63.4375978
  19.0069031  12.7466375  62.9010254  19.5268030  12.3709662  64.2723225
  21.2046562  18.5362926  62.1153244  21.4163458  19.1794686  61.4387625
  21.1576311  17.7025243  61.6475174  18.8072791  11.1480747  59.0189816
  17.9457270  11.4462001  59.3106554  18.8335226  11.3651146  58.0870849
  15.6234361  19.6922938  55.4263622  16.0872706  19.9710641  54.6368244
  15.3591159  18.7906382  55.2436712  12.5158442  19.2394419  58.3643385
  13.0859799  19.6681688  57.7260869  13.1066554  18.9577004  59.0627571
  14.5603247  15.8146090  52.2353187  15.2627290  16.2667134  52.7027113
  14.2283875  15.1729909  52.8633080  13.0083608  14.4057847  66.6104396
  12.3782269  15.0874127  66.8439793  12.9019696  14.2940928  65.6657534
  22.3192390  21.4134882  60.2875601  23.1409834  21.0115069  60.0058283
  22.3154793  21.3103116  61.2391717  10.2543326  14.4374222  54.4953797
   9.4574489  14.5492916  55.0137293  10.0268918  14.7760874  53.6294688
  16.0848994  20.9618925  62.4436312  16.1493426  21.4239332  63.2794484
  15.3759918  20.3316290  62.5718622  30.4098383  17.7573630  56.6360573
  29.6562092  17.1881028  56.4804577  30.5445925  17.7236295  57.5831207
  15.7997011  22.6287033  52.3115292  15.6642686  23.4738568  52.7400140
  16.3406824  22.8306310  51.5481226   9.2526409  20.1462471  52.8843217
   9.7650929  20.9405721  53.0348782   9.9049122  19.4488761  52.8176819
  11.0621293  23.2628227  54.9665970  11.2387922  24.1846192  54.7786954
  11.8578127  22.9486646  55.3960350  10.3473650  15.3092859  64.8428134
  10.2327165  14.4078116  65.1435232   9.4918168  15.5556556  64.4912950
  17.4265488  23.2510599  66.4415634  16.9829342  22.4646978  66.1236539
  18.0882701  23.4389750  65.7759525  12.1852609  24.7806401  60.9676313
  12.7360034  24.6523464  60.1953307  11.3464085  25.0801290  60.6171205
  19.5246726  23.5313399  64.4697035  19.5065201  24.3522280  63.9777305
  20.4466646  23.4067474  64.6947177  15.9819780  21.0457529  65.3120544
  16.5148117  20.2845817  65.0819852  15.4533861  20.7531180  66.0544698
   7.2175326  18.4751125  53.6602788   8.0550548  18.8848133  53.4436495
   7.3953593  17.5350567  53.6302982  19.1139758  16.1426206  49.3486621
  18.5986381  16.9130810  49.5875008  18.8417066  15.4691342  49.9719682
  16.6986869  10.9875906  54.4071859  15.8428465  10.5982757  54.2277498
  17.1113820  11.0667867  53.5471645  24.0874032  18.8958560  51.2839794
  23.3103475  18.5569720  50.8394956  24.7665513  18.9011183  50.6094759
  18.9026061  14.0153298  51.1746402  18.5976196  14.3299447  52.0256545
  19.8556503  14.0934718  51.2173735  17.3472493  20.1743521  52.8239356
  16.8193854  19.4396281  52.5112593  16.8459995  20.9518197  52.5779324
  22.3265339  18.3692541  57.9406402  21.6689013  19.0591803  58.0286531
  23.1305738  18.7588973  58.2840388  21.1370798  16.7236914  55.9910344
  21.6502679  17.3566906  56.4932054  21.7872021  16.1238110  55.6253704
  12.4060807  12.8667648  49.2041853  11.5698120  13.2042335  49.5251127
  12.2665577  12.7316628  48.2668990  15.4925093  17.9923731  45.8274329
  14.5852155  17.7612985  46.0265478  15.9896125  17.1961351  46.0148310
  18.3993172  26.7021238  48.7471015  17.7254871  27.0052935  49.3555973
  18.7858994  27.5050319  48.3976472  17.6151628  14.1986370  58.2368684
  16.6974190  14.4201317  58.0790372  18.0311772  14.2732680  57.3780392
  18.3986676  15.5977785  53.3671365  19.1458495  16.1099183  53.0578487
  18.6678266  15.2761838  54.2275758  16.6713326  18.0936326  50.3498319
  15.7624546  17.8095359  50.4470789  16.7008410  18.5135405  49.4901626
  21.9032594  21.7042916  54.1189487  21.4494921  20.8633826  54.1754677
  21.2726560  22.3404314  54.4564267  20.8465513  12.6334902  55.3490154
  20.1088270  12.1212288  55.6800397  21.0992287  12.1935283  54.5373431
  20.3465533  23.5419412  55.0539305  20.6388507  24.1024469  54.3351670
  20.8564154  23.8347973  55.8092464  15.2198220  15.7064947  56.4508114
  15.2746830  14.7538783  56.3750591  14.4089422  15.8624386  56.9349413
  16.3689414  19.6345070  47.6886398  15.9308844  18.9180929  47.2292035
  17.1099855  19.8621185  47.1271489  13.1590580  14.3242006  54.2098493
  12.3458446  14.6236177  54.6163685  13.6549574  13.9297695  54.9272975
  15.3099158  24.3199763  56.1432758  15.2675337  24.5460610  55.2141290
  16.2261857  24.0863138  56.2918559  18.7564792  14.7883831  63.0413387
  19.1114180  15.0155304  63.9007853  19.4036923  15.1202208  62.4190642
  24.4862529  17.9102267  53.7462716  24.3480427  18.1003863  52.8183905
  24.1298748  18.6721650  54.2030767  24.5131908  19.9778794  58.7573988
  24.9468415  19.8854083  59.6057042  25.2263489  19.9536294  58.1194004
  13.4264959  21.1962792  55.9394721  14.2205557  20.7013113  55.7377296
  12.7156651  20.6680656  55.5762426  18.2459803  23.5780888  60.2907088
  18.2996826  24.1471824  61.0584804  17.3774585  23.7482773  59.9261125
   9.7347722  15.3405874  52.0154473   8.8045310  15.2790330  52.2324435
   9.8305194  14.8181827  51.2191115  25.3747458  20.0202494  61.2906873
  25.5683348  20.9248305  61.5366148  25.2748076  19.5609914  62.1245458
  17.0283769   9.9060385  63.7897200  16.3811684  10.6050335  63.6961677
  17.7984784  10.3396529  64.1573449  20.4362567  20.1709237  66.8647754
  20.2848073  19.9419789  65.9477837  20.4267246  21.1279839  66.8779099
  17.2047903  17.7441150  61.8494020  18.1339963  17.8952310  61.6762987
  16.7838933  17.8325171  60.9942667  16.0036235  21.7691814  59.6192558
  15.8647321  21.4010599  60.4918496  15.2150831  22.2839454  59.4476515
  16.5984387  26.8700911  50.9618094  16.7736143  26.3988954  51.7763717
  15.9117175  27.4966677  51.1899355  17.5541450  21.1473417  57.0081395
  17.2191283  21.1074187  57.9039045  17.0545396  20.4818133  56.5351806
  11.5285694  16.5541047  62.5333977  11.3905492  15.8221286  63.1345516
  12.4390617  16.4649947  62.2518164  20.4900642  18.4929451  47.2818455
  19.8729812  17.7676280  47.1851508  20.0217130  19.2538812  46.9385529
  14.1567995  16.2661006  62.0217656  14.8667613  15.6254199  61.9804275
  14.1137303  16.5173901  62.9443837  22.1454773  23.2028360  64.9424235
  22.0867320  22.5187580  64.2754818  22.5474292  23.9447350  64.4904861
  12.8696929  13.2526224  63.8413296  12.3334286  12.8016963  64.4934892
  12.2813637  13.3872133  63.0983760  11.1645472  30.0190274  57.7357954
  11.4042070  30.6508798  58.4136973  10.3214669  29.6678314  58.0223314
  22.1472181  21.1667944  63.1738215  21.2598959  20.8293866  63.2964614
  22.7170732  20.4350975  63.4106981  15.6773334  25.8269396  60.1399458
  15.6043506  26.6324368  60.6518763  15.2350727  26.0261362  59.3147480
  15.4663114  25.0641166  53.6502280  14.6830636  25.6062846  53.7440504
  16.1655859  25.5815146  54.0496521  18.7759764  10.8735796  56.2936485
  19.2728463  10.1205758  55.9737556  18.0046745  10.9100112  55.7279695
  26.6289521  16.5776161  57.9354777  26.6179397  17.4600877  57.5648710
  25.7606901  16.2247712  57.7409314  18.1372018  25.7256230  62.2957617
  18.8499990  26.3603695  62.2233518  17.6462046  25.8220096  61.4797619
  19.8589544  19.6307483  53.8674909  18.9245823  19.7508945  53.6979613
  20.0366213  18.7279950  53.6034919  15.3594733  13.0153179  56.0208170
  14.9892520  12.4624219  56.7089075  15.8553825  12.4111312  55.4683170
  23.2462096  15.4724802  54.4024943  23.7122548  16.3052794  54.3285245
  23.6969596  15.0069784  55.1070201  13.1883931  23.4750674  63.1163188
  13.8893391  24.1087157  63.2692582  12.7179046  23.8165405  62.3558827
  21.3138327  21.8168623  51.4011095  21.5898171  21.7025218  52.3104969
  20.4442826  21.4186108  51.3623268  21.2178759   7.8405389  58.4415844
  20.3041838   8.0709616  58.6098051  21.6471860   7.9243833  59.2929877
  20.9885217  16.0295281  60.9415738  20.3356667  16.2771188  60.2868191
  21.3665597  15.2159419  60.6078215  17.9492391  26.0654974  55.0443908
  18.1314785  25.2476630  55.5071661  18.7725377  26.2822666  54.6068798
  18.2834556  24.9923159  52.3058957  18.8122323  24.4815614  51.6929119
  18.5462776  24.6765690  53.1704490  17.0372790  16.7715092  67.4281775
  16.3613427  16.6709221  68.0984150  17.8600424  16.6154306  67.8917772
   8.7851649  23.0087029  60.0494290   9.3705086  22.2630717  60.1822195
   8.5876488  23.3190985  60.9330954  11.6390304  26.0438276  55.0656733
  10.9700680  26.5284404  54.5820773  11.5003174  26.2907496  55.9800111
  15.7795573  28.0782020  61.6639391  16.3313881  28.2413641  62.4288476
  16.1201766  28.6686457  60.9919416  20.6306447  22.9043277  67.5188046
  21.1746351  23.5173235  67.0243000  20.0493292  23.4622855  68.0355059
  18.9163960  26.0263995  58.6503073  18.7915100  25.2253735  58.1414019
  19.5743051  26.5210188  58.1617043  20.9798869  23.8273015  60.2782623
  20.0329204  23.7078366  60.2060950  21.3281642  22.9395513  60.3608885
  17.9845302  23.6225731  56.4786976  17.8370264  22.6942439  56.6594546
  18.8098795  23.6445822  55.9944051  21.5879424  24.4454290  57.5651848
  22.5125971  24.2397151  57.4276300  21.4194727  24.1970691  58.4741190
  17.9806816  11.4763569  51.4719093  18.1970431  12.3588207  51.1707921
  17.5000883  11.0849782  50.7424735  12.7206038  14.4349282  58.0489838
  12.5750618  14.7489585  58.9414119  12.2431241  15.0534183  57.4960736
  16.4328551  11.8589170  60.1423855  16.1746329  12.7806241  60.1408185
  15.9013592  11.4619605  60.8324319  21.3774740  24.9639958  52.9213940
  21.5511618  24.3986380  52.1687792  21.8703631  25.7640852  52.7393430
   7.1951700  16.9754627  60.9877499   6.6505168  17.7514435  61.1197773
   8.0731050  17.3225431  60.8296620  27.2314131  17.7276380  54.5404240
  27.6745277  16.9783706  54.1423363  26.3540641  17.7186517  54.1577972
  22.3649912  24.2806722  50.0210838  23.0600817  24.9013415  50.2398153
  22.7073063  23.4302073  50.2963216   7.9817722  16.1024523  63.8807656
   7.2399458  16.2507158  64.4672286   7.6610466  16.3632789  63.0174405
  24.2641336  21.7306427  51.5498169  24.7892660  22.0693700  50.8247489
  24.1763688  20.7953443  51.3661304  15.9261384  25.6440501  63.6788046
  16.2348511  25.3989648  64.5510745  16.7236866  25.8487140  63.1906916
  15.9481996  27.7978411  55.9093422  15.5086987  27.3054789  56.6026279
  16.6990113  27.2551378  55.6685497   8.4274335  23.9889952  55.9118050
   9.2532355  23.6893723  55.5316694   8.0768387  23.2197574  56.3607839
  13.3955868  23.3416420  57.9815724  12.7735878  22.6787125  57.6817952
  14.0660735  23.3677552  57.2989372   6.6282940  21.9076278  56.8706984
   5.7914849  21.4798452  56.6890985   6.6006586  22.1008721  57.8077775
  23.9535242  22.3639331  66.8549367  23.1630785  22.3463470  66.3153866
  23.7168596  22.9027625  67.6098404  24.0733117  19.2131797  64.1682095
  24.1231122  19.0481805  65.1097618  23.9647040  18.3459057  63.7779976
  12.9569375  21.8920343  51.4574184  13.1057496  22.5755808  50.8040857
  13.7635819  21.8725433  51.9723640  21.3636879  15.1962726  65.4841402
  22.2646742  15.0569190  65.1925400  21.4384854  15.3617180  66.4239580
  15.6979684  12.5729580  64.3294589  14.8282994  12.8663146  64.0577177
  15.9339165  13.1570025  65.0501852  25.5751314  21.6328739  64.4124117
  25.2836122  21.9958720  65.2487578  24.9623445  20.9195747  64.2337449
  26.7746996  19.1981619  56.9326687  27.6093887  19.6371423  57.0964248
  26.9106125  18.7220272  56.1134933  23.8238502  16.7561354  62.8804175
  24.2992623  16.9489000  62.0723026  22.9004067  16.8120539  62.6347559
  10.7122008  17.9185521  52.4635253  10.4668050  17.0147851  52.6615463
  10.8817923  17.9202671  51.5214731  18.4018718   8.7909197  61.8460009
  18.9200662   9.5270224  61.5206497  18.0473851   9.0973190  62.6806768
  16.4564781  24.3868474  48.9285932  15.8838748  25.0058661  48.4756404
  17.0297575  24.9367835  49.4625854  22.5240171  13.6327114  61.1132481
  23.4757594  13.7325211  61.1344705  22.3543621  12.8405382  61.6230565
  20.5454550  10.7182697  61.2991882  19.9504482  10.9987710  60.6038370
  20.2604247  11.2076598  62.0708623  19.6762041  24.6705624  50.0594514
  20.6092714  24.6051185  50.2627390  19.5885254  25.5061891  49.6009047
  22.3050057  23.9871494  47.0198462  22.2263689  23.6531358  47.9134220
  23.1259724  24.4793262  47.0189934  25.0028249  16.8533233  60.2274780
  24.9704569  15.9149234  60.4134464  25.6128872  16.9317270  59.4940605
  16.8411579  15.7229286  46.2701984  17.7870684  15.5935494  46.3390402
  16.4625824  14.9843948  46.7471412  25.1522737  13.6444277  60.2733063
  24.6361786  12.8602733  60.0862992  26.0362686  13.3162993  60.4379583
  22.8133464   7.3885292  56.2328876  22.6158285   7.0800381  57.1172208
  23.4233170   8.1146931  56.3626806  30.8204798  17.9149240  59.3680817
  31.5508187  17.6534528  59.9288520  30.2111744  17.1777962  59.4082885
  28.9020096  16.0557103  59.9655268  28.1753259  15.9213068  59.3571760
  28.4867382  16.3633931  60.7711986  16.7250272  19.7747033  67.7302641
  17.6453281  19.9525632  67.9242688  16.6899855  18.8303078  67.5782341
  15.0254497  13.6479263  46.2056870  14.1185952  13.3512375  46.2819583
  15.3030478  13.3509081  45.3391156   9.7212344  17.6848067  60.3725422
   9.9398354  18.6165175  60.3913456  10.1338118  17.3256042  61.1580226
  14.5940210  13.2581273  69.7628171  14.4936937  14.2075630  69.6940262
  14.3761752  12.9299512  68.8904241   5.8120697  18.5888538  58.6249038
   5.1184168  18.1742490  58.1118992   6.5593688  18.6309074  58.0282456
  21.9485918   9.3794724  53.4904072  21.3684587  10.0379528  53.1082124
  21.6821850   8.5572069  53.0791489  20.3989484   8.7799782  55.6925392
  20.8989262   8.8916317  54.8839711  21.0425092   8.4760835  56.3326200
  14.4571480  16.6878412  68.5793233  13.9738562  17.4878772  68.7857122
  14.5432419  16.6986357  67.6260677   7.7257439  18.5206791  56.5015052
   7.7028128  18.6194479  55.5496935   8.0358076  19.3671942  56.8232219
  10.3844817  20.5782946  60.6161667  11.3388071  20.5466889  60.5491598
  10.1857341  20.1173570  61.4311893  10.9744199  19.1484063  63.1832464
  11.7937088  19.6428141  63.2067302  11.2481007  18.2316031  63.1550032
  20.7310796  11.5394815  52.5460420  19.8436651  11.8244465  52.3280615
  21.1464785  11.3788578  51.6987697  24.0825332  11.5641336  56.2614759
  24.8585722  12.0537788  56.5339376  23.3573466  11.9899390  56.7186629
  26.5197890  12.2768955  57.3188700  27.1142381  12.0364691  56.6082008
  26.5924474  11.5576086  57.9462236   8.7395046  26.1202566  57.6331865
   8.6049514  25.3602967  57.0669863   8.3227108  26.8443466  57.1660654
  19.8754009  21.3039490  46.6408440  20.5789859  21.5089492  47.2566096
  19.1516658  21.8716251  46.9057523  20.7051819  17.0549351  52.7610710
  20.6487021  17.5117902  51.9218343  21.2580162  16.2940035  52.5833553
  24.5156625  12.8439083  53.5860830  24.2593560  12.4435718  54.4169037
  23.8909493  13.5582877  53.4610969  28.8268963  15.5835156  56.0932121
  28.2668521  15.6528345  56.8663683  28.2212467  15.4076141  55.3731617
  11.8964172  27.0171883  57.8450307  11.7796556  27.9617315  57.7428998
  11.0756618  26.7145445  58.2336107  21.7840707  21.7422019  48.6906900
  22.6186310  21.3103217  48.5084375  21.6225049  21.5704032  49.6183794
  21.4386599  18.2454132  50.0563239  21.3835403  18.0798403  49.1151683
  20.8132654  18.9530165  50.2125429  18.7532506  20.5503044  69.3816802
  19.6223666  20.7243696  69.0203437  18.2739257  21.3697461  69.2592531
  12.9218686  27.6700145  61.0606236  13.8245933  27.7023755  61.3772731
  12.6956056  26.7400596  61.0752572  14.6772288  26.4231131  57.7216314
  13.7267919  26.4232993  57.6080687  14.9804774  25.6763866  57.2052349
  30.4124982  32.2591670  58.7862077  31.0503392  32.1398417  58.0825417
  30.2945825  33.2072514  58.8450029  27.2214688  32.2119098  58.7223601
  26.8833199  32.0960163  57.8344136  28.0904456  31.8110263  58.7024608
  23.0801504  34.0654574  54.7120492  22.5166369  33.9744511  53.9436780
  22.9653899  33.2454479  55.1922985  27.7034471  33.3653950  64.6809807
  27.6923112  32.9706748  63.8090311  27.8655110  32.6320022  65.2743578
  20.6265936  35.5605766  57.5504713  21.4187227  35.2196591  57.1351012
  20.8662586  35.6700741  58.4706866  28.6601062  37.7325542  50.0234957
  28.0089042  38.3179622  49.6368971  29.4545425  38.2631737  50.0829995
  22.5856689  34.8214679  50.4222092  23.3587565  34.2743666  50.2834967
  22.9382088  35.6858929  50.6336553  24.4241732  36.1491061  63.6288991
  24.1331598  37.0536692  63.5135657  25.0598716  36.1907589  64.3433061
  25.3497939  33.5267910  60.2190351  25.9461511  33.3023932  59.5047314
  25.4072910  32.7852655  60.8215798  24.9222967  30.9807345  48.0540542
  25.1748488  30.4588867  47.2924005  23.9847526  30.8173491  48.1567225
  29.9666250  29.9843124  55.8615285  30.7529339  29.5662547  55.5105702
  30.2304954  30.8889216  56.0296933  30.1376327  35.4215974  50.5603942
  29.5022160  35.4950600  51.2724846  29.8073734  36.0109573  49.8823021
  35.3674677  29.9218357  56.7648263  36.0999849  29.3517574  56.9986093
  34.6114033  29.5339957  57.2054769  24.6419256  32.8835451  50.2564917
  24.5255514  32.2080355  50.9246001  24.7521516  32.3967825  49.4397070
  26.9850797  32.3445598  53.9611606  26.6209004  31.8176219  54.6724527
  27.8417913  31.9544067  53.7878091  32.8900098  23.6339931  61.2242872
  32.5583422  24.5035342  61.0004087  32.2945711  23.3176215  61.9036902
  26.6256284  27.3735498  48.9572954  26.7930686  28.2415734  49.3243425
  26.4353453  27.5362780  48.0334244  29.3831617  35.8352477  60.6238785
  29.0832340  36.7377516  60.5154592  29.0382677  35.5684660  61.4759938
  22.8344099  32.2866274  56.6575489  21.9094595  32.1542488  56.8653181
  23.0828512  33.0660493  57.1545431  32.7828761  28.3535017  58.3036222
  31.8745638  28.2850426  58.0094983  32.7316357  28.8306962  59.1318047
  26.6045505  29.8293156  49.9419621  26.4845130  30.2750206  50.7805101
  25.9098093  30.1778473  49.3833159  20.1952910  31.9299547  57.4919278
  20.3245291  32.1834026  58.4058690  19.5150361  32.5227255  57.1723933
  24.3652397  42.5996797  53.5909752  24.2876427  43.5504622  53.6698233
  23.7614041  42.2542670  54.2484679  26.8569627  29.7724663  66.2471119
  26.0802961  30.3318583  66.2373984  27.4960190  30.2581446  66.7685989
  34.6490407  26.5551456  60.0814096  34.0064788  26.8483989  59.4353890
  34.1445336  26.4404376  60.8867293  32.3030571  30.3014629  50.7699955
  33.2148427  30.5342015  50.5947653  31.7940218  30.8851673  50.2075034
  25.1115999  32.5810116  65.8089086  25.8530683  33.1195160  65.5323910
  24.4052984  33.2076405  65.9660638  30.5871339  34.7239257  64.4061248
  30.9954695  34.2821667  63.6615880  29.8648600  34.1491884  64.6595441
  26.9402409  29.6611863  61.7794805  27.7863604  30.0851277  61.9229454
  26.8801046  29.0045488  62.4733368  30.9100153  35.2840447  58.1613537
  30.2809016  35.4486161  57.4589604  30.5225815  35.6982057  58.9324501
  34.7889385  36.2194885  55.5157900  34.1040423  36.5993786  54.9654934
  34.8733235  36.8290212  56.2489848  30.0901854  27.3216232  63.4375978
  29.8462786  28.0758292  62.9010254  30.3661785  27.7001579  64.2723225
  32.0440317  33.8654844  62.1153244  32.2557212  34.5086604  61.4387625
  31.9970065  33.0317161  61.6475174  29.6466546  26.4772665  59.0189816
  28.7851025  26.7753918  59.3106554  29.6728980  26.6943064  58.0870849
  26.4628115  35.0214855  55.4263622  26.9266461  35.3002558  54.6368244
  26.1984913  34.1198300  55.2436712  23.3552196  34.5686337  58.3643385
  23.9253553  34.9973605  57.7260869  23.9460308  34.2868922  59.0627571
  25.3997001  31.1438008  52.2353187  26.1021045  31.5959051  52.7027113
  25.0677630  30.5021827  52.8633080  23.8477363  29.7349764  66.6104396
  23.2176023  30.4166045  66.8439793  23.7413451  29.6232846  65.6657534
  19.1422335  29.4021560  57.5370320  18.3521389  29.6579089  57.0610431
  19.6333583  30.2169898  57.6422361  33.1586145  36.7426799  60.2875601
  33.9803588  36.3406987  60.0058283  33.1548548  36.6395034  61.2391717
  21.0937081  29.7666140  54.4953797  20.2968244  29.8784834  55.0137293
  20.8662673  30.1052792  53.6294688  26.9242748  36.2910843  62.4436312
  26.9887181  36.7531250  63.2794484  26.2153672  35.6608208  62.5718622
  17.4260038  29.6552051  59.9685311  17.6768077  30.5399061  60.2342887
  17.9619587  29.4756652  59.1960403  41.2492138  33.0865548  56.6360573
  40.4955846  32.5172946  56.4804577  41.3839679  33.0528212  57.5831207
  26.6390766  37.9578950  52.3115292  26.5036441  38.8030486  52.7400140
  27.1800578  38.1598228  51.5481226  23.1258105  24.0370530  68.9729647
  22.7325051  23.4836729  69.6477292  23.9424246  24.3481109  69.3636165
  20.0920163  35.4754388  52.8843217  20.6044684  36.2697639  53.0348782
  20.7442876  34.7780679  52.8176819  21.9015048  38.5920145  54.9665970
  22.0781676  39.5138109  54.7786954  22.6971881  38.2778564  55.3960350
  26.0426066  25.4528409  66.5649904  26.7835780  26.0535562  66.4854366
  26.2743989  24.7106047  66.0067946  21.1867404  30.6384776  64.8428134
  21.0720920  29.7370034  65.1435232  20.3311922  30.8848473  64.4912950
  28.2659242  38.5802517  66.4415634  27.8223096  37.7938895  66.1236539
  28.9276456  38.7681667  65.7759525  23.0246363  40.1098318  60.9676313
  23.5753789  39.9815382  60.1953307  22.1857839  40.4093207  60.6171205
  30.3640480  38.8605317  64.4697035  30.3458956  39.6814198  63.9777305
  31.2860400  38.7359392  64.6947177  26.8213534  36.3749446  65.3120544
  27.3541871  35.6137734  65.0819852  26.2927616  36.0823098  66.0544698
  29.9883229  21.4809512  60.8414186  29.6447499  22.3711154  60.7653296
  30.3562192  21.2911170  59.9783771  18.0569080  33.8043043  53.6602788
  18.8944302  34.2140051  53.4436495  18.2347348  32.8642485  53.6302982
  29.9533512  31.4718123  49.3486621  29.4380136  32.2422728  49.5875008
  29.6810821  30.7983259  49.9719682  27.5380623  26.3167824  54.4071859
  26.6822220  25.9274674  54.2277498  27.9507575  26.3959785  53.5471645
  29.0679770  23.8514167  58.8063419  28.5644565  23.8144302  57.9931224
  29.3610377  24.7606910  58.8660075  25.3122656  23.9352897  57.8129601
  26.1775652  23.7395706  57.4535490  25.3800165  23.7063249  58.7398957
  34.9267786  34.2250478  51.2839794  34.1497229  33.8861637  50.8394956
  35.6059267  34.2303101  50.6094759  29.7419815  29.3445215  51.1746402
  29.4369951  29.6591365  52.0256545  30.6950257  29.4226635  51.2173735
  28.1866247  35.5035439  52.8239356  27.6587609  34.7688198  52.5112593
  27.6853750  36.2810115  52.5779324  33.1659093  33.6984459  57.9406402
  32.5082768  34.3883721  58.0286531  33.9699492  34.0880891  58.2840388
  22.9184975  26.1655105  55.1845967  23.4928727  25.9430286  54.4519160
  23.5055957  26.2343799  55.9374569  31.9764552  32.0528832  55.9910344
  32.4896434  32.6858824  56.4932054  32.6265776  31.4530027  55.6253704
  23.2454562  28.1959566  49.2041853  22.4091874  28.5334253  49.5251127
  23.1059332  28.0608546  48.2668990  25.2207642  23.0396354  53.9121037
  24.5672055  22.7245371  53.2877652  25.1788117  22.4172094  54.6380860
  26.3318847  33.3215649  45.8274329  25.4245909  33.0904902  46.0265478
  26.8289879  32.5253268  46.0148310  29.2386926  42.0313156  48.7471015
  28.5648625  42.3344853  49.3555973  29.6252748  42.8342236  48.3976472
  28.4545383  29.5278287  58.2368684  27.5367944  29.7493234  58.0790372
  28.8705526  29.6024598  57.3780392  29.2380431  30.9269703  53.3671365
  29.9852250  31.4391100  53.0578487  29.5072020  30.6053756  54.2275758
  27.5107081  33.4228244  50.3498319  26.6018300  33.1387277  50.4470789
  27.5402165  33.8427322  49.4901626  32.7426348  37.0334833  54.1189487
  32.2888675  36.1925743  54.1754677  32.1120315  37.6696232  54.4564267
  31.6859268  27.9626819  55.3490154  30.9482025  27.4504206  55.6800397
  31.9386041  27.5227201  54.5373431  31.1859287  38.8711330  55.0539305
  31.4782262  39.4316387  54.3351670  31.6957908  39.1639891  55.8092464
  31.7870895  20.7403071  55.9431923  32.0929772  19.8800435  55.6557838
  32.5123500  21.3320692  55.7430917  18.0795251  31.1433758  54.3313521
  17.8819651  30.5503119  53.6064588  17.5241915  30.8385968  55.0489460
  26.0591975  31.0356864  56.4508114  26.1140585  30.0830701  56.3750591
  25.2483177  31.1916304  56.9349413  27.2083169  34.9636987  47.6886398
  26.7702599  34.2472846  47.2292035  27.9493609  35.1913102  47.1271489
  23.9984335  29.6533924  54.2098493  23.1852200  29.9528095  54.6163685
  24.4943329  29.2589613  54.9272975  26.1492913  39.6491681  56.1432758
  26.1069091  39.8752527  55.2141290  27.0655611  39.4155056  56.2918559
  29.5958546  30.1175749  63.0413387  29.9507934  30.3447222  63.9007853
  30.2430678  30.4494125  62.4190642  35.3256283  33.2394185  53.7462716
  35.1874182  33.4295780  52.8183905  34.9692502  34.0013567  54.2030767
  23.4898410  27.2252280  59.8259728  24.1297789  27.0841039  59.1282691
  22.6575940  26.9386793  59.4498330  35.3525663  35.3070712  58.7573988
  35.7862170  35.2146001  59.6057042  36.0657244  35.2828212  58.1194004
  24.2658713  36.5254710  55.9394721  25.0599312  36.0305030  55.7377296
  23.5550406  35.9972573  55.5762426  29.0853558  38.9072806  60.2907088
  29.1390580  39.4763742  61.0584804  28.2168339  39.0774691  59.9261125
  20.5741477  30.6697792  52.0154473  19.6439065  30.6082247  52.2324435
  20.6698949  30.1473745  51.2191115  20.4927026  27.1952605  54.6032715
  20.7533843  28.1097938  54.4941875  21.3144198  26.7277047  54.7529328
  21.9651951  28.6090362  61.7731539  22.6375005  28.4007724  61.1244188
  21.1381738  28.4112448  61.3336772  36.2141213  35.3494412  61.2906873
  36.4077103  36.2540223  61.5366148  36.1141831  34.8901831  62.1245458
  27.8677523  25.2352303  63.7897200  27.2205438  25.9342252  63.6961677
  28.6378539  25.6688447  64.1573449  31.2756321  35.5001155  66.8647754
  31.1241828  35.2711707  65.9477837  31.2661001  36.4571756  66.8779099
  28.0441658  33.0733068  61.8494020  28.9733718  33.2244227  61.6762987
  27.6232688  33.1617088  60.9942667  26.8429989  37.0983732  59.6192558
  26.7041075  36.7302516  60.4918496  26.0544586  37.6131372  59.4476515
  27.4378141  42.1992829  50.9618094  27.6129897  41.7280872  51.7763717
  26.7510929  42.8258595  51.1899355  28.3935205  36.4765335  57.0081395
  28.0585037  36.4366105  57.9039045  27.8939150  35.8110051  56.5351806
  22.3679449  31.8832965  62.5333977  22.2299246  31.1513204  63.1345516
  23.2784372  31.7941865  62.2518164  31.3294396  33.8221369  47.2818455
  30.7123567  33.0968197  47.1851508  30.8610885  34.5830729  46.9385529
  24.9961749  31.5952924  62.0217656  25.7061368  30.9546116  61.9804275
  24.9531057  31.8465819  62.9443837  32.9848528  38.5320277  64.9424235
  32.9261074  37.8479498  64.2754818  33.3868046  39.2739267  64.4904861
  23.7090683  28.5818142  63.8413296  23.1728040  28.1308880  64.4934892
  23.1207392  28.7164051  63.0983760  22.0039227  45.3482191  57.7357954
  22.2435825  45.9800715  58.4136973  21.1608423  44.9970231  58.0223314
  23.1192942  28.0406793  46.4039759  22.2422408  27.9195594  46.0402006
  23.5950695  27.2492872  46.1518648  32.9865935  36.4959861  63.1738215
  32.0992714  36.1585783  63.2964614  33.5564486  35.7642893  63.4106981
  14.6395082  32.8283953  56.4981267  15.3266122  32.5145683  55.9102282
  14.4843211  33.7325318  56.2248518  19.4429804  27.7174150  60.9266290
  19.3587993  27.1099819  60.1916700  18.6212511  28.2083168  60.9275787
  26.5167089  41.1561314  60.1399458  26.4437260  41.9616285  60.6518763
  26.0744482  41.3553280  59.3147480  26.3056868  40.3933084  53.6502280
  25.5224390  40.9354764  53.7440504  27.0049613  40.9107063  54.0496521
  29.6153518  26.2027713  56.2936485  30.1122218  25.4497676  55.9737556
  28.8440500  26.2392030  55.7279695  37.4683276  31.9068079  57.9354777
  37.4573152  32.7892794  57.5648710  36.6000655  31.5539630  57.7409314
  28.9765772  41.0548148  62.2957617  29.6893744  41.6895613  62.2233518
  28.4855801  41.1512014  61.4797619  30.6983299  34.9599400  53.8674909
  29.7639578  35.0800863  53.6979613  30.8759967  34.0571867  53.6034919
  26.1988487  28.3445096  56.0208170  25.8286275  27.7916137  56.7089075
  26.6947579  27.7403230  55.4683170  34.0855850  30.8016720  54.4024943
  34.5516303  31.6344711  54.3285245  34.5363351  30.3361701  55.1070201
  24.0277686  38.8042591  63.1163188  24.7287145  39.4379074  63.2692582
  23.5572801  39.1457323  62.3558827  32.1532081  37.1460541  51.4011095
  32.4291925  37.0317136  52.3104969  31.2836580  36.7478026  51.3623268
  32.0572513  23.1697307  58.4415844  31.1435593  23.4001534  58.6098051
  32.4865615  23.2535751  59.2929877  31.8278972  31.3587199  60.9415738
  31.1750422  31.6063106  60.2868191  32.2059351  30.5451337  60.6078215
  28.7886145  41.3946892  55.0443908  28.9708540  40.5768548  55.5071661
  29.6119131  41.6114584  54.6068798  29.1228311  40.3215077  52.3058957
  29.6516077  39.8107532  51.6929119  29.3856531  40.0057607  53.1704490
  27.8766545  32.1007010  67.4281775  27.2007182  32.0001139  68.0984150
  28.6994178  31.9446224  67.8917772  19.6245404  38.3378946  60.0494290
  20.2098840  37.5922634  60.1822195  19.4270242  38.6482903  60.9330954
  22.4784059  41.3730194  55.0656733  21.8094434  41.8576321  54.5820773
  22.3396929  41.6199414  55.9800111  14.2163058  30.9084547  58.7698734
  14.2547158  30.3748137  59.5635852  13.7103351  30.3819752  58.1509711
  26.6189327  43.4073937  61.6639391  27.1707635  43.5705559  62.4288476
  26.9595521  43.9978375  60.9919416  21.5953821  25.7549087  62.2661276
  21.6595147  26.6163918  61.8538674  21.5320941  25.1423089  61.5333634
  21.0706093  27.8272220  65.9134310  21.6978132  27.4449297  66.5271835
  20.2134012  27.6086421  66.2790003  31.4700202  38.2335195  67.5188046
  32.0140106  38.8465153  67.0243000  30.8887047  38.7914773  68.0355059
  17.8471636  29.6348649  51.8452665  18.1425077  28.7259327  51.7919719
  16.9459672  29.6136388  51.5233667  29.7557715  41.3555913  58.6503073
  29.6308854  40.5545653  58.1414019  30.4136806  41.8502106  58.1617043
  21.3765883  27.7104645  57.8280214  20.6552469  28.3240613  57.6887687
  22.1659139  28.2462410  57.7496860  31.8192623  39.1564933  60.2782623
  30.8722959  39.0370284  60.2060950  32.1675396  38.2687431  60.3608885
  24.1792196  25.0459072  64.1020865  24.7026598  25.2921368  64.8647175
  23.9604530  25.8779107  63.6824003  19.5759478  27.3162746  51.9691990
  19.2472184  26.4360125  51.7867096  19.9298848  27.2610415  52.8568379
  28.8239056  38.9517649  56.4786976  28.6764019  38.0234356  56.6594546
  29.6492550  38.9737740  55.9944051  22.6901301  27.6035716  52.3367468
  23.0297373  28.1321637  51.6146076  23.1373421  27.9416122  53.1126034
  32.4273178  39.7746208  57.5651848  33.3519726  39.5689069  57.4276300
  32.2588482  39.5262609  58.4741190  25.3844742  25.9872767  61.7870536
  25.0441562  25.1880580  62.1891216  24.6783748  26.2874478  61.2147369
  26.0361213  23.0722079  60.2397859  26.8587283  22.5982557  60.1176749
  26.2799277  23.8512563  60.7396545  24.6769448  26.1010338  50.5360761
  25.3977810  26.4791591  50.0324477  24.0534752  26.8199215  50.6395739
  28.8200571  26.8055487  51.4719093  29.0364185  27.6880125  51.1707921
  28.3394638  26.4141700  50.7424735  23.5599792  29.7641200  58.0489838
  23.4144373  30.0781503  58.9414119  23.0824996  30.3826100  57.4960736
  25.4196175  26.7543748  58.0970727  25.4057744  25.8584841  57.7603025
  26.1368603  26.7614412  58.7309013  27.2722306  27.1881088  60.1423855
  27.0140084  28.1098159  60.1408185  26.7407346  26.7911523  60.8324319
  32.2168494  40.2931875  52.9213940  32.3905372  39.7278298  52.1687792
  32.7097386  41.0932770  52.7393430  18.0345454  32.3046544  60.9877499
  17.4898922  33.0806352  61.1197773  18.9124804  32.6517349  60.8296620
  24.8233071  25.6358128  53.3658297  24.9448982  24.7074774  53.5649185
  24.5335113  25.6496814  52.4536613  27.6924261  23.3213039  56.5025017
  27.7145958  23.3852372  55.5476997  28.1092320  22.4817547  56.6965523
  38.0707886  33.0568298  54.5404240  38.5139032  32.3075623  54.1423363
  37.1934396  33.0478435  54.1577972  33.2043667  39.6098640  50.0210838
  33.8994572  40.2305332  50.2398153  33.5466817  38.7593991  50.2963216
  18.8211476  31.4316441  63.8807656  18.0793212  31.5799076  64.4672286
  18.5004220  31.6924706  63.0174405  35.1035090  37.0598345  51.5498169
  35.6286414  37.3985618  50.8247489  35.0157443  36.1245360  51.3661304
  26.7655139  40.9732419  63.6788046  27.0742265  40.7281566  64.5510745
  27.5630621  41.1779057  63.1906916  26.7875751  43.1270328  55.9093422
  26.3480741  42.6346707  56.6026279  27.5383868  42.5843296  55.6685497
  19.2668090  39.3181869  55.9118050  20.0926110  39.0185641  55.5316694
  18.9162142  38.5489492  56.3607839  24.2349623  38.6708338  57.9815724
  23.6129632  38.0079043  57.6817952  24.9054490  38.6969469  57.2989372
  17.4676695  37.2368196  56.8706984  16.6308603  36.8090370  56.6890985
  17.4400340  37.4300639  57.8077775  24.3074150  27.1490126  67.5748230
  24.3562306  28.0252248  67.1925999  24.8496665  26.6067519  67.0019873
  34.7928996  37.6931249  66.8549367  34.0024540  37.6755388  66.3153866
  34.5562351  38.2319542  67.6098404  34.9126871  34.5423715  64.1682095
  34.9624876  34.3773723  65.1097618  34.8040795  33.6750974  63.7779976
  23.7963130  37.2212261  51.4574184  23.9451250  37.9047725  50.8040857
  24.6029573  37.2017351  51.9723640  32.2030634  30.5254643  65.4841402
  33.1040496  30.3861108  65.1925400  32.2778608  30.6909098  66.4239580
  26.5373439  27.9021498  64.3294589  25.6676748  28.1955064  64.0577177
  26.7732919  28.4861943  65.0501852  36.4145068  36.9620657  64.4124117
  36.1229876  37.3250637  65.2487578  35.8017199  36.2487665  64.2337449
  37.6140750  34.5273536  56.9326687  38.4487642  34.9663341  57.0964248
  37.7499879  34.0512190  56.1134933  34.6632256  32.0853271  62.8804175
  35.1386378  32.2780918  62.0723026  33.7397822  32.1412457  62.6347559
  21.5515763  33.2477438  52.4635253  21.3061805  32.3439768  52.6615463
  21.7211677  33.2494589  51.5214731  29.2412473  24.1201115  61.8460009
  29.7594417  24.8562142  61.5206497  28.8867606  24.4265108  62.6806768
  20.8211410  28.9805796  49.9621415  20.1280655  29.0550151  49.3061451
  20.5763162  28.2166140  50.4842932  29.4925067  20.5401397  57.3660905
  29.7726821  19.8724586  57.9921332  30.2775674  20.7330493  56.8535569
  27.2958535  39.7160391  48.9285932  26.7232502  40.3350578  48.4756404
  27.8691329  40.2659753  49.4625854  33.3633925  28.9619031  61.1132481
  34.3151348  29.0617129  61.1344705  33.1937376  28.1697300  61.6230565
  31.3848305  26.0474615  61.2991882  30.7898237  26.3279627  60.6038370
  31.0998001  26.5368516  62.0708623  30.5155795  39.9997541  50.0594514
  31.4486468  39.9343103  50.2627390  30.4279008  40.8353808  49.6009047
  33.1443812  39.3163412  47.0198462  33.0657443  38.9823275  47.9134220
  33.9653479  39.8085180  47.0189934  35.8422003  32.1825151  60.2274780
  35.8098323  31.2441152  60.4134464  36.4522627  32.2609188  59.4940605
  27.6805334  31.0521204  46.2701984  28.6264439  30.9227412  46.3390402
  27.3019579  30.3135866  46.7471412  35.9916492  28.9736195  60.2733063
  35.4755540  28.1894651  60.0862992  36.8756440  28.6454911  60.4379583
  33.6527218  22.7177210  56.2328876  33.4552040  22.4092298  57.1172208
  34.2626924  23.4438849  56.3626806  41.6598553  33.2441158  59.3680817
  42.3901941  32.9826446  59.9288520  41.0505498  32.5069880  59.4082885
  39.7413850  31.3849021  59.9655268  39.0147014  31.2504985  59.3571760
  39.3261137  31.6925849  60.7711986  27.5644026  35.1038950  67.7302641
  28.4847036  35.2817549  67.9242688  27.5293609  34.1594996  67.5782341
  25.8648251  28.9771180  46.2056870  24.9579706  28.6804293  46.2819583
  26.1424232  28.6800999  45.3391156  16.7826191  30.2977544  56.6555916
  16.4628976  29.4442852  56.3630290  16.2359620  30.5126122  57.4113883
  20.5606099  33.0139985  60.3725422  20.7792109  33.9457093  60.3913456
  20.9731873  32.6547959  61.1580226  27.4810317  23.5208070  52.3601111
  26.6711045  23.1755155  52.7356357  28.1694734  23.2115614  52.9488722
  29.4100865  22.5986117  53.9825407  29.9631904  23.0181570  54.6415431
  29.6470951  21.6721865  54.0248363  25.4333964  28.5873191  69.7628171
  25.3330691  29.5367548  69.6940262  25.2155506  28.2591430  68.8904241
  24.6347036  25.8358116  46.3468849  25.4966200  26.1613014  46.6064666
  24.8197380  25.0489612  45.8341915  16.6514451  33.9180455  58.6249038
  15.9577923  33.5034408  58.1118992  17.3987442  33.9600992  58.0282456
  32.7879672  24.7086642  53.4904072  32.2078341  25.3671446  53.1082124
  32.5215605  23.8863987  53.0791489  31.2383239  24.1091700  55.6925392
  31.7383017  24.2208234  54.8839711  31.8818846  23.8052753  56.3326200
  25.2965234  32.0170329  68.5793233  24.8132316  32.8170690  68.7857122
  25.3826173  32.0278274  67.6260677  18.5651194  33.8498709  56.5015052
  18.5421882  33.9486396  55.5496935  18.8751830  34.6963860  56.8232219
  21.2238572  35.9074864  60.6161667  22.1781825  35.8758806  60.5491598
  21.0251095  35.4465488  61.4311893  21.8137954  34.4775980  63.1832464
  22.6330843  34.9720059  63.2067302  22.0874762  33.5607948  63.1550032
  31.5704550  26.8686733  52.5460420  30.6830405  27.1536383  52.3280615
  31.9858539  26.7080496  51.6987697  34.9219086  26.8933253  56.2614759
  35.6979476  27.3829706  56.5339376  34.1967220  27.3191308  56.7186629
  37.3591645  27.6060873  57.3188700  37.9536136  27.3656609  56.6082008
  37.4318229  26.8868003  57.9462236  19.5788801  41.4494484  57.6331865
  19.4443269  40.6894885  57.0669863  19.1620863  42.1735384  57.1660654
  30.7147764  36.6331407  46.6408440  31.4183614  36.8381410  47.2566096
  29.9910412  37.2008169  46.9057523  31.5445574  32.3841268  52.7610710
  31.4880775  32.8409820  51.9218343  32.0973916  31.6231953  52.5833553
  35.3550380  28.1731000  53.5860830  35.0987314  27.7727636  54.4169037
  34.7303248  28.8874794  53.4610969  39.6662718  30.9127074  56.0932121
  39.1062276  30.9820263  56.8663683  39.0606221  30.7368058  55.3731617
  22.7357927  42.3463801  57.8450307  22.6190311  43.2909233  57.7428998
  21.9150373  42.0437362  58.2336107  32.6234461  37.0713936  48.6906900
  33.4580065  36.6395135  48.5084375  32.4618804  36.8995950  49.6183794
  32.2780353  33.5746050  50.0563239  32.2229157  33.4090321  49.1151683
  31.6526408  34.2822083  50.2125429  17.0672868  28.8114114  63.8824662
  17.7131732  28.3013068  64.3711887  16.8590019  29.5482796  64.4568087
  29.5926260  35.8794962  69.3816802  30.4617420  36.0535614  69.0203437
  29.1133012  36.6989378  69.2592531  25.5876479  23.0754159  49.6348558
  25.5755149  24.0195999  49.7916829  26.4799901  22.8924304  49.3408019
  23.7612441  42.9992063  61.0606236  24.6639687  43.0315673  61.3772731
  23.5349811  42.0692514  61.0752572  25.5166043  41.7523049  57.7216314
  24.5661674  41.7524911  57.6080687  25.8198529  41.0055784  57.2052349
  29.4028598  19.6696935  53.8894495  28.6360994  19.1155422  54.0351177
  29.8139303  19.7418804  54.7508646  21.4070359  25.9581731  67.9799676
  22.2701821  25.6018536  68.1903000  20.8335770  25.6195626  68.6675080
  41.2518736  47.5883588  58.7862077  41.8897146  47.4690335  58.0825417
  41.1339579  48.5364431  58.8450029  38.0608442  47.5411016  58.7223601
  37.7226954  47.4252080  57.8344136  38.9298211  47.1402181  58.7024608
  33.9195258  49.3946492  54.7120492  33.3560123  49.3036429  53.9436780
  33.8047653  48.5746396  55.1922985  38.5428225  48.6945867  64.6809807
  38.5316866  48.2998666  63.8090311  38.7048865  47.9611940  65.2743578
  31.4659690  50.8897684  57.5504713  32.2580982  50.5488508  57.1351012
  31.7056340  50.9992659  58.4706866  39.4994817  53.0617460  50.0234957
  38.8482797  53.6471540  49.6368971  40.2939180  53.5923655  50.0829995
  33.4250444  50.1506597  50.4222092  34.1981320  49.6035584  50.2834967
  33.7775843  51.0150846  50.6336553  35.2635487  51.4782979  63.6288991
  34.9725353  52.3828610  63.5135657  35.8992471  51.5199507  64.3433061
  36.1891693  48.8559828  60.2190351  36.7855266  48.6315850  59.5047314
  36.2466665  48.1144573  60.8215798  35.7616722  46.3099263  48.0540542
  36.0142242  45.7880784  47.2924005  34.8241281  46.1465408  48.1567225
  40.8060005  45.3135041  55.8615285  41.5923094  44.8954465  55.5105702
  41.0698709  46.2181134  56.0296933  40.9770082  50.7507892  50.5603942
  40.3415915  50.8242518  51.2724846  40.6467488  51.3401490  49.8823021
  46.2068432  45.2510275  56.7648263  46.9393604  44.6809491  56.9986093
  45.4507787  44.8631875  57.2054769  35.4813011  48.2127369  50.2564917
  35.3649269  47.5372272  50.9246001  35.5915270  47.7259743  49.4397070
  37.8244551  47.6737516  53.9611606  37.4602759  47.1468137  54.6724527
  38.6811667  47.2835985  53.7878091  43.7293852  38.9631849  61.2242872
  43.3977177  39.8327260  61.0004087  43.1339465  38.6468133  61.9036902
  37.4650038  42.7027416  48.9572954  37.6324441  43.5707652  49.3243425
  37.2747208  42.8654697  48.0334244  40.2225372  51.1644395  60.6238785
  39.9226095  52.0669433  60.5154592  39.8776431  50.8976578  61.4759938
  33.6737853  47.6158191  56.6575489  32.7488350  47.4834406  56.8653181
  33.9222266  48.3952411  57.1545431  43.6222515  43.6826935  58.3036222
  42.7139393  43.6142343  58.0094983  43.5710111  44.1598880  59.1318047
  37.4439259  45.1585073  49.9419621  37.3238885  45.6042124  50.7805101
  36.7491848  45.5070391  49.3833159  31.0346664  47.2591465  57.4919278
  31.1639045  47.5125944  58.4058690  30.3544115  47.8519173  57.1723933
  35.2046151  57.9288715  53.5909752  35.1270181  58.8796540  53.6698233
  34.6007795  57.5834587  54.2484679  37.6963381  45.1016580  66.2471119
  36.9196715  45.6610501  66.2373984  38.3353944  45.5873363  66.7685989
  45.4884162  41.8843373  60.0814096  44.8458542  42.1775906  59.4353890
  44.9839090  41.7696294  60.8867293  43.1424325  45.6306546  50.7699955
  44.0542182  45.8633933  50.5947653  42.6333973  46.2143591  50.2075034
  35.9509754  47.9102034  65.8089086  36.6924438  48.4487078  65.5323910
  35.2446739  48.5368323  65.9660638  41.4265093  50.0531174  64.4061248
  41.8348449  49.6113585  63.6615880  40.7042355  49.4783802  64.6595441
  37.7796163  44.9903781  61.7794805  38.6257358  45.4143195  61.9229454
  37.7194801  44.3337405  62.4733368  41.7493908  50.6132365  58.1613537
  41.1202770  50.7778079  57.4589604  41.3619570  51.0273974  58.9324501
  45.6283140  51.5486803  55.5157900  44.9434178  51.9285704  54.9654934
  45.7126989  52.1582129  56.2489848  40.9295609  42.6508149  63.4375978
  40.6856540  43.4050210  62.9010254  41.2055539  43.0293497  64.2723225
  42.8834071  49.1946762  62.1153244  43.0950967  49.8378522  61.4387625
  42.8363820  48.3609078  61.6475174  40.4860300  41.8064582  59.0189816
  39.6244779  42.1045836  59.3106554  40.5122735  42.0234981  58.0870849
  37.3021870  50.3506773  55.4263622  37.7660215  50.6294476  54.6368244
  37.0378668  49.4490218  55.2436712  34.1945951  49.8978255  58.3643385
  34.7647308  50.3265523  57.7260869  34.7854063  49.6160839  59.0627571
  36.2390756  46.4729925  52.2353187  36.9414799  46.9250969  52.7027113
  35.9071384  45.8313744  52.8633080  34.6871117  45.0641682  66.6104396
  34.0569778  45.7457963  66.8439793  34.5807205  44.9524764  65.6657534
  29.9816090  44.7313478  57.5370320  29.1915144  44.9871007  57.0610431
  30.4727337  45.5461816  57.6422361  43.9979899  52.0718717  60.2875601
  44.8197343  51.6698904  60.0058283  43.9942302  51.9686951  61.2391717
  31.9330835  45.0958057  54.4953797  31.1361998  45.2076751  55.0137293
  31.7056427  45.4344709  53.6294688  37.7636503  51.6202760  62.4436312
  37.8280935  52.0823168  63.2794484  37.0547427  50.9900125  62.5718622
  28.2653793  44.9843968  59.9685311  28.5161831  45.8690978  60.2342887
  28.8013341  44.8048570  59.1960403  52.0885892  48.4157466  56.6360573
  51.3349601  47.8464864  56.4804577  52.2233434  48.3820130  57.5831207
  37.4784520  53.2870868  52.3115292  37.3430195  54.1322404  52.7400140
  38.0194333  53.4890146  51.5481226  33.9651860  39.3662448  68.9729647
  33.5718806  38.8128646  69.6477292  34.7818000  39.6773026  69.3636165
  30.9313918  50.8046306  52.8843217  31.4438438  51.5989556  53.0348782
  31.5836631  50.1072596  52.8176819  32.7408802  53.9212062  54.9665970
  32.9175431  54.8430027  54.7786954  33.5365636  53.6070481  55.3960350
  36.8819821  40.7820327  66.5649904  37.6229534  41.3827480  66.4854366
  37.1137744  40.0397965  66.0067946  32.0261159  45.9676694  64.8428134
  31.9114674  45.0661951  65.1435232  31.1705677  46.2140391  64.4912950
  33.8640118  55.4390236  60.9676313  34.4147543  55.3107299  60.1953307
  33.0251594  55.7385125  60.6171205  41.2034235  54.1897234  64.4697035
  41.1852710  55.0106115  63.9777305  42.1254155  54.0651310  64.6947177
  40.8276984  36.8101430  60.8414186  40.4841253  37.7003072  60.7653296
  41.1955947  36.6203087  59.9783771  28.8962835  49.1334960  53.6602788
  29.7338057  49.5431969  53.4436495  29.0741102  48.1934402  53.6302982
  40.7927267  46.8010041  49.3486621  40.2773890  47.5714646  49.5875008
  40.5204575  46.1275177  49.9719682  38.3774378  41.6459742  54.4071859
  37.5215974  41.2566592  54.2277498  38.7901329  41.7251703  53.5471645
  39.9073524  39.1806085  58.8063419  39.4038320  39.1436220  57.9931224
  40.2004131  40.0898828  58.8660075  36.1516410  39.2644815  57.8129601
  37.0169407  39.0687623  57.4535490  36.2193919  39.0355166  58.7398957
  45.7661541  49.5542396  51.2839794  44.9890984  49.2153555  50.8394956
  46.4453022  49.5595019  50.6094759  40.5813570  44.6737133  51.1746402
  40.2763705  44.9883282  52.0256545  41.5344012  44.7518553  51.2173735
  39.0260002  50.8327356  52.8239356  38.4981363  50.0980116  52.5112593
  38.5247504  51.6102033  52.5779324  44.0052848  49.0276377  57.9406402
  43.3476522  49.7175638  58.0286531  44.8093247  49.4172809  58.2840388
  33.7578729  41.4947023  55.1845967  34.3322481  41.2722204  54.4519160
  34.3449712  41.5635717  55.9374569  42.8158306  47.3820750  55.9910344
  43.3290188  48.0150741  56.4932054  43.4659530  46.7821945  55.6253704
  34.0848316  43.5251484  49.2041853  33.2485629  43.8626170  49.5251127
  33.9453086  43.3900463  48.2668990  36.0601397  38.3688272  53.9121037
  35.4065809  38.0537289  53.2877652  36.0181871  37.7464012  54.6380860
  37.1712602  48.6507567  45.8274329  36.2639664  48.4196820  46.0265478
  37.6683634  47.8545186  46.0148310  40.0780681  57.3605074  48.7471015
  39.4042379  57.6636771  49.3555973  40.4646503  58.1634154  48.3976472
  39.2939137  44.8570205  58.2368684  38.3761699  45.0785152  58.0790372
  39.7099281  44.9316516  57.3780392  40.0774185  46.2561621  53.3671365
  40.8246004  46.7683018  53.0578487  40.3465775  45.9345673  54.2275758
  38.3500835  48.7520161  50.3498319  37.4412055  48.4679194  50.4470789
  38.3795919  49.1719240  49.4901626  43.5820103  52.3626751  54.1189487
  43.1282430  51.5217661  54.1754677  42.9514069  52.9988149  54.4564267
  42.5253022  43.2918737  55.3490154  41.7875779  42.7796123  55.6800397
  42.7779796  42.8519119  54.5373431  42.0253042  54.2003248  55.0539305
  42.3176016  54.7608305  54.3351670  42.5351663  54.4931809  55.8092464
  42.6264650  36.0694989  55.9431923  42.9323526  35.2092352  55.6557838
  43.3517254  36.6612609  55.7430917  28.9189006  46.4725676  54.3313521
  28.7213405  45.8795036  53.6064588  28.3635670  46.1677886  55.0489460
  36.8985729  46.3648782  56.4508114  36.9534339  45.4122618  56.3750591
  36.0876931  46.5208221  56.9349413  38.0476923  50.2928905  47.6886398
  37.6096353  49.5764764  47.2292035  38.7887364  50.5205020  47.1271489
  34.8378089  44.9825842  54.2098493  34.0245955  45.2820012  54.6163685
  35.3337083  44.5881531  54.9272975  36.9886667  54.9783599  56.1432758
  36.9462846  55.2044445  55.2141290  37.9049366  54.7446973  56.2918559
  40.4352301  45.4467666  63.0413387  40.7901689  45.6739139  63.9007853
  41.0824432  45.7786043  62.4190642  46.1650038  48.5686102  53.7462716
  46.0267936  48.7587698  52.8183905  45.8086257  49.3305485  54.2030767
  34.3292164  42.5544197  59.8259728  34.9691543  42.4132956  59.1282691
  33.4969695  42.2678711  59.4498330  46.1919417  50.6362629  58.7573988
  46.6255924  50.5437918  59.6057042  46.9050998  50.6120130  58.1194004
  35.1052468  51.8546628  55.9394721  35.8993066  51.3596948  55.7377296
  34.3944160  51.3264491  55.5762426  39.9247312  54.2364723  60.2907088
  39.9784335  54.8055660  61.0584804  39.0562094  54.4066608  59.9261125
  31.4135231  45.9989710  52.0154473  30.4832819  45.9374165  52.2324435
  31.5092703  45.4765662  51.2191115  31.3320780  42.5244522  54.6032715
  31.5927598  43.4389856  54.4941875  32.1537953  42.0568965  54.7529328
  32.8045706  43.9382280  61.7731539  33.4768759  43.7299642  61.1244188
  31.9775492  43.7404366  61.3336772  47.0534967  50.6786330  61.2906873
  47.2470857  51.5832140  61.5366148  46.9535585  50.2193749  62.1245458
  38.7071278  40.5644220  63.7897200  38.0599193  41.2634170  63.6961677
  39.4772293  40.9980364  64.1573449  38.8835412  48.4024985  61.8494020
  39.8127472  48.5536145  61.6762987  38.4626442  48.4909006  60.9942667
  37.6823744  52.4275650  59.6192558  37.5434830  52.0594434  60.4918496
  36.8938340  52.9423289  59.4476515  38.2771896  57.5284746  50.9618094
  38.4523652  57.0572789  51.7763717  37.5904684  58.1550512  51.1899355
  39.2328959  51.8057252  57.0081395  38.8978792  51.7658022  57.9039045
  38.7332905  51.1401968  56.5351806  33.2073203  47.2124882  62.5333977
  33.0693001  46.4805121  63.1345516  34.1178126  47.1233783  62.2518164
  42.1688151  49.1513287  47.2818455  41.5517321  48.4260115  47.1851508
  41.7004639  49.9122647  46.9385529  35.8355504  46.9244842  62.0217656
  36.5455122  46.2838034  61.9804275  35.7924812  47.1757737  62.9443837
  43.8242282  53.8612195  64.9424235  43.7654829  53.1771415  64.2754818
  44.2261801  54.6031185  64.4904861  34.5484438  43.9110060  63.8413296
  34.0121795  43.4600798  64.4934892  33.9601146  44.0455969  63.0983760
  32.8432981  60.6774109  57.7357954  33.0829579  61.3092633  58.4136973
  32.0002178  60.3262149  58.0223314  33.9586697  43.3698711  46.4039759
  33.0816163  43.2487512  46.0402006  34.4344450  42.5784789  46.1518648
  43.8259690  51.8251779  63.1738215  42.9386468  51.4877701  63.2964614
  44.3958241  51.0934810  63.4106981  25.4788837  48.1575871  56.4981267
  26.1659877  47.8437601  55.9102282  25.3236965  49.0617235  56.2248518
  30.2823559  43.0466067  60.9266290  30.1981748  42.4391737  60.1916700
  29.4606265  43.5375086  60.9275787  37.3560843  56.4853231  60.1399458
  37.2831014  57.2908203  60.6518763  36.9138236  56.6845197  59.3147480
  37.1450623  55.7225001  53.6502280  36.3618145  56.2646682  53.7440504
  37.8443368  56.2398981  54.0496521  40.4547273  41.5319631  56.2936485
  40.9515972  40.7789593  55.9737556  39.6834254  41.5683948  55.7279695
  48.3077030  47.2359996  57.9354777  48.2966906  48.1184712  57.5648710
  47.4394410  46.8831547  57.7409314  39.8159527  56.3840065  62.2957617
  40.5287499  57.0187530  62.2233518  39.3249555  56.4803931  61.4797619
  41.5377053  50.2891318  53.8674909  40.6033332  50.4092781  53.6979613
  41.7153722  49.3863785  53.6034919  37.0382242  43.6737014  56.0208170
  36.6680029  43.1208054  56.7089075  37.5341334  43.0695147  55.4683170
  44.9249605  46.1308637  54.4024943  45.3910057  46.9636629  54.3285245
  45.3757105  45.6653619  55.1070201  34.8671440  54.1334509  63.1163188
  35.5680900  54.7670992  63.2692582  34.3966555  54.4749240  62.3558827
  42.9925836  52.4752459  51.4011095  43.2685680  52.3609053  52.3104969
  42.1230335  52.0769944  51.3623268  42.8966268  38.4989224  58.4415844
  41.9829347  38.7293451  58.6098051  43.3259369  38.5827668  59.2929877
  42.6672726  46.6879116  60.9415738  42.0144176  46.9355024  60.2868191
  43.0453106  45.8743255  60.6078215  39.6279900  56.7238810  55.0443908
  39.8102294  55.9060465  55.5071661  40.4512886  56.9406502  54.6068798
  39.9622065  55.6506995  52.3058957  40.4909832  55.1399449  51.6929119
  40.2250285  55.3349525  53.1704490  30.4639158  53.6670864  60.0494290
  31.0492595  52.9214552  60.1822195  30.2663997  53.9774821  60.9330954
  33.3177813  56.7022111  55.0656733  32.6488189  57.1868239  54.5820773
  33.1790683  56.9491332  55.9800111  25.0556813  46.2376464  58.7698734
  25.0940912  45.7040055  59.5635852  24.5497106  45.7111670  58.1509711
  37.4583082  58.7365855  61.6639391  38.0101390  58.8997476  62.4288476
  37.7989275  59.3270293  60.9919416  32.4347575  41.0841005  62.2661276
  32.4988902  41.9455836  61.8538674  32.3714695  40.4715006  61.5333634
  31.9099848  43.1564137  65.9134310  32.5371887  42.7741215  66.5271835
  31.0527767  42.9378339  66.2790003  28.6865390  44.9640566  51.8452665
  28.9818832  44.0551245  51.7919719  27.7853426  44.9428306  51.5233667
  40.5951469  56.6847830  58.6503073  40.4702609  55.8837570  58.1414019
  41.2530560  57.1794024  58.1617043  32.2159637  43.0396563  57.8280214
  31.4946223  43.6532531  57.6887687  33.0052893  43.5754328  57.7496860
  42.6586378  54.4856851  60.2782623  41.7116713  54.3662202  60.2060950
  43.0069151  53.5979349  60.3608885  35.0185951  40.3750989  64.1020865
  35.5420353  40.6213286  64.8647175  34.7998284  41.2071024  63.6824003
  30.4153232  42.6454664  51.9691990  30.0865938  41.7652043  51.7867096
  30.7692603  42.5902333  52.8568379  39.6632811  54.2809567  56.4786976
  39.5157773  53.3526274  56.6594546  40.4886304  54.3029657  55.9944051
  33.5295055  42.9327634  52.3367468  33.8691128  43.4613555  51.6146076
  33.9767176  43.2708040  53.1126034  43.2666933  55.1038125  57.5651848
  44.1913480  54.8980987  57.4276300  43.0982236  54.8554527  58.4741190
  36.2238496  41.3164685  61.7870536  35.8835316  40.5172498  62.1891216
  35.5177502  41.6166395  61.2147369  36.8754968  38.4013997  60.2397859
  37.6981037  37.9274475  60.1176749  37.1193031  39.1804481  60.7396545
  35.5163202  41.4302255  50.5360761  36.2371565  41.8083508  50.0324477
  34.8928506  42.1491132  50.6395739  39.6594325  42.1347404  51.4719093
  39.8757940  43.0172042  51.1707921  39.1788392  41.7433618  50.7424735
  34.3993547  45.0933118  58.0489838  34.2538127  45.4073421  58.9414119
  33.9218750  45.7118018  57.4960736  36.2589929  42.0835666  58.0970727
  36.2451498  41.1876759  57.7603025  36.9762358  42.0906329  58.7309013
  38.1116060  42.5173006  60.1423855  37.8533838  43.4390076  60.1408185
  37.5801101  42.1203440  60.8324319  43.0562249  55.6223793  52.9213940
  43.2299126  55.0570215  52.1687792  43.5491140  56.4224688  52.7393430
  28.8739209  47.6338462  60.9877499  28.3292677  48.4098270  61.1197773
  29.7518559  47.9809266  60.8296620  35.6626825  40.9650046  53.3658297
  35.7842737  40.0366692  53.5649185  35.3728868  40.9788732  52.4536613
  38.5318016  38.6504956  56.5025017  38.5539713  38.7144289  55.5476997
  38.9486075  37.8109465  56.6965523  48.9101640  48.3860216  54.5404240
  49.3532786  47.6367541  54.1423363  48.0328150  48.3770352  54.1577972
  44.0437421  54.9390557  50.0210838  44.7388326  55.5597250  50.2398153
  44.3860572  54.0885909  50.2963216  29.6605231  46.7608358  63.8807656
  28.9186967  46.9090994  64.4672286  29.3397975  47.0216624  63.0174405
  45.9428845  52.3890263  51.5498169  46.4680169  52.7277536  50.8247489
  45.8551197  51.4537278  51.3661304  37.6269505  58.4562246  55.9093422
  37.1874496  57.9638625  56.6026279  38.3777622  57.9135214  55.6685497
  30.1061844  54.6473787  55.9118050  30.9319864  54.3477559  55.5316694
  29.7555896  53.8781409  56.3607839  35.0743377  54.0000255  57.9815724
  34.4523387  53.3370960  57.6817952  35.7448244  54.0261387  57.2989372
  28.3070449  52.5660113  56.8706984  27.4702358  52.1382288  56.6890985
  28.2794095  52.7592557  57.8077775  35.1467905  42.4782043  67.5748230
  35.1956060  43.3544166  67.1925999  35.6890419  41.9359436  67.0019873
  34.6356884  52.5504179  51.4574184  34.7845005  53.2339643  50.8040857
  35.4423328  52.5309269  51.9723640  43.0424388  45.8546561  65.4841402
  43.9434251  45.7153026  65.1925400  43.1172363  46.0201016  66.4239580
  37.3767193  43.2313416  64.3294589  36.5070503  43.5246982  64.0577177
  37.6126674  43.8153861  65.0501852  48.4534505  49.8565454  56.9326687
  49.2881396  50.2955258  57.0964248  48.5893634  49.3804107  56.1134933
  32.3909517  48.5769356  52.4635253  32.1455559  47.6731686  52.6615463
  32.5605432  48.5786507  51.5214731  40.0806227  39.4493033  61.8460009
  40.5988171  40.1854059  61.5206497  39.7261360  39.7557026  62.6806768
  31.6605165  44.3097714  49.9621415  30.9674410  44.3842069  49.3061451
  31.4156917  43.5458057  50.4842932  40.3318821  35.8693315  57.3660905
  40.6120575  35.2016504  57.9921332  41.1169428  36.0622411  56.8535569
  38.1352290  55.0452309  48.9285932  37.5626257  55.6642496  48.4756404
  38.7085084  55.5951671  49.4625854  44.2027680  44.2910949  61.1132481
  45.1545103  44.3909047  61.1344705  44.0331130  43.4989218  61.6230565
  42.2242059  41.3766532  61.2991882  41.6291991  41.6571545  60.6038370
  41.9391756  41.8660433  62.0708623  41.3549550  55.3289459  50.0594514
  42.2880223  55.2635021  50.2627390  41.2672763  56.1645726  49.6009047
  43.9837566  54.6455329  47.0198462  43.9051198  54.3115193  47.9134220
  44.8047233  55.1377097  47.0189934  46.6815758  47.5117069  60.2274780
  46.6492078  46.5733069  60.4134464  47.2916381  47.5901105  59.4940605
  38.5199088  46.3813122  46.2701984  39.4658193  46.2519330  46.3390402
  38.1413333  45.6427784  46.7471412  46.8310246  44.3028112  60.2733063
  46.3149295  43.5186569  60.0862992  47.7150195  43.9746829  60.4379583
  44.4920973  38.0469128  56.2328876  44.2945794  37.7384216  57.1172208
  45.1020679  38.7730767  56.3626806  52.4992307  48.5733076  59.3680817
  53.2295696  48.3118364  59.9288520  51.8899253  47.8361798  59.4082885
  50.5807605  46.7140938  59.9655268  49.8540768  46.5796903  59.3571760
  50.1654891  47.0217767  60.7711986  36.7042006  44.3063098  46.2056870
  35.7973461  44.0096211  46.2819583  36.9817987  44.0092916  45.3391156
  27.6219946  45.6269462  56.6555916  27.3022730  44.7734770  56.3630290
  27.0753374  45.8418040  57.4113883  31.3999853  48.3431903  60.3725422
  31.6185863  49.2749010  60.3913456  31.8125627  47.9839877  61.1580226
  38.3204071  38.8499988  52.3601111  37.5104800  38.5047073  52.7356357
  39.0088488  38.5407532  52.9488722  40.2494620  37.9278035  53.9825407
  40.8025658  38.3473488  54.6415431  40.4864706  37.0013783  54.0248363
  36.2727719  43.9165108  69.7628171  36.1724446  44.8659465  69.6940262
  36.0549261  43.5883347  68.8904241  35.4740790  41.1650033  46.3468849
  36.3359954  41.4904932  46.6064666  35.6591134  40.3781529  45.8341915
  27.4908206  49.2472373  58.6249038  26.7971677  48.8326326  58.1118992
  28.2381197  49.2892910  58.0282456  43.6273427  40.0378560  53.4904072
  43.0472096  40.6963364  53.1082124  43.3609359  39.2155904  53.0791489
  42.0776993  39.4383618  55.6925392  42.5776771  39.5500152  54.8839711
  42.7212601  39.1344670  56.3326200  29.4044948  49.1790627  56.5015052
  29.3815637  49.2778314  55.5496935  29.7145585  50.0255778  56.8232219
  32.0632326  51.2366782  60.6161667  33.0175580  51.2050724  60.5491598
  31.8644850  50.7757406  61.4311893  32.6531708  49.8067898  63.1832464
  33.4724597  50.3011977  63.2067302  32.9268516  48.8899866  63.1550032
  42.4098305  42.1978650  52.5460420  41.5224160  42.4828301  52.3280615
  42.8252294  42.0372414  51.6987697  45.7612841  42.2225171  56.2614759
  46.5373231  42.7121624  56.5339376  45.0360975  42.6483225  56.7186629
  48.1985399  42.9352790  57.3188700  48.7929890  42.6948526  56.6082008
  48.2711983  42.2159921  57.9462236  30.4182555  56.7786401  57.6331865
  30.2837023  56.0186802  57.0669863  30.0014617  57.5027301  57.1660654
  41.5541518  51.9623325  46.6408440  42.2577368  52.1673327  47.2566096
  40.8304167  52.5300087  46.9057523  42.3839328  47.7133186  52.7610710
  42.3274530  48.1701738  51.9218343  42.9367671  46.9523871  52.5833553
  46.1944134  43.5022918  53.5860830  45.9381069  43.1019554  54.4169037
  45.5697002  44.2166712  53.4610969  50.5056472  46.2418991  56.0932121
  49.9456030  46.3112181  56.8663683  49.8999976  46.0659976  55.3731617
  33.5751681  57.6755718  57.8450307  33.4584065  58.6201151  57.7428998
  32.7544127  57.3729280  58.2336107  43.4628216  52.4005854  48.6906900
  44.2973819  51.9687053  48.5084375  43.3012558  52.2287868  49.6183794
  43.1174108  48.9037967  50.0563239  43.0622912  48.7382239  49.1151683
  42.4920163  49.6114000  50.2125429  27.9066623  44.1406032  63.8824662
  28.5525486  43.6304986  64.3711887  27.6983774  44.8774713  64.4568087
  36.4270233  38.4046076  49.6348558  36.4148903  39.3487916  49.7916829
  37.3193655  38.2216222  49.3408019  34.6006195  58.3283980  61.0606236
  35.5033442  58.3607591  61.3772731  34.3743565  57.3984431  61.0752572
  36.3559797  57.0814967  57.7216314  35.4055428  57.0816828  57.6080687
  36.6592283  56.3347701  57.2052349  40.2422353  34.9988853  53.8894495
  39.4754748  34.4447340  54.0351177  40.6533058  35.0710722  54.7508646
  32.2464114  41.2873649  67.9799676  33.1095575  40.9310454  68.1903000
  31.6729524  40.9487544  68.6675080  52.0912491  62.9175505  58.7862077
  52.7290901  62.7982253  58.0825417  51.9733334  63.8656349  58.8450029
  48.9002197  62.8702933  58.7223601  48.5620708  62.7543998  57.8344136
  49.7691965  62.4694098  58.7024608  44.7589013  64.7238410  54.7120492
  44.1953878  64.6328347  53.9436780  44.6441408  63.9038314  55.1922985
  42.3053445  66.2189601  57.5504713  43.0974736  65.8780426  57.1351012
  42.5450095  66.3284576  58.4706866  50.3388571  68.3909377  50.0234957
  49.6876551  68.9763458  49.6368971  51.1332934  68.9215572  50.0829995
  44.2644198  65.4798515  50.4222092  45.0375074  64.9327502  50.2834967
  44.6169597  66.3442764  50.6336553  47.0285448  64.1851745  60.2190351
  47.6249020  63.9607768  59.5047314  47.0860419  63.4436491  60.8215798
  46.6010476  61.6391181  48.0540542  46.8535997  61.1172702  47.2924005
  45.6635035  61.4757326  48.1567225  51.6453759  60.6426959  55.8615285
  52.4316848  60.2246382  55.5105702  51.9092463  61.5473051  56.0296933
  51.8163836  66.0799809  50.5603942  51.1809669  66.1534436  51.2724846
  51.4861243  66.6693408  49.8823021  57.0462186  60.5802192  56.7648263
  57.7787358  60.0101409  56.9986093  56.2901542  60.1923793  57.2054769
  46.3206765  63.5419287  50.2564917  46.2043023  62.8664190  50.9246001
  46.4309025  63.0551661  49.4397070  48.6638306  63.0029434  53.9611606
  48.2996513  62.4760055  54.6724527  49.5205422  62.6127903  53.7878091
  54.5687607  54.2923766  61.2242872  54.2370931  55.1619177  61.0004087
  53.9733220  53.9760050  61.9036902  48.3043793  58.0319333  48.9572954
  48.4718195  58.8999570  49.3243425  48.1140962  58.1946615  48.0334244
  51.0619126  66.4936312  60.6238785  50.7619849  67.3961351  60.5154592
  50.7170186  66.2268496  61.4759938  44.5131608  62.9450109  56.6575489
  43.5882104  62.8126323  56.8653181  44.7616021  63.7244328  57.1545431
  54.4616270  59.0118853  58.3036222  53.5533147  58.9434261  58.0094983
  54.4103866  59.4890797  59.1318047  48.2833014  60.4876991  49.9419621
  48.1632639  60.9334042  50.7805101  47.5885602  60.8362309  49.3833159
  41.8740419  62.5883383  57.4919278  42.0032800  62.8417862  58.4058690
  41.1937870  63.1811091  57.1723933  46.0439906  73.2580633  53.5909752
  45.9663936  74.2088458  53.6698233  45.4401550  72.9126505  54.2484679
  48.5357136  60.4308498  66.2471119  47.7590470  60.9902418  66.2373984
  49.1747699  60.9165281  66.7685989  56.3277916  57.2135291  60.0814096
  55.6852297  57.5067824  59.4353890  55.8232845  57.0988211  60.8867293
  53.9818080  60.9598464  50.7699955  54.8935936  61.1925851  50.5947653
  53.4727727  61.5435508  50.2075034  52.2658848  65.3823092  64.4061248
  52.6742204  64.9405502  63.6615880  51.5436109  64.8075719  64.6595441
  48.6189918  60.3195699  61.7794805  49.4651113  60.7435112  61.9229454
  48.5588555  59.6629323  62.4733368  52.5887662  65.9424283  58.1613537
  51.9596525  66.1069997  57.4589604  52.2013324  66.3565892  58.9324501
  56.4676894  66.8778720  55.5157900  55.7827932  67.2577622  54.9654934
  56.5520743  67.4874047  56.2489848  53.7227826  64.5238679  62.1153244
  53.9344721  65.1670439  61.4387625  53.6757574  63.6900996  61.6475174
  51.3254055  57.1356500  59.0189816  50.4638534  57.4337754  59.3106554
  51.3516489  57.3526899  58.0870849  48.1415624  65.6798691  55.4263622
  48.6053970  65.9586394  54.6368244  47.8772422  64.7782135  55.2436712
  45.0339705  65.2270172  58.3643385  45.6041062  65.6557441  57.7260869
  45.6247817  64.9452757  59.0627571  47.0784510  61.8021843  52.2353187
  47.7808554  62.2542887  52.7027113  46.7465139  61.1605662  52.8633080
  40.8209844  60.0605396  57.5370320  40.0308898  60.3162924  57.0610431
  41.3121092  60.8753734  57.6422361  54.8373654  67.4010635  60.2875601
  55.6591097  66.9990822  60.0058283  54.8336057  67.2978869  61.2391717
  42.7724590  60.4249975  54.4953797  41.9755753  60.5368669  55.0137293
  42.5450182  60.7636627  53.6294688  48.6030257  66.9494678  62.4436312
  48.6674690  67.4115085  63.2794484  47.8941181  66.3192043  62.5718622
  39.1047547  60.3135886  59.9685311  39.3555586  61.1982896  60.2342887
  39.6407096  60.1340488  59.1960403  62.9279647  63.7449383  56.6360573
  62.1743355  63.1756781  56.4804577  63.0627188  63.7112048  57.5831207
  48.3178275  68.6162786  52.3115292  48.1823950  69.4614321  52.7400140
  48.8588087  68.8182063  51.5481226  41.7707672  66.1338224  52.8843217
  42.2832193  66.9281474  53.0348782  42.4230385  65.4364514  52.8176819
  43.5802557  69.2503980  54.9665970  43.7569185  70.1721945  54.7786954
  44.3759390  68.9362399  55.3960350  49.9446751  69.2386352  66.4415634
  49.5010605  68.4522731  66.1236539  50.6063965  69.4265503  65.7759525
  44.7033872  70.7682154  60.9676313  45.2541298  70.6399217  60.1953307
  43.8645348  71.0677043  60.6171205  52.0427989  69.5189152  64.4697035
  52.0246465  70.3398033  63.9777305  52.9647909  69.3943227  64.6947177
  51.6670738  52.1393348  60.8414186  51.3235008  53.0294989  60.7653296
  52.0349701  51.9495005  59.9783771  39.7356589  64.4626878  53.6602788
  40.5731811  64.8723886  53.4436495  39.9134857  63.5226320  53.6302982
  51.6321021  62.1301959  49.3486621  51.1167645  62.9006563  49.5875008
  51.3598330  61.4567095  49.9719682  49.2168132  56.9751659  54.4071859
  48.3609729  56.5858510  54.2277498  49.6295084  57.0543620  53.5471645
  50.7467279  54.5098003  58.8063419  50.2432074  54.4728138  57.9931224
  51.0397886  55.4190745  58.8660075  46.9910165  54.5936732  57.8129601
  47.8563161  54.3979541  57.4535490  47.0587674  54.3647084  58.7398957
  56.6055295  64.8834313  51.2839794  55.8284738  64.5445473  50.8394956
  57.2846776  64.8886936  50.6094759  51.4207324  60.0029051  51.1746402
  51.1157460  60.3175200  52.0256545  52.3737766  60.0810471  51.2173735
  49.8653756  66.1619274  52.8239356  49.3375118  65.4272034  52.5112593
  49.3641259  66.9393950  52.5779324  54.8446602  64.3568295  57.9406402
  54.1870277  65.0467556  58.0286531  55.6487001  64.7464726  58.2840388
  44.5972484  56.8238940  55.1845967  45.1716236  56.6014122  54.4519160
  45.1843466  56.8927635  55.9374569  53.6552061  62.7112667  55.9910344
  54.1683943  63.3442659  56.4932054  54.3053285  62.1113863  55.6253704
  44.9242071  58.8543401  49.2041853  44.0879383  59.1918088  49.5251127
  44.7846841  58.7192381  48.2668990  46.8995151  53.6980189  53.9121037
  46.2459564  53.3829206  53.2877652  46.8575626  53.0755930  54.6380860
  48.0106356  63.9799484  45.8274329  47.1033418  63.7488738  46.0265478
  48.5077388  63.1837104  46.0148310  50.9174435  72.6896991  48.7471015
  50.2436134  72.9928688  49.3555973  51.3040257  73.4926072  48.3976472
  50.1332892  60.1862123  58.2368684  49.2155453  60.4077070  58.0790372
  50.5493035  60.2608433  57.3780392  50.9167940  61.5853538  53.3671365
  51.6639759  62.0974936  53.0578487  51.1859529  61.2637591  54.2275758
  49.1894590  64.0812079  50.3498319  48.2805809  63.7971112  50.4470789
  49.2189674  64.5011158  49.4901626  54.4213857  67.6918669  54.1189487
  53.9676184  66.8509579  54.1754677  53.7907824  68.3280067  54.4564267
  53.3646777  58.6210655  55.3490154  52.6269534  58.1088041  55.6800397
  53.6173550  58.1811036  54.5373431  52.8646796  69.5295165  55.0539305
  53.1569771  70.0900222  54.3351670  53.3745417  69.8223726  55.8092464
  53.4658404  51.3986907  55.9431923  53.7717281  50.5384270  55.6557838
  54.1911009  51.9904527  55.7430917  39.7582760  61.8017593  54.3313521
  39.5607160  61.2086954  53.6064588  39.2029424  61.4969803  55.0489460
  47.7379484  61.6940700  56.4508114  47.7928094  60.7414536  56.3750591
  46.9270686  61.8500139  56.9349413  48.8870678  65.6220823  47.6886398
  48.4490107  64.9056682  47.2292035  49.6281118  65.8496938  47.1271489
  45.6771844  60.3117760  54.2098493  44.8639709  60.6111930  54.6163685
  46.1730838  59.9173448  54.9272975  47.8280422  70.3075516  56.1432758
  47.7856600  70.5336363  55.2141290  48.7443120  70.0738891  56.2918559
  51.2746055  60.7759584  63.0413387  51.6295443  61.0031057  63.9007853
  51.9218187  61.1077961  62.4190642  57.0043792  63.8978020  53.7462716
  56.8661691  64.0879616  52.8183905  56.6480011  64.6597403  54.2030767
  45.1685918  57.8836115  59.8259728  45.8085298  57.7424874  59.1282691
  44.3363449  57.5970628  59.4498330  57.0313172  65.9654547  58.7573988
  57.4649679  65.8729836  59.6057042  57.7444753  65.9412047  58.1194004
  45.9446222  67.1838545  55.9394721  46.7386821  66.6888866  55.7377296
  45.2337915  66.6556409  55.5762426  50.7641067  69.5656641  60.2907088
  50.8178089  70.1347577  61.0584804  49.8955848  69.7358526  59.9261125
  42.2528986  61.3281627  52.0154473  41.3226574  61.2666083  52.2324435
  42.3486458  60.8057580  51.2191115  42.1714535  57.8536440  54.6032715
  42.4321352  58.7681773  54.4941875  42.9931707  57.3860883  54.7529328
  43.6439460  59.2674197  61.7731539  44.3162514  59.0591559  61.1244188
  42.8169247  59.0696283  61.3336772  57.8928722  66.0078248  61.2906873
  58.0864612  66.9124058  61.5366148  57.7929340  65.5485667  62.1245458
  52.9543830  66.1584990  66.8647754  52.8029337  65.9295542  65.9477837
  52.9448510  67.1155592  66.8779099  49.7229167  63.7316903  61.8494020
  50.6521227  63.8828063  61.6762987  49.3020197  63.8200924  60.9942667
  48.5217498  67.7567567  59.6192558  48.3828584  67.3886352  60.4918496
  47.7332095  68.2715207  59.4476515  49.1165650  72.8576664  50.9618094
  49.2917406  72.3864707  51.7763717  48.4298438  73.4842430  51.1899355
  50.0722714  67.1349170  57.0081395  49.7372546  67.0949940  57.9039045
  49.5726659  66.4693886  56.5351806  44.0466957  62.5416800  62.5333977
  43.9086755  61.8097039  63.1345516  44.9571881  62.4525700  62.2518164
  53.0081905  64.4805204  47.2818455  52.3911076  63.7552033  47.1851508
  52.5398394  65.2414565  46.9385529  46.6749258  62.2536759  62.0217656
  47.3848877  61.6129952  61.9804275  46.6318566  62.5049654  62.9443837
  54.6636037  69.1904113  64.9424235  54.6048583  68.5063333  64.2754818
  55.0655555  69.9323103  64.4904861  43.6826736  76.0066027  57.7357954
  43.9223334  76.6384551  58.4136973  42.8395932  75.6554067  58.0223314
  44.7980451  58.6990629  46.4039759  43.9209917  58.5779430  46.0402006
  45.2738204  57.9076707  46.1518648  54.6653444  67.1543697  63.1738215
  53.7780223  66.8169619  63.2964614  55.2351995  66.4226728  63.4106981
  36.3182591  63.4867789  56.4981267  37.0053631  63.1729519  55.9102282
  36.1630720  64.3909153  56.2248518  41.1217313  58.3757985  60.9266290
  41.0375502  57.7683655  60.1916700  40.3000020  58.8667003  60.9275787
  48.1954598  71.8145149  60.1399458  48.1224769  72.6200121  60.6518763
  47.7531991  72.0137115  59.3147480  47.9844377  71.0516919  53.6502280
  47.2011899  71.5938599  53.7440504  48.6837122  71.5690899  54.0496521
  51.2941027  56.8611549  56.2936485  51.7909727  56.1081511  55.9737556
  50.5228009  56.8975865  55.7279695  59.1470785  62.5651914  57.9354777
  59.1360661  63.4476630  57.5648710  58.2788164  62.2123465  57.7409314
  50.6553281  71.7131983  62.2957617  51.3681253  72.3479448  62.2233518
  50.1643310  71.8095849  61.4797619  52.3770808  65.6183236  53.8674909
  51.4427087  65.7384698  53.6979613  52.5547476  64.7155703  53.6034919
  47.8775996  59.0028932  56.0208170  47.5073784  58.4499972  56.7089075
  48.3735088  58.3987065  55.4683170  55.7643359  61.4600555  54.4024943
  56.2303811  62.2928547  54.3285245  56.2150860  60.9945537  55.1070201
  45.7065195  69.4626427  63.1163188  46.4074654  70.0962910  63.2692582
  45.2360310  69.8041158  62.3558827  53.8319590  67.8044376  51.4011095
  54.1079434  67.6900971  52.3104969  52.9624089  67.4061861  51.3623268
  53.7360022  53.8281142  58.4415844  52.8223102  54.0585369  58.6098051
  54.1653123  53.9119586  59.2929877  53.5066481  62.0171034  60.9415738
  52.8537931  62.2646942  60.2868191  53.8846860  61.2035172  60.6078215
  50.4673654  72.0530727  55.0443908  50.6496049  71.2352383  55.5071661
  51.2906640  72.2698419  54.6068798  50.8015820  70.9798912  52.3058957
  51.3303586  70.4691367  51.6929119  51.0644039  70.6641443  53.1704490
  41.3032913  68.9962782  60.0494290  41.8886349  68.2506470  60.1822195
  41.1057751  69.3066738  60.9330954  44.1571568  72.0314029  55.0656733
  43.4881943  72.5160157  54.5820773  44.0184438  72.2783249  55.9800111
  35.8950567  61.5668382  58.7698734  35.9334667  61.0331973  59.5635852
  35.3890860  61.0403587  58.1509711  48.2976836  74.0657773  61.6639391
  48.8495144  74.2289394  62.4288476  48.6383030  74.6562210  60.9919416
  43.2741330  56.4132922  62.2661276  43.3382656  57.2747753  61.8538674
  43.2108450  55.8006924  61.5333634  53.1487711  68.8919030  67.5188046
  53.6927615  69.5048988  67.0243000  52.5674556  69.4498608  68.0355059
  39.5259145  60.2932484  51.8452665  39.8212586  59.3843162  51.7919719
  38.6247181  60.2720223  51.5233667  51.4345224  72.0139748  58.6503073
  51.3096363  71.2129488  58.1414019  52.0924315  72.5085941  58.1617043
  43.0553392  58.3688481  57.8280214  42.3339978  58.9824448  57.6887687
  43.8446648  58.9046245  57.7496860  53.4980132  69.8148768  60.2782623
  52.5510468  69.6954119  60.2060950  53.8462905  68.9271266  60.3608885
  45.8579705  55.7042907  64.1020865  46.3814107  55.9505204  64.8647175
  45.6392039  56.5362942  63.6824003  41.2546987  57.9746582  51.9691990
  40.9259693  57.0943961  51.7867096  41.6086357  57.9194250  52.8568379
  50.5026565  69.6101484  56.4786976  50.3551528  68.6818192  56.6594546
  51.3280059  69.6321575  55.9944051  44.3688810  58.2619551  52.3367468
  44.7084882  58.7905473  51.6146076  44.8160930  58.5999958  53.1126034
  54.1060687  70.4330043  57.5651848  55.0307235  70.2272904  57.4276300
  53.9375991  70.1846444  58.4741190  47.0632251  56.6456602  61.7870536
  46.7229071  55.8464415  62.1891216  46.3571257  56.9458313  61.2147369
  47.7148722  53.7305915  60.2397859  48.5374792  53.2566393  60.1176749
  47.9586786  54.5096398  60.7396545  46.3556957  56.7594173  50.5360761
  47.0765319  57.1375426  50.0324477  45.7322261  57.4783050  50.6395739
  50.4988080  57.4639322  51.4719093  50.7151694  58.3463960  51.1707921
  50.0182147  57.0725535  50.7424735  45.2387301  60.4225035  58.0489838
  45.0931882  60.7365338  58.9414119  44.7612505  61.0409936  57.4960736
  47.0983684  57.4127583  58.0970727  47.0845253  56.5168677  57.7603025
  47.8156112  57.4198247  58.7309013  48.9509815  57.8464923  60.1423855
  48.6927593  58.7681994  60.1408185  48.4194855  57.4495358  60.8324319
  53.8956003  70.9515711  52.9213940  54.0692881  70.3862133  52.1687792
  54.3884895  71.7516605  52.7393430  46.5020580  56.2941964  53.3658297
  46.6236491  55.3658610  53.5649185  46.2122622  56.3080649  52.4536613
  49.3711770  53.9796874  56.5025017  49.3933467  54.0436207  55.5476997
  49.7879829  53.1401383  56.6965523  59.7495395  63.7152134  54.5404240
  60.1926541  62.9659459  54.1423363  58.8721905  63.7062270  54.1577972
  54.8831176  70.2682475  50.0210838  55.5782081  70.8889168  50.2398153
  55.2254326  69.4177826  50.2963216  56.7822599  67.7182181  51.5498169
  57.3073923  68.0569453  50.8247489  56.6944952  66.7829196  51.3661304
  48.4442648  71.6316254  63.6788046  48.7529774  71.3865401  64.5510745
  49.2418130  71.8362893  63.1906916  48.4663260  73.7854164  55.9093422
  48.0268250  73.2930542  56.6026279  49.2171377  73.2427131  55.6685497
  40.9455599  69.9765705  55.9118050  41.7713619  69.6769477  55.5316694
  40.5949651  69.2073327  56.3607839  45.9137132  69.3292173  57.9815724
  45.2917141  68.6662878  57.6817952  46.5841999  69.3553305  57.2989372
  39.1464204  67.8952031  56.8706984  38.3096112  67.4674205  56.6890985
  39.1187849  68.0884474  57.8077775  56.4716505  68.3515084  66.8549367
  55.6812049  68.3339223  66.3153866  56.2349860  68.8903378  67.6098404
  56.5914380  65.2007551  64.1682095  56.6412385  65.0357558  65.1097618
  56.4828304  64.3334810  63.7779976  45.4750639  67.8796096  51.4574184
  45.6238759  68.5631561  50.8040857  46.2817082  67.8601186  51.9723640
  58.0932577  67.6204492  64.4124117  57.8017385  67.9834473  65.2487578
  57.4804708  66.9071500  64.2337449  59.2928259  65.1857372  56.9326687
  60.1275151  65.6247176  57.0964248  59.4287388  64.7096025  56.1134933
  56.3419765  62.7437107  62.8804175  56.8173887  62.9364753  62.0723026
  55.4185331  62.7996292  62.6347559  43.2303272  63.9061274  52.4635253
  42.9849314  63.0023604  52.6615463  43.3999186  63.9078424  51.5214731
  42.4998919  59.6389631  49.9621415  41.8068164  59.7133986  49.3061451
  42.2550671  58.8749975  50.4842932  51.1712576  51.1985233  57.3660905
  51.4514330  50.5308422  57.9921332  51.9563183  51.3914328  56.8535569
  48.9746044  70.3744227  48.9285932  48.4020011  70.9934414  48.4756404
  49.5478838  70.9243588  49.4625854  55.0421434  59.6202867  61.1132481
  55.9938857  59.7200964  61.1344705  54.8724885  58.8281135  61.6230565
  52.1943304  70.6581377  50.0594514  53.1273977  70.5926938  50.2627390
  52.1066517  71.4937644  49.6009047  54.8231321  69.9747247  47.0198462
  54.7444952  69.6407111  47.9134220  55.6440988  70.4669015  47.0189934
  57.5209512  62.8408986  60.2274780  57.4885832  61.9024987  60.4134464
  58.1310136  62.9193023  59.4940605  49.3592843  61.7105039  46.2701984
  50.3051948  61.5811248  46.3390402  48.9807088  60.9719701  46.7471412
  57.6704001  59.6320030  60.2733063  57.1543049  58.8478487  60.0862992
  58.5543949  59.3038746  60.4379583  55.3314727  53.3761045  56.2328876
  55.1339549  53.0676134  57.1172208  55.9414433  54.1022684  56.3626806
  47.5435760  59.6355016  46.2056870  46.6367215  59.3388129  46.2819583
  47.8211741  59.3384834  45.3391156  38.4613700  60.9561379  56.6555916
  38.1416485  60.1026687  56.3630290  37.9147129  61.1709957  57.4113883
  42.2393608  63.6723820  60.3725422  42.4579618  64.6040928  60.3913456
  42.6519382  63.3131795  61.1580226  49.1597826  54.1791906  52.3601111
  48.3498554  53.8338990  52.7356357  49.8482243  53.8699449  52.9488722
  51.0888374  53.2569952  53.9825407  51.6419413  53.6765406  54.6415431
  51.3258460  52.3305700  54.0248363  46.3134545  56.4941951  46.3468849
  47.1753709  56.8196849  46.6064666  46.4984889  55.7073447  45.8341915
  38.3301960  64.5764291  58.6249038  37.6365432  64.1618243  58.1118992
  39.0774951  64.6184827  58.0282456  54.4667181  55.3670477  53.4904072
  53.8865850  56.0255282  53.1082124  54.2003114  54.5447822  53.0791489
  52.9170748  54.7675535  55.6925392  53.4170526  54.8792070  54.8839711
  53.5606355  54.4636588  56.3326200  40.2438703  64.5082544  56.5015052
  40.2209391  64.6070232  55.5496935  40.5539339  65.3547695  56.8232219
  42.9026081  66.5658700  60.6161667  43.8569334  66.5342642  60.5491598
  42.7038604  66.1049323  61.4311893  43.4925463  65.1359816  63.1832464
  44.3118352  65.6303894  63.2067302  43.7662271  64.2191784  63.1550032
  53.2492059  57.5270568  52.5460420  52.3617914  57.8120218  52.3280615
  53.6646048  57.3664331  51.6987697  56.6006595  57.5517089  56.2614759
  57.3766985  58.0413541  56.5339376  55.8754729  57.9775143  56.7186629
  59.0379154  58.2644708  57.3188700  59.6323645  58.0240444  56.6082008
  59.1105738  57.5451839  57.9462236  41.2576310  72.1078319  57.6331865
  41.1230778  71.3478720  57.0669863  40.8408372  72.8319219  57.1660654
  52.3935273  67.2915243  46.6408440  53.0971123  67.4965245  47.2566096
  51.6697921  67.8592004  46.9057523  53.2233083  63.0425104  52.7610710
  53.1668284  63.4993655  51.9218343  53.7761425  62.2815788  52.5833553
  57.0337889  58.8314836  53.5860830  56.7774823  58.4311471  54.4169037
  56.4090757  59.5458630  53.4610969  61.3450227  61.5710909  56.0932121
  60.7849785  61.6404098  56.8663683  60.7393730  61.3951894  55.3731617
  44.4145435  73.0047636  57.8450307  44.2977820  73.9493069  57.7428998
  43.5937882  72.7021198  58.2336107  54.3021970  67.7297772  48.6906900
  55.1367574  67.2978970  48.5084375  54.1406313  67.5579785  49.6183794
  53.9567862  64.2329885  50.0563239  53.9016666  64.0674156  49.1151683
  53.3313917  64.9405918  50.2125429  51.2713769  66.5378797  69.3816802
  52.1404929  66.7119449  69.0203437  50.7920521  67.3573214  69.2592531
  47.2663988  53.7337994  49.6348558  47.2542657  54.6779834  49.7916829
  48.1587410  53.5508139  49.3408019  45.4399950  73.6575898  61.0606236
  46.3427196  73.6899508  61.3772731  45.2137320  72.7276349  61.0752572
  47.1953552  72.4106884  57.7216314  46.2449183  72.4108746  57.6080687
  47.4986038  71.6639619  57.2052349  51.0816107  50.3280771  53.8894495
  50.3148503  49.7739257  54.0351177  51.4926812  50.4002639  54.7508646
  55.1037953  80.8090432  50.4222092  55.8768829  80.2619419  50.2834967
  55.4563352  81.6734682  50.6336553  51.6603599  75.3897313  57.5370320
  50.8702653  75.6454842  57.0610431  52.1514846  76.2045651  57.6422361
  53.6118344  75.7541893  54.4953797  52.8149507  75.8660587  55.0137293
  53.3843936  76.0928545  53.6294688  49.9441302  75.6427804  59.9685311
  50.1949340  76.5274814  60.2342887  50.4800850  75.4632405  59.1960403
  55.6439369  70.0246283  68.9729647  55.2506315  69.4712482  69.6477292
  56.4605509  70.3356862  69.3636165  52.6101427  81.4630141  52.8843217
  53.1225947  82.2573392  53.0348782  53.2624140  80.7656432  52.8176819
  53.7048668  76.6260530  64.8428134  53.5902183  75.7245787  65.1435232
  52.8493186  76.8724226  64.4912950  50.5750344  79.7918796  53.6602788
  51.4125566  80.2015804  53.4436495  50.7528611  78.8518238  53.6302982
  57.8303919  69.9228650  57.8129601  58.6956916  69.7271459  57.4535490
  57.8981428  69.6939002  58.7398957  55.4366238  72.1530858  55.1845967
  56.0109990  71.9306039  54.4519160  56.0237221  72.2219552  55.9374569
  57.7388906  69.0272107  53.9121037  57.0853318  68.7121124  53.2877652
  57.6969380  68.4047847  54.6380860  50.5976515  77.1309511  54.3313521
  50.4000914  76.5378872  53.6064588  50.0423179  76.8261721  55.0489460
  56.0079673  73.2128033  59.8259728  56.6479052  73.0716792  59.1282691
  55.1757204  72.9262546  59.4498330  53.0922740  76.6573545  52.0154473
  52.1620328  76.5958000  52.2324435  53.1880212  76.1349498  51.2191115
  53.0108289  73.1828358  54.6032715  53.2715107  74.0973691  54.4941875
  53.8325462  72.7152800  54.7529328  54.4833215  74.5966115  61.7731539
  55.1556268  74.3883477  61.1244188  53.6563001  74.3988201  61.3336772
  47.1576346  78.8159706  56.4981267  47.8447386  78.5021436  55.9102282
  47.0024474  79.7201071  56.2248518  51.9611068  73.7049903  60.9266290
  51.8769257  73.0975572  60.1916700  51.1393774  74.1958921  60.9275787
  46.7344322  76.8960300  58.7698734  46.7728421  76.3623890  59.5635852
  46.2284615  76.3695505  58.1509711  54.1135084  71.7424840  62.2661276
  54.1776411  72.6039671  61.8538674  54.0502204  71.1298842  61.5333634
  53.5887357  73.8147973  65.9134310  54.2159395  73.4325050  66.5271835
  52.7315276  73.5962175  66.2790003  50.3652899  75.6224402  51.8452665
  50.6606341  74.7135080  51.7919719  49.4640935  75.6012141  51.5233667
  53.8947146  73.6980398  57.8280214  53.1733732  74.3116366  57.6887687
  54.6840402  74.2338163  57.7496860  56.6973460  71.0334825  64.1020865
  57.2207862  71.2797121  64.8647175  56.4785793  71.8654860  63.6824003
  52.0940741  73.3038499  51.9691990  51.7653447  72.4235878  51.7867096
  52.4480112  73.2486168  52.8568379  55.2082564  73.5911469  52.3367468
  55.5478637  74.1197390  51.6146076  55.6554685  73.9291875  53.1126034
  57.9026005  71.9748520  61.7870536  57.5622825  71.1756333  62.1891216
  57.1965011  72.2750231  61.2147369  58.5542477  69.0597832  60.2397859
  59.3768546  68.5858310  60.1176749  58.7980540  69.8388316  60.7396545
  57.1950711  72.0886091  50.5360761  57.9159074  72.4667344  50.0324477
  56.5716015  72.8074968  50.6395739  57.9377438  72.7419501  58.0970727
  57.9239007  71.8460594  57.7603025  58.6549867  72.7490165  58.7309013
  59.7903569  73.1756841  60.1423855  59.5321347  74.0973912  60.1408185
  59.2588610  72.7787276  60.8324319  50.5526718  78.2922297  60.9877499
  50.0080186  79.0682105  61.1197773  51.4306068  78.6393102  60.8296620
  51.3392740  77.4192194  63.8807656  50.5974476  77.5674829  64.4672286
  51.0185484  77.6800459  63.0174405  54.0697026  79.2353192  52.4635253
  53.8243068  78.3315522  52.6615463  54.2392941  79.2370342  51.5214731
  53.3392674  74.9681549  49.9621415  52.6461919  75.0425904  49.3061451
  53.0944426  74.2041893  50.4842932  49.3007455  76.2853297  56.6555916
  48.9810239  75.4318605  56.3630290  48.7540883  76.5001875  57.4113883
  49.1695715  79.9056208  58.6249038  48.4759186  79.4910161  58.1118992
  49.9168706  79.9476745  58.0282456  51.0832457  79.8374462  56.5015052
  51.0603146  79.9362149  55.5496935  51.3933094  80.6839613  56.8232219
  55.2539190  88.3339554  57.8450307  55.1371574  89.2784986  57.7428998
  54.4331636  88.0313115  58.2336107  49.5854132  74.7989867  63.8824662
  50.2312995  74.2888821  64.3711887  49.3771283  75.5358549  64.4568087
  53.9251623  71.9457484  67.9799676  54.7883084  71.5894289  68.1903000
  53.3517033  71.6071379  68.6675080  84.6093754 108.9051258  58.7862077
  85.2472164 108.7858006  58.0825417  84.4914597 109.8532102  58.8450029
  74.8234708 112.2065354  57.5504713  75.6156000 111.8656179  57.1351012
  75.0631358 112.3160329  58.4706866  82.8569835 114.3785130  50.0234957
  82.2057815 114.9639211  49.6368971  83.6514198 114.9091325  50.0829995
  76.7825462 111.4674268  50.4222092  77.5556338 110.9203255  50.2834967
  77.1350861 112.3318517  50.6336553  79.1191740 107.6266934  48.0540542
  79.3717260 107.1048455  47.2924005  78.1816299 107.4633079  48.1567225
  84.3345100 112.0675562  50.5603942  83.6990933 112.1410189  51.2724846
  84.0042506 112.6569161  49.8823021  83.5800390 112.4812065  60.6238785
  83.2801113 113.3837104  60.5154592  83.2351449 112.2144249  61.4759938
  78.5621169 119.2456386  53.5909752  78.4845199 120.1964211  53.6698233
  77.9582813 118.9002258  54.2484679  85.1068926 111.9300036  58.1613537
  84.4777788 112.0945750  57.4589604  84.7194588 112.3441645  58.9324501
  88.9858158 112.8654473  55.5157900  88.3009196 113.2453375  54.9654934
  89.0702007 113.4749800  56.2489848  87.3554917 113.3886388  60.2875601
  88.1772361 112.9866575  60.0058283  87.3517320 113.2854622  61.2391717
  81.1211521 112.9370431  62.4436312  81.1855953 113.3990838  63.2794484
  80.4122445 112.3067796  62.5718622  95.4460910 109.7325136  56.6360573
  94.6924619 109.1632534  56.4804577  95.5808451 109.6987801  57.5831207
  80.8359538 114.6038539  52.3115292  80.7005213 115.4490074  52.7400140
  81.3769351 114.8057816  51.5481226  76.0983820 115.2379733  54.9665970
  76.2750449 116.1597698  54.7786954  76.8940654 114.9238152  55.3960350
  77.2215136 116.7557907  60.9676313  77.7722561 116.6274970  60.1953307
  76.3826612 117.0552796  60.6171205  84.1502285 108.1177712  49.3486621
  83.6348908 108.8882316  49.5875008  83.8779593 107.4442848  49.9719682
  89.1236559 110.8710066  51.2839794  88.3466001 110.5321226  50.8394956
  89.8028040 110.8762689  50.6094759  82.3835020 112.1495027  52.8239356
  81.8556381 111.4147787  52.5112593  81.8822522 112.9269703  52.5779324
  87.3627866 110.3444048  57.9406402  86.7051540 111.0343309  58.0286531
  88.1668265 110.7340479  58.2840388  86.1733324 108.6988420  55.9910344
  86.6865206 109.3318412  56.4932054  86.8234548 108.0989616  55.6253704
  80.5287620 109.9675237  45.8274329  79.6214682 109.7364491  46.0265478
  81.0258652 109.1712857  46.0148310  83.4355699 118.6772745  48.7471015
  82.7617397 118.9804441  49.3555973  83.8221521 119.4801825  48.3976472
  81.7075853 110.0687832  50.3498319  80.7987072 109.7846865  50.4470789
  81.7370937 110.4886911  49.4901626  86.9395121 113.6794422  54.1189487
  86.4857448 112.8385332  54.1754677  86.3089087 114.3155820  54.4564267
  85.3828060 115.5170918  55.0539305  85.6751034 116.0775975  54.3351670
  85.8926680 115.8099479  55.8092464  81.4051941 111.6096576  47.6886398
  80.9671371 110.8932435  47.2292035  82.1462382 111.8372691  47.1271489
  80.3461685 116.2951269  56.1432758  80.3037864 116.5212116  55.2141290
  81.2624384 116.0614644  56.2918559  89.5225056 109.8853773  53.7462716
  89.3842954 110.0755369  52.8183905  89.1661275 110.6473156  54.2030767
  89.5494435 111.9530300  58.7573988  89.9830942 111.8605589  59.6057042
  90.2626016 111.9287800  58.1194004  78.4627486 113.1714298  55.9394721
  79.2568084 112.6764619  55.7377296  77.7519178 112.6432162  55.5762426
  83.2822330 115.5532394  60.2907088  83.3359353 116.1223330  61.0584804
  82.4137112 115.7234279  59.9261125  82.2410430 109.7192656  61.8494020
  83.1702490 109.8703816  61.6762987  81.8201460 109.8076677  60.9942667
  81.0398762 113.7443320  59.6192558  80.9009848 113.3762105  60.4918496
  80.2513358 114.2590960  59.4476515  81.6346914 118.8452417  50.9618094
  81.8098670 118.3740460  51.7763717  80.9479702 119.4718183  51.1899355
  82.5903977 113.1224923  57.0081395  82.2553810 113.0825693  57.9039045
  82.0907923 112.4569639  56.5351806  85.5263169 110.4680958  47.2818455
  84.9092339 109.7427786  47.1851508  85.0579657 111.2290318  46.9385529
  76.2007999 121.9941780  57.7357954  76.4404597 122.6260304  58.4136973
  75.3577196 121.6429820  58.0223314  80.7135861 117.8020902  60.1399458
  80.6406032 118.6075874  60.6518763  80.2713254 118.0012868  59.3147480
  80.5025641 117.0392672  53.6502280  79.7193162 117.5814352  53.7440504
  81.2018386 117.5566652  54.0496521  91.6652048 108.5527667  57.9354777
  91.6541924 109.4352383  57.5648710  90.7969428 108.1999218  57.7409314
  83.1734544 117.7007736  62.2957617  83.8862517 118.3355201  62.2233518
  82.6824573 117.7971602  61.4797619  84.8952071 111.6058989  53.8674909
  83.9608350 111.7260451  53.6979613  85.0728740 110.7031456  53.6034919
  86.3500854 113.7920129  51.4011095  86.6260698 113.6776724  52.3104969
  85.4805353 113.3937614  51.3623268  82.9854918 118.0406480  55.0443908
  83.1677312 117.2228136  55.5071661  83.8087904 118.2574173  54.6068798
  83.3197083 116.9674665  52.3058957  83.8484850 116.4567120  51.6929119
  83.5825303 116.6517196  53.1704490  73.8214176 114.9838535  60.0494290
  74.4067613 114.2382223  60.1822195  73.6239015 115.2942491  60.9330954
  76.6752831 118.0189782  55.0656733  76.0063207 118.5035910  54.5820773
  76.5365701 118.2659003  55.9800111  80.8158100 120.0533526  61.6639391
  81.3676408 120.2165147  62.4288476  81.1564293 120.6437963  60.9919416
  83.9526487 118.0015501  58.6503073  83.8277627 117.2005241  58.1414019
  84.6105578 118.4961694  58.1617043  86.0161396 115.8024521  60.2782623
  85.0691731 115.6829872  60.2060950  86.3644169 114.9147019  60.3608885
  83.0207829 115.5977237  56.4786976  82.8732791 114.6693945  56.6594546
  83.8461322 115.6197328  55.9944051  86.6241951 116.4205796  57.5651848
  87.5488498 116.2148657  57.4276300  86.4557254 116.1722197  58.4741190
  86.4137267 116.9391464  52.9213940  86.5874144 116.3737886  52.1687792
  86.9066158 117.7392358  52.7393430  92.2676658 109.7027887  54.5404240
  92.7107804 108.9535212  54.1423363  91.3903168 109.6938023  54.1577972
  87.4012439 116.2558228  50.0210838  88.0963344 116.8764921  50.2398153
  87.7435590 115.4053579  50.2963216  89.3003863 113.7057934  51.5498169
  89.8255187 114.0445206  50.8247489  89.2126215 112.7704949  51.3661304
  80.9623911 117.6192007  63.6788046  81.2711038 117.3741154  64.5510745
  81.7599393 117.8238646  63.1906916  80.9844523 119.7729917  55.9093422
  80.5449514 119.2806296  56.6026279  81.7352640 119.2302884  55.6685497
  73.4636862 115.9641458  55.9118050  74.2894882 115.6645230  55.5316694
  73.1130914 115.1949080  56.3607839  78.4318395 115.3167926  57.9815724
  77.8098405 114.6538631  57.6817952  79.1023262 115.3429058  57.2989372
  77.9931902 113.8671849  51.4574184  78.1420023 114.5507314  50.8040857
  78.7998346 113.8476939  51.9723640  91.8109523 111.1733125  56.9326687
  92.6456414 111.6122929  57.0964248  91.9468652 110.6971778  56.1134933
  81.4927308 116.3619980  48.9285932  80.9201275 116.9810167  48.4756404
  82.0660102 116.9119341  49.4625854  84.7124568 116.6457130  50.0594514
  85.6455241 116.5802692  50.2627390  84.6247780 117.4813397  49.6009047
  87.3412584 115.9623000  47.0198462  87.2626216 115.6282864  47.9134220
  88.1622251 116.4544768  47.0189934  81.8774106 107.6980792  46.2701984
  82.8233211 107.5687001  46.3390402  81.4988351 106.9595454  46.7471412
  95.8567325 109.8900746  59.3680817  96.5870714 109.6286034  59.9288520
  95.2474271 109.1529468  59.4082885  73.7757573 118.0954072  57.6331865
  73.6412041 117.3354473  57.0669863  73.3589635 118.8194972  57.1660654
  84.9116536 113.2790996  46.6408440  85.6152386 113.4840998  47.2566096
  84.1879185 113.8467757  46.9057523  85.7414346 109.0300857  52.7610710
  85.6849548 109.4869408  51.9218343  86.2942689 108.2691541  52.5833553
  93.8631490 107.5586662  56.0932121  93.3031048 107.6279851  56.8663683
  93.2574994 107.3827647  55.3731617  76.9326699 118.9923389  57.8450307
  76.8159083 119.9368822  57.7428998  76.1119145 118.6896951  58.2336107
  86.8203233 113.7173525  48.6906900  87.6548837 113.2854723  48.5084375
  86.6587576 113.5455538  49.6183794  86.4749126 110.2205638  50.0563239
  86.4197929 110.0549910  49.1151683  85.8495181 110.9281671  50.2125429
  77.9581213 119.6451651  61.0606236  78.8608460 119.6775261  61.3772731
  77.7318583 118.7152102  61.0752572  79.7134815 118.3982637  57.7216314
  78.7630446 118.3984499  57.6080687  80.0167301 117.6515372  57.2052349
  95.4487509 124.2343176  58.7862077  96.0865919 124.1149923  58.0825417
  95.3308351 125.1824020  58.8450029  92.2577215 124.1870604  58.7223601
  91.9195726 124.0711669  57.8344136  93.1266983 123.7861769  58.7024608
  88.1164031 126.0406080  54.7120492  87.5528896 125.9496017  53.9436780
  88.0016426 125.2205985  55.1922985  92.7396998 125.3405456  64.6809807
  92.7285639 124.9458254  63.8090311  92.9017637 124.6071528  65.2743578
  85.6628462 127.5357272  57.5504713  86.4549754 127.1948097  57.1351012
  85.9025113 127.6452247  58.4706866  93.6963589 129.7077048  50.0234957
  93.0451569 130.2931129  49.6368971  94.4907952 130.2383243  50.0829995
  87.6219216 126.7966185  50.4222092  88.3950092 126.2495172  50.2834967
  87.9744615 127.6610435  50.6336553  89.4604259 128.1242568  63.6288991
  89.1694125 129.0288198  63.5135657  90.0961243 128.1659095  64.3433061
  90.3860466 125.5019416  60.2190351  90.9824038 125.2775438  59.5047314
  90.4435437 124.7604162  60.8215798  89.9585494 122.9558851  48.0540542
  90.2111015 122.4340373  47.2924005  89.0210053 122.7924997  48.1567225
  95.0028777 121.9594630  55.8615285  95.7891866 121.5414053  55.5105702
  95.2667481 122.8640722  56.0296933  95.1738854 127.3967480  50.5603942
  94.5384687 127.4702107  51.2724846  94.8436261 127.9861079  49.8823021
 100.4037204 121.8969863  56.7648263 101.1362376 121.3269080  56.9986093
  99.6476560 121.5091463  57.2054769  89.6781783 124.8586957  50.2564917
  89.5618041 124.1831861  50.9246001  89.7884043 124.3719331  49.4397070
  92.0213324 124.3197104  53.9611606  91.6571531 123.7927725  54.6724527
  92.8780440 123.9295573  53.7878091  91.6618811 119.3487004  48.9572954
  91.8293213 120.2167241  49.3243425  91.4715980 119.5114286  48.0334244
  94.4194144 127.8103983  60.6238785  94.1194867 128.7129022  60.5154592
  94.0745204 127.5436166  61.4759938  87.8706626 124.2617780  56.6575489
  86.9457122 124.1293994  56.8653181  88.1191039 125.0411999  57.1545431
  97.8191288 120.3286523  58.3036222  96.9108165 120.2601932  58.0094983
  97.7678884 120.8058468  59.1318047  91.6408032 121.8044662  49.9419621
  91.5207657 122.2501712  50.7805101  90.9460620 122.1529979  49.3833159
  85.2315437 123.9051053  57.4919278  85.3607818 124.1585532  58.4058690
  84.5512888 124.4978761  57.1723933  89.4014924 134.5748303  53.5909752
  89.3238954 135.5256128  53.6698233  88.7976567 134.2294176  54.2484679
  99.6852934 118.5302962  60.0814096  99.0427315 118.8235495  59.4353890
  99.1807863 118.4155882  60.8867293  97.3393098 122.2766135  50.7699955
  98.2510954 122.5093522  50.5947653  96.8302745 122.8603179  50.2075034
  90.1478526 124.5561622  65.8089086  90.8893210 125.0946666  65.5323910
  89.4415511 125.1827911  65.9660638  95.6233866 126.6990763  64.4061248
  96.0317222 126.2573173  63.6615880  94.9011127 126.1243390  64.6595441
  91.9764936 121.6363369  61.7794805  92.8226131 122.0602783  61.9229454
  91.9163573 120.9796994  62.4733368  95.9462680 127.2591953  58.1613537
  95.3171543 127.4237667  57.4589604  95.5588342 127.6733563  58.9324501
  99.8251912 128.1946391  55.5157900  99.1402950 128.5745292  54.9654934
  99.9095761 128.8041718  56.2489848  95.1264381 119.2967738  63.4375978
  94.8825313 120.0509798  62.9010254  95.4024311 119.6753085  64.2723225
  97.0802844 125.8406350  62.1153244  97.2919739 126.4838110  61.4387625
  97.0332592 125.0068667  61.6475174  91.4990642 126.9966361  55.4263622
  91.9628988 127.2754064  54.6368244  91.2347440 126.0949806  55.2436712
  88.3914723 126.5437843  58.3643385  88.9616080 126.9725111  57.7260869
  88.9822835 126.2620428  59.0627571  90.4359528 123.1189514  52.2353187
  91.1383572 123.5710557  52.7027113  90.1040157 122.4773333  52.8633080
  84.1784862 121.3773066  57.5370320  83.3883916 121.6330595  57.0610431
  84.6696110 122.1921404  57.6422361  98.1948672 128.7178306  60.2875601
  99.0166115 128.3158493  60.0058283  98.1911075 128.6146540  61.2391717
  86.1299608 121.7417646  54.4953797  85.3330771 121.8536340  55.0137293
  85.9025200 122.0804298  53.6294688  91.9605275 128.2662349  62.4436312
  92.0249708 128.7282756  63.2794484  91.2516199 127.6359714  62.5718622
  82.4622565 121.6303557  59.9685311  82.7130604 122.5150567  60.2342887
  82.9982114 121.4508158  59.1960403 106.2854665 125.0617054  56.6360573
 105.5318373 124.4924452  56.4804577 106.4202206 125.0279719  57.5831207
  91.6753293 129.9330456  52.3115292  91.5398968 130.7781992  52.7400140
  92.2163105 130.1349734  51.5481226  85.1282690 127.4505894  52.8843217
  85.6407211 128.2449145  53.0348782  85.7805403 126.7532185  52.8176819
  86.9377575 130.5671651  54.9665970  87.1144203 131.4889615  54.7786954
  87.7334408 130.2530070  55.3960350  93.3021769 130.5554023  66.4415634
  92.8585623 129.7690401  66.1236539  93.9638983 130.7433173  65.7759525
  88.0608890 132.0849824  60.9676313  88.6116315 131.9566888  60.1953307
  87.2220366 132.3844713  60.6171205  95.4003007 130.8356823  64.4697035
  95.3821483 131.6565704  63.9777305  96.3222927 130.7110898  64.6947177
  91.8576061 128.3500952  65.3120544  92.3904398 127.5889240  65.0819852
  91.3290142 128.0574604  66.0544698  83.0931607 125.7794549  53.6602788
  83.9306829 126.1891557  53.4436495  83.2709875 124.8393991  53.6302982
  94.9896039 123.4469629  49.3486621  94.4742663 124.2174234  49.5875008
  94.7173348 122.7734765  49.9719682  92.5743150 118.2919330  54.4071859
  91.7184746 117.9026180  54.2277498  92.9870102 118.3711291  53.5471645
  94.1042297 115.8265673  58.8063419  93.6007092 115.7895809  57.9931224
  94.3972904 116.7358416  58.8660075  90.3485183 115.9104403  57.8129601
  91.2138179 115.7147212  57.4535490  90.4162692 115.6814755  58.7398957
  99.9630313 126.2001984  51.2839794  99.1859756 125.8613143  50.8394956
 100.6421794 126.2054607  50.6094759  94.7782342 121.3196721  51.1746402
  94.4732478 121.6342871  52.0256545  95.7312784 121.3978141  51.2173735
  93.2228774 127.4786945  52.8239356  92.6950136 126.7439704  52.5112593
  92.7216277 128.2561621  52.5779324  98.2021620 125.6735965  57.9406402
  97.5445295 126.3635227  58.0286531  99.0062019 126.0632397  58.2840388
  87.9547502 118.1406611  55.1845967  88.5291254 117.9181793  54.4519160
  88.5418484 118.2095306  55.9374569  97.0127079 124.0280338  55.9910344
  97.5258961 124.6610330  56.4932054  97.6628303 123.4281533  55.6253704
  88.2817089 120.1711072  49.2041853  87.4454401 120.5085759  49.5251127
  88.1421858 120.0360052  48.2668990  90.2570169 115.0147860  53.9121037
  89.6034582 114.6996877  53.2877652  90.2150644 114.3923600  54.6380860
  91.3681374 125.2967155  45.8274329  90.4608436 125.0656408  46.0265478
  91.8652406 124.5004774  46.0148310  94.2749453 134.0064662  48.7471015
  93.6011152 134.3096359  49.3555973  94.6615275 134.8093743  48.3976472
  93.4907910 121.5029793  58.2368684  92.5730471 121.7244740  58.0790372
  93.9068053 121.5776104  57.3780392  94.2742958 122.9021209  53.3671365
  95.0214776 123.4142606  53.0578487  94.5434547 122.5805262  54.2275758
  92.5469608 125.3979750  50.3498319  91.6380827 125.1138783  50.4470789
  92.5764692 125.8178828  49.4901626  97.7788875 129.0086339  54.1189487
  97.3251202 128.1677249  54.1754677  97.1482842 129.6447738  54.4564267
  96.7221795 119.9378325  55.3490154  95.9844551 119.4255712  55.6800397
  96.9748568 119.4978707  54.5373431  96.2221814 130.8462836  55.0539305
  96.5144789 131.4067893  54.3351670  96.7320435 131.1391397  55.8092464
  96.8233422 112.7154577  55.9431923  97.1292299 111.8551941  55.6557838
  97.5486027 113.3072198  55.7430917  83.1157778 123.1185264  54.3313521
  82.9182178 122.5254625  53.6064588  82.5604442 122.8137474  55.0489460
  91.0954502 123.0108370  56.4508114  91.1503112 122.0582207  56.3750591
  90.2845704 123.1667810  56.9349413  92.2445696 126.9388494  47.6886398
  91.8065125 126.2224352  47.2292035  92.9856136 127.1664608  47.1271489
  89.0346862 121.6285430  54.2098493  88.2214727 121.9279601  54.6163685
  89.5305856 121.2341119  54.9272975  91.1855440 131.6243187  56.1432758
  91.1431618 131.8504033  55.2141290  92.1018138 131.3906562  56.2918559
  94.6321073 122.0927255  63.0413387  94.9870461 122.3198728  63.9007853
  95.2793205 122.4245631  62.4190642 100.3618810 125.2145691  53.7462716
 100.2236709 125.4047287  52.8183905 100.0055029 125.9765073  54.2030767
  88.5260936 119.2003786  59.8259728  89.1660316 119.0592545  59.1282691
  87.6938467 118.9138299  59.4498330 100.3888190 127.2822218  58.7573988
 100.8224697 127.1897507  59.6057042 101.1019771 127.2579718  58.1194004
  89.3021240 128.5006216  55.9394721  90.0961839 128.0056536  55.7377296
  88.5912933 127.9724079  55.5762426  94.1216085 130.8824312  60.2907088
  94.1753107 131.4515248  61.0584804  93.2530866 131.0526197  59.9261125
  85.6104004 122.6449298  52.0154473  84.6801592 122.5833753  52.2324435
  85.7061476 122.1225251  51.2191115  85.5289553 119.1704111  54.6032715
  85.7896370 120.0849444  54.4941875  86.3506725 118.7028553  54.7529328
  87.0014478 120.5841868  61.7731539  87.6737532 120.3759230  61.1244188
  86.1744265 120.3863954  61.3336772 101.2503739 127.3245918  61.2906873
 101.4439630 128.2291729  61.5366148 101.1504358 126.8653337  62.1245458
  96.3118848 127.4752661  66.8647754  96.1604355 127.2463213  65.9477837
  96.3023528 128.4323262  66.8779099  93.0804185 125.0484574  61.8494020
  94.0096245 125.1995733  61.6762987  92.6595215 125.1368595  60.9942667
  91.8792516 129.0735238  59.6192558  91.7403602 128.7054023  60.4918496
  91.0907113 129.5882878  59.4476515  92.4740668 134.1744335  50.9618094
  92.6492424 133.7032378  51.7763717  91.7873456 134.8010101  51.1899355
  93.4297731 128.4516841  57.0081395  93.0947564 128.4117611  57.9039045
  92.9301677 127.7861557  56.5351806  87.4041975 123.8584471  62.5333977
  87.2661773 123.1264710  63.1345516  88.3146899 123.7693371  62.2518164
  96.3656923 125.7972875  47.2818455  95.7486094 125.0719703  47.1851508
  95.8973412 126.5582235  46.9385529  90.0324276 123.5704430  62.0217656
  90.7423895 122.9297622  61.9804275  89.9893584 123.8217325  62.9443837
  98.0211055 130.5071784  64.9424235  97.9623601 129.8231004  64.2754818
  98.4230573 131.2490774  64.4904861  87.0401754 137.3233697  57.7357954
  87.2798352 137.9552222  58.4136973  86.1970950 136.9721737  58.0223314
  88.1555469 120.0158299  46.4039759  87.2784935 119.8947100  46.0402006
  88.6313222 119.2244378  46.1518648  98.0228462 128.4711367  63.1738215
  97.1355241 128.1337289  63.2964614  98.5927013 127.7394399  63.4106981
  79.6757609 124.8035459  56.4981267  80.3628649 124.4897189  55.9102282
  79.5205738 125.7076824  56.2248518  84.4792331 119.6925656  60.9266290
  84.3950520 119.0851325  60.1916700  83.6575038 120.1834674  60.9275787
  91.5529615 133.1312820  60.1399458  91.4799787 133.9367791  60.6518763
  91.1107009 133.3304786  59.3147480  91.3419395 132.3684590  53.6502280
  90.5586917 132.9106270  53.7440504  92.0412140 132.8858569  54.0496521
  94.6516045 118.1779219  56.2936485  95.1484745 117.4249182  55.9737556
  93.8803027 118.2143536  55.7279695 102.5045803 123.8819585  57.9354777
 102.4935679 124.7644300  57.5648710 101.6363182 123.5291136  57.7409314
  94.0128299 133.0299654  62.2957617  94.7256271 133.6647119  62.2233518
  93.5218328 133.1263520  61.4797619  95.7345826 126.9350907  53.8674909
  94.8002105 127.0552369  53.6979613  95.9122494 126.0323373  53.6034919
  91.2351014 120.3196602  56.0208170  90.8648801 119.7667643  56.7089075
  91.7310106 119.7154736  55.4683170  99.1218377 122.7768226  54.4024943
  99.5878829 123.6096217  54.3285245  99.5725878 122.3113207  55.1070201
  89.0640213 130.7794097  63.1163188  89.7649672 131.4130580  63.2692582
  88.5935328 131.1208829  62.3558827  97.1894608 129.1212047  51.4011095
  97.4654452 129.0068642  52.3104969  96.3199107 128.7229532  51.3623268
  97.0935040 115.1448813  58.4415844  96.1798120 115.3753040  58.6098051
  97.5228141 115.2287257  59.2929877  96.8641498 123.3338705  60.9415738
  96.2112949 123.5814612  60.2868191  97.2421878 122.5202843  60.6078215
  93.8248672 133.3698398  55.0443908  94.0071067 132.5520054  55.5071661
  94.6481658 133.5866090  54.6068798  94.1590838 132.2966583  52.3058957
  94.6878604 131.7859038  51.6929119  94.4219057 131.9809113  53.1704490
  92.9129072 124.0758516  67.4281775  92.2369709 123.9752645  68.0984150
  93.7356705 123.9197730  67.8917772  84.6607931 130.3130452  60.0494290
  85.2461367 129.5674140  60.1822195  84.4632769 130.6234409  60.9330954
  87.5146586 133.3481700  55.0656733  86.8456961 133.8327827  54.5820773
  87.3759455 133.5950920  55.9800111  79.2525585 122.8836053  58.7698734
  79.2909685 122.3499643  59.5635852  78.7465878 122.3571258  58.1509711
  91.6551854 135.3825443  61.6639391  92.2070162 135.5457065  62.4288476
  91.9958048 135.9729881  60.9919416  96.5062729 130.2086701  67.5188046
  97.0502633 130.8216659  67.0243000  95.9249574 130.7666279  68.0355059
  82.8834163 121.6100155  51.8452665  83.1787604 120.7010833  51.7919719
  81.9822199 121.5887894  51.5233667  94.7920242 133.3307419  58.6503073
  94.6671381 132.5297159  58.1414019  95.4499333 133.8253612  58.1617043
  86.4128410 119.6856151  57.8280214  85.6914996 120.2992119  57.6887687
  87.2021666 120.2213916  57.7496860  96.8555150 131.1316439  60.2782623
  95.9085486 131.0121790  60.2060950  97.2037923 130.2438937  60.3608885
  84.6122004 119.2914252  51.9691990  84.2834711 118.4111631  51.7867096
  84.9661375 119.2361921  52.8568379  93.8601583 130.9269155  56.4786976
  93.7126546 129.9985863  56.6594546  94.6855077 130.9489246  55.9944051
  87.7263828 119.5787222  52.3367468  88.0659900 120.1073143  51.6146076
  88.1735948 119.9167628  53.1126034  97.4635705 131.7497714  57.5651848
  98.3882253 131.5440575  57.4276300  97.2951009 131.5014115  58.4741190
  91.0723740 115.0473585  60.2397859  91.8949810 114.5734064  60.1176749
  91.3161804 115.8264069  60.7396545  89.7131975 118.0761844  50.5360761
  90.4340337 118.4543097  50.0324477  89.0897279 118.7950721  50.6395739
  93.8563098 118.7806993  51.4719093  94.0726712 119.6631631  51.1707921
  93.3757165 118.3893206  50.7424735  88.5962319 121.7392706  58.0489838
  88.4506900 122.0533009  58.9414119  88.1187523 122.3577606  57.4960736
  90.4558702 118.7295254  58.0970727  90.4420271 117.8336347  57.7603025
  91.1731130 118.7365918  58.7309013  92.3084833 119.1632594  60.1423855
  92.0502610 120.0849665  60.1408185  91.7769873 118.7663029  60.8324319
  97.2531021 132.2683381  52.9213940  97.4267899 131.7029804  52.1687792
  97.7459913 133.0684276  52.7393430  83.0707981 124.2798050  60.9877499
  82.5261449 125.0557858  61.1197773  83.9487331 124.6268855  60.8296620
  89.8595598 117.6109634  53.3658297  89.9811509 116.6826280  53.5649185
  89.5697640 117.6248320  52.4536613  92.7286788 115.2964545  56.5025017
  92.7508485 115.3603878  55.5476997  93.1454847 114.4569053  56.6965523
 103.1070413 125.0319804  54.5404240 103.5501559 124.2827129  54.1423363
 102.2296923 125.0229941  54.1577972  98.2406194 131.5850146  50.0210838
  98.9357099 132.2056838  50.2398153  98.5829344 130.7345497  50.2963216
  83.8574003 123.4067947  63.8807656  83.1155739 123.5550582  64.4672286
  83.5366747 123.6676212  63.0174405 100.1397617 129.0349851  51.5498169
 100.6648941 129.3737124  50.8247489 100.0519970 128.0996867  51.3661304
  91.8017666 132.9483925  63.6788046  92.1104792 132.7033072  64.5510745
  92.5993148 133.1530563  63.1906916  91.8238278 135.1021834  55.9093422
  91.3843268 134.6098213  56.6026279  92.5746395 134.5594802  55.6685497
  84.3030617 131.2933375  55.9118050  85.1288637 130.9937147  55.5316694
  83.9524669 130.5240998  56.3607839  89.2712150 130.6459844  57.9815724
  88.6492159 129.9830549  57.6817952  89.9417017 130.6720975  57.2989372
  82.5039222 129.2119702  56.8706984  81.6671130 128.7841876  56.6890985
  82.4762867 129.4052145  57.8077775  99.8291523 129.6682755  66.8549367
  99.0387067 129.6506894  66.3153866  99.5924878 130.2071049  67.6098404
  99.9489398 126.5175221  64.1682095  99.9987403 126.3525229  65.1097618
  99.8403321 125.6502480  63.7779976  88.8325657 129.1963767  51.4574184
  88.9813777 129.8799231  50.8040857  89.6392100 129.1768857  51.9723640
  97.2393161 122.5006149  65.4841402  98.1403023 122.3612614  65.1925400
  97.3141135 122.6660604  66.4239580 101.4507595 128.9372163  64.4124117
 101.1592403 129.3002143  65.2487578 100.8379726 128.2239171  64.2337449
 102.6503277 126.5025043  56.9326687 103.4850169 126.9414847  57.0964248
 102.7862406 126.0263696  56.1134933  99.6994783 124.0604777  62.8804175
 100.1748905 124.2532424  62.0723026  98.7760349 124.1163963  62.6347559
  86.5878290 125.2228945  52.4635253  86.3424332 124.3191275  52.6615463
  86.7574204 125.2246095  51.5214731  85.8573937 120.9557302  49.9621415
  85.1643182 121.0301657  49.3061451  85.6125689 120.1917646  50.4842932
  94.5287594 112.5152903  57.3660905  94.8089348 111.8476093  57.9921332
  95.3138201 112.7081999  56.8535569  92.3321062 131.6911897  48.9285932
  91.7595029 132.3102085  48.4756404  92.9053856 132.2411259  49.4625854
  98.3996452 120.9370537  61.1132481  99.3513875 121.0368635  61.1344705
  98.2299903 120.1448806  61.6230565  95.5518322 131.9749048  50.0594514
  96.4848995 131.9094609  50.2627390  95.4641535 132.8105314  49.6009047
  98.1806339 131.2914918  47.0198462  98.1019970 130.9574781  47.9134220
  99.0016006 131.7836686  47.0189934 100.8784530 124.1576657  60.2274780
 100.8460850 123.2192658  60.4134464 101.4885154 124.2360694  59.4940605
  92.7167861 123.0272710  46.2701984  93.6626966 122.8978918  46.3390402
  92.3382106 122.2887372  46.7471412  98.6889745 114.6928716  56.2328876
  98.4914567 114.3843804  57.1172208  99.2989451 115.4190355  56.3626806
 106.6961080 125.2192664  59.3680817 107.4264468 124.9577952  59.9288520
 106.0868025 124.4821386  59.4082885 104.7776377 123.3600527  59.9655268
 104.0509541 123.2256492  59.3571760 104.3623664 123.6677355  60.7711986
  92.6006553 127.0790456  67.7302641  93.5209563 127.2569055  67.9242688
  92.5656136 126.1346502  67.5782341  90.9010778 120.9522687  46.2056870
  89.9942233 120.6555799  46.2819583  91.1786759 120.6552505  45.3391156
  81.8188718 122.2729050  56.6555916  81.4991503 121.4194358  56.3630290
  81.2722147 122.4877628  57.4113883  85.5968626 124.9891491  60.3725422
  85.8154636 125.9208599  60.3913456  86.0094400 124.6299465  61.1580226
  92.5172844 115.4959576  52.3601111  91.7073572 115.1506661  52.7356357
  93.2057261 115.1867120  52.9488722  94.4463392 114.5737623  53.9825407
  94.9994431 114.9933076  54.6415431  94.6833478 113.6473371  54.0248363
  89.6709563 117.8109622  46.3468849  90.5328727 118.1364520  46.6064666
  89.8559907 117.0241118  45.8341915  81.6876978 125.8931961  58.6249038
  80.9940450 125.4785914  58.1118992  82.4349969 125.9352498  58.0282456
  97.8242199 116.6838148  53.4904072  97.2440868 117.3422952  53.1082124
  97.5578132 115.8615493  53.0791489  96.2745765 116.0843206  55.6925392
  96.7745544 116.1959740  54.8839711  96.9181373 115.7804259  56.3326200
  83.6013721 125.8250215  56.5015052  83.5784409 125.9237902  55.5496935
  83.9114357 126.6715366  56.8232219  86.2601099 127.8826370  60.6161667
  87.2144352 127.8510313  60.5491598  86.0613622 127.4216994  61.4311893
  86.8500481 126.4527486  63.1832464  87.6693370 126.9471565  63.2067302
  87.1237289 125.5359454  63.1550032  96.6067077 118.8438239  52.5460420
  95.7192932 119.1287889  52.3280615  97.0221066 118.6832002  51.6987697
  99.9581613 118.8684760  56.2614759 100.7342003 119.3581212  56.5339376
  99.2329747 119.2942814  56.7186629 102.3954172 119.5812379  57.3188700
 102.9898663 119.3408115  56.6082008 102.4680756 118.8619509  57.9462236
  84.6151328 133.4245990  57.6331865  84.4805795 132.6646391  57.0669863
  84.1983390 134.1486890  57.1660654  95.7510291 128.6082913  46.6408440
  96.4546141 128.8132916  47.2566096  95.0272939 129.1759675  46.9057523
  96.5808101 124.3592775  52.7610710  96.5243302 124.8161326  51.9218343
  97.1336443 123.5983459  52.5833553 100.3912907 120.1482506  53.5860830
 100.1349841 119.7479142  54.4169037  99.7665775 120.8626300  53.4610969
 104.7025245 122.8878580  56.0932121 104.1424803 122.9571769  56.8663683
 104.0968748 122.7119564  55.3731617  87.7720453 134.3215307  57.8450307
  87.6552838 135.2660739  57.7428998  86.9512900 134.0188868  58.2336107
  97.6596988 129.0465442  48.6906900  98.4942592 128.6146641  48.5084375
  97.4981331 128.8747456  49.6183794  97.3142880 125.5497556  50.0563239
  97.2591684 125.3841827  49.1151683  96.6888935 126.2573589  50.2125429
  82.1035395 120.7865620  63.8824662  82.7494259 120.2764574  64.3711887
  81.8952546 121.5234302  64.4568087  94.6288787 127.8546468  69.3816802
  95.4979947 128.0287120  69.0203437  94.1495539 128.6740884  69.2592531
  90.6239006 115.0505665  49.6348558  90.6117675 115.9947505  49.7916829
  91.5162427 114.8675810  49.3408019  88.7974968 134.9743569  61.0606236
  89.7002214 135.0067179  61.3772731  88.5712338 134.0444020  61.0752572
  90.5528570 133.7274555  57.7216314  89.6024201 133.7276417  57.6080687
  90.8561056 132.9807290  57.2052349  94.4391125 111.6448441  53.8894495
  93.6723521 111.0906928  54.0351177  94.8501830 111.7170310  54.7508646
 106.2881263 139.5635094  58.7862077 106.9259673 139.4441841  58.0825417
 106.1702106 140.5115938  58.8450029 103.0970969 139.5162522  58.7223601
 102.7589481 139.4003586  57.8344136 103.9660738 139.1153687  58.7024608
  98.9557785 141.3697998  54.7120492  98.3922650 141.2787935  53.9436780
  98.8410180 140.5497903  55.1922985 103.5790752 140.6697373  64.6809807
 103.5679393 140.2750172  63.8090311 103.7411392 139.9363446  65.2743578
  96.5022217 142.8649190  57.5504713  97.2943509 142.5240014  57.1351012
  96.7418867 142.9744165  58.4706866 104.5357344 145.0368966  50.0234957
 103.8845324 145.6223046  49.6368971 105.3301707 145.5675161  50.0829995
  98.4612971 142.1258103  50.4222092  99.2343847 141.5787090  50.2834967
  98.8138370 142.9902352  50.6336553 100.2998013 143.4534485  63.6288991
 100.0087879 144.3580116  63.5135657 100.9354998 143.4951013  64.3433061
 101.2254220 140.8311334  60.2190351 101.8217793 140.6067356  59.5047314
 101.2829192 140.0896079  60.8215798 100.7979249 138.2850769  48.0540542
 101.0504769 137.7632290  47.2924005  99.8603808 138.1216914  48.1567225
 105.8422532 137.2886547  55.8615285 106.6285621 136.8705971  55.5105702
 106.1061236 138.1932640  56.0296933 106.0132609 142.7259398  50.5603942
 105.3778442 142.7994024  51.2724846 105.6830015 143.3152997  49.8823021
 111.2430959 137.2261781  56.7648263 111.9756131 136.6560997  56.9986093
 110.4870314 136.8383381  57.2054769 100.5175537 140.1878875  50.2564917
 100.4011796 139.5123778  50.9246001 100.6277797 139.7011249  49.4397070
 102.8607078 139.6489022  53.9611606 102.4965286 139.1219643  54.6724527
 103.7174194 139.2587491  53.7878091 108.7656379 130.9383355  61.2242872
 108.4339704 131.8078766  61.0004087 108.1701992 130.6219639  61.9036902
 102.5012565 134.6778922  48.9572954 102.6686968 135.5459158  49.3243425
 102.3109734 134.8406204  48.0334244 105.2587899 143.1395901  60.6238785
 104.9588622 144.0420940  60.5154592 104.9138958 142.8728084  61.4759938
  98.7100380 139.5909698  56.6575489  97.7850877 139.4585912  56.8653181
  98.9584793 140.3703917  57.1545431 108.6585042 135.6578441  58.3036222
 107.7501920 135.5893849  58.0094983 108.6072638 136.1350386  59.1318047
 102.4801786 137.1336579  49.9419621 102.3601411 137.5793630  50.7805101
 101.7854375 137.4821897  49.3833159  96.0709191 139.2342971  57.4919278
  96.2001572 139.4877450  58.4058690  95.3906642 139.8270679  57.1723933
 102.7325908 137.0768086  66.2471119 101.9559242 137.6362007  66.2373984
 103.3716471 137.5624869  66.7685989 110.5246689 133.8594879  60.0814096
 109.8821069 134.1527412  59.4353890 110.0201617 133.7447800  60.8867293
 108.1786852 137.6058052  50.7699955 109.0904709 137.8385439  50.5947653
 107.6696499 138.1895097  50.2075034 100.9872280 139.8853540  65.8089086
 101.7286965 140.4238584  65.5323910 100.2809266 140.5119829  65.9660638
 106.4627620 142.0282680  64.4061248 106.8710976 141.5865091  63.6615880
 105.7404882 141.4535308  64.6595441 102.8158690 136.9655287  61.7794805
 103.6619885 137.3894701  61.9229454 102.7557328 136.3088911  62.4733368
 106.7856435 142.5883871  58.1613537 106.1565297 142.7529585  57.4589604
 106.3982097 143.0025480  58.9324501 105.9658135 134.6259655  63.4375978
 105.7219067 135.3801716  62.9010254 106.2418066 135.0045003  64.2723225
 107.9196598 141.1698268  62.1153244 108.1313493 141.8130028  61.4387625
 107.8726346 140.3360584  61.6475174 105.5222827 133.7816088  59.0189816
 104.6607306 134.0797342  59.3106554 105.5485262 133.9986487  58.0870849
 102.3384397 142.3258279  55.4263622 102.8022742 142.6045982  54.6368244
 102.0741195 141.4241724  55.2436712  99.2308478 141.8729761  58.3643385
  99.8009835 142.3017029  57.7260869  99.8216590 141.5912345  59.0627571
 101.2753283 138.4481431  52.2353187 101.9777326 138.9002475  52.7027113
 100.9433911 137.8065250  52.8633080  99.7233644 137.0393188  66.6104396
  99.0932305 137.7209469  66.8439793  99.6169732 136.9276270  65.6657534
  95.0178617 136.7064984  57.5370320  94.2277671 136.9622513  57.0610431
  95.5089864 137.5213322  57.6422361  96.9693362 137.0709563  54.4953797
  96.1724525 137.1828258  55.0137293  96.7418954 137.4096216  53.6294688
 102.7999030 143.5954267  62.4436312 102.8643462 144.0574674  63.2794484
 102.0909954 142.9651631  62.5718622  93.3016320 136.9595474  59.9685311
  93.5524358 137.8442484  60.2342887  93.8375868 136.7800076  59.1960403
 102.5147047 145.2622374  52.3115292 102.3792722 146.1073910  52.7400140
 103.0556860 145.4641652  51.5481226  99.0014387 131.3413954  68.9729647
  98.6081332 130.7880152  69.6477292  99.8180527 131.6524532  69.3636165
  95.9676445 142.7797812  52.8843217  96.4800965 143.5741062  53.0348782
  96.6199158 142.0824102  52.8176819  97.7771329 145.8963568  54.9665970
  97.9537958 146.8181533  54.7786954  98.5728163 145.5821988  55.3960350
 101.9182348 132.7571833  66.5649904 102.6592061 133.3578986  66.4854366
 102.1500271 132.0149471  66.0067946  97.0623686 137.9428200  64.8428134
  96.9477201 137.0413457  65.1435232  96.2068204 138.1891897  64.4912950
 104.1415524 145.8845941  66.4415634 103.6979378 145.0982319  66.1236539
 104.8032737 146.0725091  65.7759525  98.9002645 147.4141742  60.9676313
  99.4510070 147.2858805  60.1953307  98.0614121 147.7136631  60.6171205
 102.6969816 143.6792870  65.3120544 103.2298153 142.9181158  65.0819852
 102.1683897 143.3866522  66.0544698 105.8639511 128.7852936  60.8414186
 105.5203780 129.6754578  60.7653296 106.2318473 128.5954594  59.9783771
  93.9325361 141.1086466  53.6602788  94.7700583 141.5183475  53.4436495
  94.1103629 140.1685909  53.6302982 105.8289794 138.7761547  49.3486621
 105.3136417 139.5466152  49.5875008 105.5567102 138.1026683  49.9719682
 103.4136905 133.6211248  54.4071859 102.5578501 133.2318098  54.2277498
 103.8263856 133.7003209  53.5471645 104.9436051 131.1557591  58.8063419
 104.4400847 131.1187726  57.9931224 105.2366658 132.0650334  58.8660075
 101.1878937 131.2396321  57.8129601 102.0531934 131.0439129  57.4535490
 101.2556446 131.0106673  58.7398957 105.6176097 136.6488639  51.1746402
 105.3126232 136.9634788  52.0256545 106.5706539 136.7270059  51.2173735
 104.0622529 142.8078862  52.8239356 103.5343890 142.0731622  52.5112593
 103.5610031 143.5853539  52.5779324 109.0415375 141.0027883  57.9406402
 108.3839049 141.6927144  58.0286531 109.8455774 141.3924315  58.2840388
  98.7941256 133.4698529  55.1845967  99.3685008 133.2473710  54.4519160
  99.3812239 133.5387223  55.9374569 107.8520833 139.3572256  55.9910344
 108.3652715 139.9902247  56.4932054 108.5022057 138.7573451  55.6253704
  99.1210843 135.5002990  49.2041853  98.2848156 135.8377676  49.5251127
  98.9815613 135.3651970  48.2668990 101.0963924 130.3439778  53.9121037
 100.4428336 130.0288795  53.2877652 101.0544398 129.7215518  54.6380860
 102.2075129 140.6259073  45.8274329 101.3002191 140.3948326  46.0265478
 102.7046161 139.8296692  46.0148310 104.3301664 136.8321711  58.2368684
 103.4124226 137.0536658  58.0790372 104.7461808 136.9068022  57.3780392
 105.1136712 138.2313127  53.3671365 105.8608531 138.7434524  53.0578487
 105.3828302 137.9097180  54.2275758 103.3863362 140.7271668  50.3498319
 102.4774581 140.4430700  50.4470789 103.4158446 141.1470746  49.4901626
 107.5615549 135.2670243  55.3490154 106.8238306 134.7547629  55.6800397
 107.8142323 134.8270625  54.5373431 107.6627177 128.0446495  55.9431923
 107.9686053 127.1843859  55.6557838 108.3879781 128.6364115  55.7430917
  93.9551533 138.4477182  54.3313521  93.7575932 137.8546542  53.6064588
  93.3998197 138.1429392  55.0489460 101.9348256 138.3400288  56.4508114
 101.9896866 137.3874125  56.3750591 101.1239458 138.4959727  56.9349413
 103.0839450 142.2680411  47.6886398 102.6458880 141.5516270  47.2292035
 103.8249891 142.4956526  47.1271489  99.8740616 136.9577348  54.2098493
  99.0608482 137.2571518  54.6163685 100.3699610 136.5633037  54.9272975
 102.0249194 146.9535105  56.1432758 101.9825373 147.1795951  55.2141290
 102.9411893 146.7198479  56.2918559 105.4714828 137.4219172  63.0413387
 105.8264216 137.6490645  63.9007853 106.1186959 137.7537549  62.4190642
 111.2012565 140.5437608  53.7462716 111.0630463 140.7339204  52.8183905
 110.8448784 141.3056991  54.2030767  99.3654691 134.5295703  59.8259728
 100.0054070 134.3884463  59.1282691  98.5332221 134.2430217  59.4498330
 100.1414995 143.8298134  55.9394721 100.9355593 143.3348454  55.7377296
  99.4306687 143.3015997  55.5762426  96.4497758 137.9741216  52.0154473
  95.5195346 137.9125671  52.2324435  96.5455230 137.4517168  51.2191115
  96.3683307 134.4996028  54.6032715  96.6290125 135.4141362  54.4941875
  97.1900480 134.0320471  54.7529328  97.8408233 135.9133786  61.7731539
  98.5131286 135.7051148  61.1244188  97.0138019 135.7155872  61.3336772
 103.7433805 132.5395726  63.7897200 103.0961720 133.2385676  63.6961677
 104.5134820 132.9731870  64.1573449 107.1512603 142.8044579  66.8647754
 106.9998109 142.5755130  65.9477837 107.1417282 143.7615180  66.8779099
 103.9197939 140.3776491  61.8494020 104.8489999 140.5287651  61.6762987
 103.4988969 140.4660512  60.9942667 102.7186271 144.4027156  59.6192558
 102.5797357 144.0345940  60.4918496 101.9300867 144.9174795  59.4476515
 104.2691486 143.7808759  57.0081395 103.9341319 143.7409528  57.9039045
 103.7695432 143.1153474  56.5351806  98.2435730 139.1876389  62.5333977
  98.1055528 138.4556627  63.1345516  99.1540653 139.0985289  62.2518164
 107.2050678 141.1264793  47.2818455 106.5879848 140.4011621  47.1851508
 106.7367166 141.8874153  46.9385529 100.8718031 138.8996348  62.0217656
 101.5817649 138.2589540  61.9804275 100.8287339 139.1509243  62.9443837
  99.5846965 135.8861566  63.8413296  99.0484322 135.4352304  64.4934892
  98.9963673 136.0207475  63.0983760  98.9949224 135.3450217  46.4039759
  98.1178690 135.2239018  46.0402006  99.4706977 134.5536295  46.1518648
  90.5151364 140.1327377  56.4981267  91.2022404 139.8189107  55.9102282
  90.3599492 141.0368742  56.2248518  95.3186086 135.0217573  60.9266290
  95.2344275 134.4143243  60.1916700  94.4968792 135.5126592  60.9275787
 105.4909800 133.5071137  56.2936485 105.9878499 132.7541099  55.9737556
 104.7196781 133.5435454  55.7279695 113.3439557 139.2111503  57.9354777
 113.3329433 140.0936218  57.5648710 112.4756937 138.8583053  57.7409314
 106.5739580 142.2642824  53.8674909 105.6395859 142.3844287  53.6979613
 106.7516249 141.3615291  53.6034919 102.0744768 135.6488520  56.0208170
 101.7042556 135.0959560  56.7089075 102.5703861 135.0446653  55.4683170
 109.9612132 138.1060143  54.4024943 110.4272584 138.9388135  54.3285245
 110.4119632 137.6405125  55.1070201  99.9033967 146.1086015  63.1163188
 100.6043426 146.7422498  63.2692582  99.4329082 146.4500747  62.3558827
 107.9328794 130.4740730  58.4415844 107.0191874 130.7044957  58.6098051
 108.3621896 130.5579175  59.2929877 107.7035253 138.6630622  60.9415738
 107.0506703 138.9106530  60.2868191 108.0815633 137.8494761  60.6078215
 103.7522826 139.4050433  67.4281775 103.0763463 139.3044563  68.0984150
 104.5750460 139.2489647  67.8917772  95.5001685 145.6422370  60.0494290
  96.0855122 144.8966058  60.1822195  95.3026524 145.9526327  60.9330954
  98.3540340 148.6773617  55.0656733  97.6850716 149.1619745  54.5820773
  98.2153210 148.9242838  55.9800111  90.0919340 138.2127970  58.7698734
  90.1303439 137.6791561  59.5635852  89.5859633 137.6863176  58.1509711
  97.4710102 133.0592511  62.2661276  97.5351429 133.9207342  61.8538674
  97.4077222 132.4466512  61.5333634  96.9462375 135.1315643  65.9134310
  97.5734413 134.7492721  66.5271835  96.0890293 134.9129845  66.2790003
  93.7227917 136.9392072  51.8452665  94.0181358 136.0302751  51.7919719
  92.8215953 136.9179812  51.5233667  97.2522164 135.0148069  57.8280214
  96.5308750 135.6284037  57.6887687  98.0415420 135.5505834  57.7496860
 100.0548478 132.3502495  64.1020865 100.5782880 132.5964792  64.8647175
  99.8360811 133.1822530  63.6824003  95.4515759 134.6206170  51.9691990
  95.1228465 133.7403549  51.7867096  95.8055130 134.5653839  52.8568379
  98.5657582 134.9079140  52.3367468  98.9053655 135.4365061  51.6146076
  99.0129703 135.2459546  53.1126034 101.2601023 133.2916191  61.7870536
 100.9197843 132.4924004  62.1891216 100.5540029 133.5917901  61.2147369
 101.9117495 130.3765503  60.2397859 102.7343564 129.9025981  60.1176749
 102.1555558 131.1555987  60.7396545 100.5525729 133.4053761  50.5360761
 101.2734092 133.7835014  50.0324477  99.9291033 134.1242638  50.6395739
 104.6956852 134.1098910  51.4719093 104.9120467 134.9923548  51.1707921
 104.2150919 133.7185124  50.7424735  99.4356074 137.0684624  58.0489838
  99.2900654 137.3824927  58.9414119  98.9581277 137.6869524  57.4960736
 101.2952456 134.0587172  58.0970727 101.2814025 133.1628265  57.7603025
 102.0124885 134.0657835  58.7309013 103.1478587 134.4924512  60.1423855
 102.8896365 135.4141582  60.1408185 102.6163628 134.0954946  60.8324319
  93.9101736 139.6089968  60.9877499  93.3655204 140.3849776  61.1197773
  94.7881086 139.9560773  60.8296620 100.6989352 132.9401552  53.3658297
 100.8205264 132.0118198  53.5649185 100.4091395 132.9540238  52.4536613
 103.5680543 130.6256462  56.5025017 103.5902240 130.6895795  55.5476997
 103.9848602 129.7860971  56.6965523  94.6967758 138.7359864  63.8807656
  93.9549494 138.8842500  64.4672286  94.3760502 138.9968130  63.0174405
  95.1424371 146.6225293  55.9118050  95.9682391 146.3229065  55.5316694
  94.7918423 145.8532915  56.3607839 100.1105904 145.9751761  57.9815724
  99.4885914 145.3122466  57.6817952 100.7810771 146.0012893  57.2989372
  93.3432976 144.5411619  56.8706984  92.5064885 144.1133794  56.6890985
  93.3156622 144.7344063  57.8077775 100.1830432 134.4533549  67.5748230
 100.2318587 135.3295672  67.1925999 100.7252946 133.9110942  67.0019873
 110.7883153 141.8467139  64.1682095 110.8381158 141.6817146  65.1097618
 110.6797076 140.9794398  63.7779976  99.6719411 144.5255685  51.4574184
  99.8207532 145.2091149  50.8040857 100.4785855 144.5060775  51.9723640
 108.0786915 137.8298067  65.4841402 108.9796778 137.6904532  65.1925400
 108.1534890 137.9952522  66.4239580 102.4129720 135.2064922  64.3294589
 101.5433030 135.4998488  64.0577177 102.6489201 135.7905367  65.0501852
 110.5388538 139.3896695  62.8804175 111.0142659 139.5824341  62.0723026
 109.6154103 139.4455881  62.6347559  97.4272044 140.5520862  52.4635253
  97.1818086 139.6483192  52.6615463  97.5967959 140.5538013  51.5214731
 105.1168754 131.4244539  61.8460009 105.6350698 132.1605566  61.5206497
 104.7623887 131.7308532  62.6806768  96.6967692 136.2849220  49.9621415
  96.0036937 136.3593575  49.3061451  96.4519444 135.5209563  50.4842932
 105.3681348 127.8444821  57.3660905 105.6483102 127.1768010  57.9921332
 106.1531955 128.0373917  56.8535569 109.2390207 136.2662455  61.1132481
 110.1907630 136.3660553  61.1344705 109.0693657 135.4740724  61.6230565
 107.2604586 133.3518038  61.2991882 106.6654518 133.6323051  60.6038370
 106.9754283 133.8411939  62.0708623 111.7178284 139.4868575  60.2274780
 111.6854605 138.5484576  60.4134464 112.3278908 139.5652612  59.4940605
 103.5561615 138.3564628  46.2701984 104.5020720 138.2270836  46.3390402
 103.1775860 137.6179290  46.7471412 111.8672773 136.2779618  60.2733063
 111.3511822 135.4938075  60.0862992 112.7512721 135.9498335  60.4379583
 109.5283500 130.0220634  56.2328876 109.3308321 129.7135722  57.1172208
 110.1383205 130.7482273  56.3626806 103.4400308 142.4082374  67.7302641
 104.3603317 142.5860973  67.9242688 103.4049891 141.4638419  67.5782341
 101.7404532 136.2814604  46.2056870 100.8335988 135.9847717  46.2819583
 102.0180513 135.9844422  45.3391156  92.6582473 137.6020968  56.6555916
  92.3385257 136.7486276  56.3630290  92.1115901 137.8169546  57.4113883
  96.4362380 140.3183409  60.3725422  96.6548390 141.2500516  60.3913456
  96.8488154 139.9591383  61.1580226 103.3566598 130.8251494  52.3601111
 102.5467327 130.4798579  52.7356357 104.0451015 130.5159038  52.9488722
 105.2857146 129.9029541  53.9825407 105.8388185 130.3224994  54.6415431
 105.5227233 128.9765289  54.0248363 101.3090246 135.8916614  69.7628171
 101.2086973 136.8410971  69.6940262 101.0911788 135.5634853  68.8904241
 100.5103317 133.1401539  46.3468849 101.3722481 133.4656438  46.6064666
 100.6953661 132.3533035  45.8341915  92.5270733 141.2223879  58.6249038
  91.8334204 140.8077832  58.1118992  93.2743724 141.2644416  58.0282456
 108.6635954 132.0130066  53.4904072 108.0834623 132.6714870  53.1082124
 108.3971886 131.1907410  53.0791489 107.1139520 131.4135124  55.6925392
 107.6139298 131.5251658  54.8839711 107.7575128 131.1096176  56.3326200
 101.1721516 139.3213753  68.5793233 100.6888597 140.1214113  68.7857122
 101.2582455 139.3321698  67.6260677  94.4407475 141.1542133  56.5015052
  94.4178164 141.2529820  55.5496935  94.7508112 142.0007284  56.8232219
  97.0994853 143.2118288  60.6161667  98.0538107 143.1802230  60.5491598
  96.9007377 142.7508912  61.4311893  97.6894235 141.7819404  63.1832464
  98.5087124 142.2763483  63.2067302  97.9631043 140.8651372  63.1550032
 107.4460832 134.1730156  52.5460420 106.5586687 134.4579807  52.3280615
 107.8614821 134.0123920  51.6987697 110.7975368 134.1976677  56.2614759
 111.5735758 134.6873130  56.5339376 110.0723502 134.6234731  56.7186629
 113.2347926 134.9104296  57.3188700 113.8292417 134.6700032  56.6082008
 113.3074510 134.1911427  57.9462236  95.4545082 148.7537907  57.6331865
  95.3199550 147.9938308  57.0669863  95.0377144 149.4778807  57.1660654
 106.5904045 143.9374831  46.6408440 107.2939895 144.1424833  47.2566096
 105.8666694 144.5051593  46.9057523 107.4201855 139.6884692  52.7610710
 107.3637057 140.1453244  51.9218343 107.9730198 138.9275377  52.5833553
 111.2306661 135.4774424  53.5860830 110.9743595 135.0771060  54.4169037
 110.6059529 136.1918218  53.4610969 115.5418999 138.2170497  56.0932121
 114.9818557 138.2863687  56.8663683 114.9362502 138.0411482  55.3731617
  98.6114208 149.6507224  57.8450307  98.4946592 150.5952657  57.7428998
  97.7906654 149.3480786  58.2336107 108.1536635 140.8789473  50.0563239
 108.0985438 140.7133745  49.1151683 107.5282690 141.5865506  50.2125429
  92.9429150 136.1157538  63.8824662  93.5888013 135.6056492  64.3711887
  92.7346301 136.8526219  64.4568087 105.4682542 143.1838385  69.3816802
 106.3373701 143.3579038  69.0203437 104.9889293 144.0032802  69.2592531
 101.4632760 130.3797582  49.6348558 101.4511430 131.3239422  49.7916829
 102.3556182 130.1967728  49.3408019 105.2784880 126.9740359  53.8894495
 104.5117275 126.4198846  54.0351177 105.6895585 127.0462228  54.7508646
  97.2826641 133.2625155  67.9799676  98.1458102 132.9061960  68.1903000
  96.7092051 132.9239050  68.6675080  30.4124983   9.2653792  45.5107383
  31.0503393   9.1460540  44.8070723  30.2945826  10.2134636  45.5695336
  27.2214689   9.2181221  45.4468908  26.8833201   9.1022285  44.5589443
  28.0904457   8.8172386  45.4269914  23.0801505  11.0716697  41.4365799
  22.5166370  10.9806634  40.6682087  22.9653900  10.2516601  41.9168292
  27.7034472  10.3716072  51.4055114  27.6923113   9.9768871  50.5335617
  27.8655112   9.6382145  51.9988885  20.6265937  12.5667889  44.2750020
  21.4187229  12.2258713  43.8596319  20.8662587  12.6762864  45.1952173
  28.6601064  14.7387665  36.7480264  28.0089043  15.3241745  36.3614278
  29.4545426  15.2693860  36.8075301  24.4241733  13.1553184  50.3534298
  24.1331599  14.0598815  50.2380964  25.0598718  13.1969712  51.0678367
  25.3497940  10.5330033  46.9435657  25.9461512  10.3086055  46.2292620
  25.4072912   9.7914778  47.5461105  29.9666251   6.9905246  42.5860591
  30.7529341   6.5724669  42.2351008  30.2304956   7.8951338  42.7542240
  30.1376329  12.4278097  37.2849248  29.5022162  12.5012723  37.9970153
  29.8073735  13.0171695  36.6068328  35.3674679   6.9280479  43.4893570
  36.0999850   6.3579696  43.7231399  34.6114034   6.5402080  43.9300076
  26.9850798   9.3507721  40.6856912  26.6209005   8.8238342  41.3969834
  27.8417914   8.9606190  40.5123398  32.8900099   0.6402054  47.9488179
  32.5583424   1.5097465  47.7249394  32.2945712   0.3238338  48.6282209
  29.3831618  12.8414600  47.3484091  29.0832341  13.7439638  47.2399899
  29.0382678  12.5746783  48.2005244  22.8344100   9.2928396  43.3820796
  21.9094596   9.1604611  43.5898487  23.0828513  10.0722616  43.8790738
  32.7828762   5.3597140  45.0281529  31.8745640   5.2912548  44.7340290
  32.7316358   5.8369085  45.8563354  20.1952911   8.9361670  44.2164585
  20.3245292   9.1896149  45.1303996  19.5150362   9.5289378  43.8969240
  24.3652398  19.6058920  40.3155059  24.2876428  20.5566745  40.3943540
  23.7614042  19.2604792  40.9729985  26.8569628   6.7786785  52.9716426
  26.0802962   7.3380705  52.9619291  27.4960191   7.2643568  53.4931296
  34.6490409   3.5613578  46.8059403  34.0064789   3.8546111  46.1599197
  34.1445337   3.4466498  47.6112599  32.3030572   7.3076751  37.4945262
  33.2148428   7.5404138  37.3192959  31.7940219   7.8913796  36.9320340
  25.1116000   9.5872239  52.5334393  25.8530685  10.1257283  52.2569216
  24.4052986  10.2138527  52.6905945  30.5871340  11.7301379  51.1306554
  30.9954696  11.2883790  50.3861187  29.8648601  11.1554007  51.3840747
  26.9402410   6.6673986  48.5040111  27.7863605   7.0913399  48.6474760
  26.8801048   6.0107610  49.1978674  30.9100155  12.2902570  44.8858843
  30.2809017  12.4548284  44.1834911  30.5225817  12.7044179  45.6569807
  34.7889386  13.2257008  42.2403207  34.1040425  13.6055909  41.6900240
  34.8733236  13.8352334  42.9735155  30.0901855   4.3278354  50.1621285
  29.8462787   5.0820415  49.6255561  30.3661786   4.7063702  50.9968532
  32.0440318  10.8716967  48.8398551  32.2557213  11.5148727  48.1632932
  31.9970066  10.0379283  48.3720481  29.6466547   3.4834787  45.7435123
  28.7851026   3.7816041  46.0351860  29.6728982   3.7005186  44.8116155
  26.4628116  12.0276978  42.1508928  26.9266462  12.3064681  41.3613551
  26.1984915  11.1260422  41.9682019  23.3552198  11.5748459  45.0888692
  23.9253555  12.0035728  44.4506176  23.9460309  11.2931044  45.7872877
  23.8477364   6.7411887  53.3349703  23.2176025   7.4228168  53.5685100
  23.7413452   6.6294968  52.3902841  33.1586146  13.7488922  47.0120908
  33.9803590  13.3469109  46.7303590  33.1548549  13.6457156  47.9637024
  26.9242749  13.2972965  49.1681618  26.9887182  13.7593373  50.0039790
  26.2153673  12.6670330  49.2963928  41.2492139  10.0927671  43.3605879
  40.4955847   9.5235069  43.2049884  41.3839680  10.0590335  44.3076514
  26.6390767  14.9641073  39.0360599  26.5036442  15.8092609  39.4645447
  27.1800580  15.1660351  38.2726533  20.0920165  12.4816511  39.6088524
  20.6044685  13.2759761  39.7594088  20.7442877  11.7842801  39.5422125
  21.9015049  15.5982267  41.6911277  22.0781678  16.5200232  41.5032261
  22.6971883  15.2840686  42.1205657  21.1867406   7.6446899  51.5673440
  21.0720921   6.7432156  51.8680539  20.3311924   7.8910596  51.2158257
  28.2659244  15.5864639  53.1660941  27.8223098  14.8001018  52.8481845
  28.9276457  15.7743790  52.5004832  23.0246365  17.1160441  47.6921619
  23.5753790  16.9877504  46.9198613  22.1857841  17.4155330  47.3416512
  30.3640482  15.8667439  51.1942342  30.3458957  16.6876320  50.7022611
  31.2860402  15.7421515  51.4192483  26.8213536  13.3811569  52.0365850
  27.3541873  12.6199857  51.8065158  26.2927617  13.0885221  52.7790005
  34.9267788  11.2312601  38.0085101  34.1497230  10.8923760  37.5640263
  35.6059269  11.2365224  37.3340066  28.1866248  12.5097561  39.5484662
  27.6587610  11.7750321  39.2357900  27.6853751  13.2872238  39.3024631
  33.1659094  10.7046582  44.6651709  32.5082769  11.3945843  44.7531837
  33.9699494  11.0943014  45.0085695  31.9764553   9.0590954  42.7155650
  32.4896435   9.6920946  43.2177360  32.6265777   8.4592150  42.3499011
  29.2386927  19.0375279  35.4716322  28.5648626  19.3406975  36.0801279
  29.6252749  19.8404359  35.1221779  28.4545384   6.5340410  44.9613991
  27.5367945   6.7555357  44.8035679  28.8705528   6.6086720  44.1025698
  29.2380432   7.9331826  40.0916671  29.9852251   8.4453223  39.7823793
  29.5072021   7.6115878  40.9521065  32.7426349  14.0396956  40.8434793
  32.2888677  13.1987866  40.8999984  32.1120316  14.6758354  41.1809573
  31.6859269   4.9688942  42.0735461  30.9482026   4.4566328  42.4045703
  31.9386043   4.5289324  41.2618737  31.1859289  15.8773453  41.7784611
  31.4782263  16.4378510  41.0596977  31.6957909  16.1702014  42.5337770
  26.0591976   8.0418987  43.1753421  26.1140586   7.0892823  43.0995898
  25.2483178   8.1978426  43.6594719  23.9984336   6.6596047  40.9343800
  23.1852202   6.9590217  41.3408992  24.4943330   6.2651736  41.6518282
  26.1492914  16.6553804  42.8678064  26.1069093  16.8814650  41.9386596
  27.0655613  16.4217178  43.0163866  29.5958548   7.1237871  49.7658694
  29.9507935   7.3509344  50.6253159  30.2430679   7.4556248  49.1435949
  35.3256285  10.2456307  40.4708023  35.1874183  10.4357903  39.5429212
  34.9692503  11.0075690  40.9276074  35.3525664  12.3132834  45.4819294
  35.7862171  12.2208123  46.3302348  36.0657245  12.2890335  44.8439310
  24.2658715  13.5316833  42.6640027  25.0599313  13.0367153  42.4622602
  23.5550407  13.0034696  42.3007733  29.0853559  15.9134928  47.0152395
  29.1390581  16.4825865  47.7830111  28.2168341  16.0836813  46.6506432
  36.2141214  12.3556535  48.0152180  36.4077104  13.2602345  48.2611455
  36.1141832  11.8963954  48.8490765  27.8677525   2.2414425  50.5142507
  27.2205440   2.9404375  50.4206983  28.6378540   2.6750569  50.8818755
  31.2756322  12.5063278  53.5893060  31.1241829  12.2773829  52.6723144
  31.2661002  13.4633879  53.6024405  28.0441659  10.0795190  48.5739327
  28.9733719  10.2306350  48.4008294  27.6232689  10.1679211  47.7187973
  26.8429991  14.1045855  46.3437864  26.7041076  13.7364639  47.2163802
  26.0544587  14.6193494  46.1721822  27.4378143  19.2054951  37.6863401
  27.6129898  18.7342994  38.5009024  26.7510931  19.8320717  37.9144662
  28.3935206  13.4827457  43.7326702  28.0585038  13.4428227  44.6284352
  27.8939151  12.8172173  43.2597112  22.3679450   8.8895087  49.2579283
  22.2299248   8.1575326  49.8590822  23.2784373   8.8003988  48.9763471
  24.9961750   8.6015047  48.7462963  25.7061369   7.9608239  48.7049581
  24.9531059   8.8527942  49.6689144  32.9848529  15.5382400  51.6669542
  32.9261075  14.8541620  51.0000125  33.3868047  16.2801390  51.2150168
  23.7090684   5.5880265  50.5658602  23.1728041   5.1371003  51.2180199
  23.1207393   5.7226173  49.8229067  22.0039228  22.3544314  44.4603261
  22.2435826  22.9862838  45.1382280  21.1608424  22.0032354  44.7468620
  32.9865936  13.5021984  49.8983522  32.0992715  13.1647906  50.0209921
  33.5564487  12.7705015  50.1352287  26.5167090  18.1623436  46.8644765
  26.4437261  18.9678408  47.3764070  26.0744483  18.3615402  46.0392786
  26.3056869  17.3995206  40.3747587  25.5224391  17.9416887  40.4685811
  27.0049615  17.9169186  40.7741828  29.6153520   3.2089836  43.0181792
  30.1122219   2.4559798  42.6982862  28.8440501   3.2454153  42.4525001
  37.4683277   8.9130201  44.6600083  37.4573153   9.7954917  44.2894017
  36.6000656   8.5601752  44.4654620  28.9765773  18.0610270  49.0202924
  29.6893746  18.6957735  48.9478825  28.4855802  18.1574136  48.2042925
  30.6983300  11.9661523  40.5920215  29.7639579  12.0862986  40.4224920
  30.8759969  11.0633990  40.3280225  26.1988488   5.3507219  42.7453477
  25.8286276   4.7978259  43.4334382  26.6947581   4.7465352  42.1928477
  34.0855852   7.8078842  41.1270249  34.5516304   8.6406834  41.0530552
  34.5363352   7.3423824  41.8315508  24.0277687  15.8104714  49.8408494
  24.7287146  16.4441197  49.9937889  23.5572802  16.1519445  49.0804134
  32.1532083  14.1522664  38.1256401  32.4291927  14.0379258  39.0350276
  31.2836581  13.7540148  38.0868575  32.0572514   0.1759429  45.1661151
  31.1435594   0.4063656  45.3343358  32.4865616   0.2597873  46.0175183
  31.8278973   8.3649321  47.6661045  31.1750423   8.6125229  47.0113498
  32.2059353   7.5513459  47.3323522  28.7886147  18.4009014  41.7689215
  28.9708541  17.5830670  42.2316967  29.6119133  18.6176707  41.3314105
  29.1228312  17.3277200  39.0304264  29.6516079  16.8169654  38.4174426
  29.3856532  17.0119730  39.8949797  27.8766546   9.1069132  54.1527082
  27.2007183   9.0063262  54.8229457  28.6994180   8.9508346  54.6163079
  19.6245405  15.3441069  46.7739597  20.2098842  14.5984757  46.9067501
  19.4270243  15.6545026  47.6576261  22.4784060  18.3792316  41.7902040
  21.8094435  18.8638444  41.3066080  22.3396930  18.6261537  42.7045418
  26.6189329  20.4136060  48.3884698  27.1707637  20.5767681  49.1533783
  26.9595522  21.0040498  47.7164723  31.4700203  15.2397317  54.2433352
  32.0140107  15.8527276  53.7488307  30.8887048  15.7976896  54.7600365
  29.7557716  18.3618035  45.3748380  29.6308855  17.5607775  44.8659326
  30.4136807  18.8564229  44.8862350  31.8192624  16.1627055  47.0027930
  30.8722960  16.0432407  46.9306257  32.1675397  15.2749553  47.0854192
  28.8239058  15.9579772  43.2032282  28.6764020  15.0296479  43.3839852
  29.6492551  15.9799862  42.7189358  32.4273180  16.7808330  44.2897155
  33.3519727  16.5751192  44.1521606  32.2588483  16.5324732  45.1986497
  23.5599793   6.7703323  44.7735144  23.4144374   7.0843626  45.6659426
  23.0824997   7.3888223  44.2206043  27.2722307   4.1943211  46.8669161
  27.0140085   5.1160281  46.8653492  26.7407347   3.7973645  47.5569625
  32.2168496  17.2993998  39.6459247  32.3905373  16.7340420  38.8933099
  32.7097387  18.0994893  39.4638737  18.0345456   9.3108667  47.7122805
  17.4898924  10.0868475  47.8443080  18.9124805   9.6579471  47.5541927
  38.0707887  10.0630421  41.2649546  38.5139033   9.3137746  40.8668670
  37.1934397  10.0540557  40.8823278  33.2043668  16.6160762  36.7456145
  33.8994573  17.2367455  36.9643459  33.5466818  15.7656113  37.0208523
  18.8211477   8.4378563  50.6052962  18.0793213   8.5861199  51.1917593
  18.5004222   8.6986829  49.7419712  35.1035091  14.0660468  38.2743476
  35.6286415  14.4047741  37.5492796  35.0157444  13.1307483  38.0906610
  26.7655140  17.9794541  50.4033352  27.0742266  17.7343688  51.2756052
  27.5630622  18.1841180  49.9152222  26.7875752  20.1332451  42.6338729
  26.3480742  19.6408830  43.3271586  27.5383869  19.5905419  42.3930804
  19.2668091  16.3243992  42.6363357  20.0926111  16.0247764  42.2562000
  18.9162143  15.5551614  43.0853146  24.2349624  15.6770460  44.7061030
  23.6129634  15.0141165  44.4063258  24.9054491  15.7031592  44.0234678
  17.4676696  14.2430318  43.5952290  16.6308604  13.8152493  43.4136292
  17.4400342  14.4362762  44.5323082  34.7928997  14.6993371  53.5794674
  34.0024541  14.6817510  53.0399173  34.5562352  15.2381665  54.3343710
  34.9126872  11.5485838  50.8927402  34.9624877  11.3835845  51.8342925
  34.8040796  10.6813097  50.5025283  23.7963131  14.2274383  38.1819491
  23.9451252  14.9109848  37.5286164  24.6029575  14.2079474  38.6968947
  32.2030635   7.5316766  52.2086709  33.1040498   7.3923231  51.9170707
  32.2778609   7.6971221  53.1484886  26.5373440   4.9083621  51.0539895
  25.6676750   5.2017187  50.7822484  26.7732921   5.4924066  51.7747159
  36.4145069  13.9682779  51.1369424  36.1229878  14.3312760  51.9732885
  35.8017201  13.2549788  50.9582756  37.6140752  11.5335659  43.6571994
  38.4487643  11.9725463  43.8209554  37.7499880  11.0574312  42.8380240
  34.6632258   9.0915394  49.6049482  35.1386379   9.2843040  48.7968333
  33.7397823   9.1474580  49.3592865  29.2412474   1.1263237  48.5705316
  29.7594418   1.8624264  48.2451804  28.8867607   1.4327231  49.4052075
  27.2958537  16.7222514  35.6531238  26.7232504  17.3412701  35.2001710
  27.8691330  17.2721876  36.1871160  33.3633927   5.9681154  47.8377787
  34.3151349   6.0679252  47.8590011  33.1937377   5.1759423  48.3475872
  31.3848306   3.0536737  48.0237188  30.7898238   3.3341750  47.3283677
  31.0998003   3.5430638  48.7953929  30.5155796  17.0059664  36.7839821
  31.4486470  16.9405226  36.9872696  30.4279009  17.8415931  36.3254353
  33.1443813  16.3225534  33.7443768  33.0657445  15.9885398  34.6379526
  33.9653480  16.8147302  33.7435241  35.8422004   9.1887274  46.9520087
  35.8098324   8.2503274  47.1379771  36.4522628   9.2671310  46.2185912
  35.9916493   5.9798317  46.9978370  35.4755541   5.1956774  46.8108299
  36.8756441   5.6517034  47.1624890  33.6527220  -0.2760667  42.9574183
  33.4552041  -0.5845579  43.8417515  34.2626925   0.4500972  43.0872113
  41.6598554  10.2503281  46.0926124  42.3901943   9.9888569  46.6533827
  41.0505500   9.5132002  46.1328192  39.7413851   8.3911143  46.6900575
  39.0147015   8.2567108  46.0817066  39.3261138   8.6987972  47.4957293
  27.5644028  12.1101073  54.4547948  28.4847037  12.2879672  54.6487994
  27.5293611  11.1657118  54.3027647  20.5606100  10.0202107  47.0970729
  20.7792110  10.9519215  47.1158763  20.9731874   9.6610082  47.8825533
  25.4333966   5.5935313  56.4873478  25.3330692   6.5429670  56.4185569
  25.2155508   5.2653552  55.6149548  16.6514453  10.9242578  45.3494344
  15.9577924  10.5096531  44.8364299  17.3987444  10.9663114  44.7527763
  31.2383240   1.1153822  42.4170699  31.7383018   1.2270357  41.6085018
  31.8818848   0.8114875  43.0571507  25.2965236   9.0232452  55.3038540
  24.8132317   9.8232812  55.5102429  25.3826175   9.0340397  54.3505984
  18.5651195  10.8560832  43.2260359  18.5421883  10.9548519  42.2742242
  18.8751832  11.7025983  43.5477525  21.2238573  12.9136987  47.3406973
  22.1781827  12.8820929  47.2736905  21.0251097  12.4527610  48.1557199
  21.8137955  11.4838103  49.9077771  22.6330844  11.9782181  49.9312608
  22.0874763  10.5670071  49.8795339  34.9219088   3.8995376  42.9860066
  35.6979478   4.3891829  43.2584683  34.1967222   4.3253430  43.4431935
  37.3591646   4.6122995  44.0434006  37.9536137   4.3718731  43.3327315
  37.4318230   3.8930126  44.6707543  19.5788802  18.4556606  44.3577171
  19.4443270  17.6957007  43.7915169  19.1620864  19.1797506  43.8905960
  31.5445575   9.3903391  39.4856017  31.4880777   9.8471942  38.6463649
  32.0973918   8.6294076  39.3078860  35.3550381   5.1793123  40.3106136
  35.0987315   4.7789759  41.1414344  34.7303249   5.8936917  40.1856275
  39.6662719   7.9189196  42.8177428  39.1062277   7.9882385  43.5908990
  39.0606222   7.7430181  42.0976924  22.7357928  19.3525923  44.5695614
  22.6190312  20.2971356  44.4674304  21.9150374  19.0499485  44.9581413
  32.6234462  14.0776059  35.4152207  33.4580066  13.6457257  35.2329681
  32.4618805  13.9058073  36.3429101  32.2780354  10.5808172  36.7808546
  32.2229158  10.4152444  35.8396990  31.6526410  11.2884205  36.9370736
  29.5926262  12.8857084  56.1062109  30.4617421  13.0597736  55.7448744
  29.1133013  13.7051501  55.9837838  23.7612442  20.0054185  47.7851542
  24.6639689  20.0377795  48.1018037  23.5349812  19.0754636  47.7997878
  25.5166044  18.7585172  44.4461621  24.5661675  18.7587033  44.3325993
  25.8198530  18.0117906  43.9297656  41.2518737  24.5945710  45.5107383
  41.8897147  24.4752457  44.8070723  41.1339580  25.5426554  45.5695336
  38.0608444  24.5473138  45.4468908  37.7226955  24.4314203  44.5589443
  38.9298212  24.1464303  45.4269914  33.9195259  26.4008615  41.4365799
  33.3560125  26.3098552  40.6682087  33.8047654  25.5808519  41.9168292
  38.5428227  25.7007990  51.4055114  38.5316867  25.3060788  50.5335617
  38.7048866  24.9674063  51.9988885  31.4659691  27.8959806  44.2750020
  32.2580983  27.5550631  43.8596319  31.7056341  28.0054781  45.1952173
  39.4994818  30.0679582  36.7480264  38.8482798  30.6533663  36.3614278
  40.2939181  30.5985777  36.8075301  33.4250445  27.1568719  37.1467398
  34.1981321  26.6097707  37.0080274  33.7775844  28.0212969  37.3581860
  35.2635488  28.4845102  50.3534298  34.9725354  29.3890733  50.2380964
  35.8992472  28.5261629  51.0678367  36.1891695  25.8621950  46.9435657
  36.7855267  25.6377973  46.2292620  36.2466666  25.1206696  47.5461105
  35.7616723  23.3161386  34.7785848  36.0142244  22.7942907  34.0169311
  34.8241282  23.1527531  34.8812532  40.8060006  22.3197164  42.5860591
  41.5923095  21.9016587  42.2351008  41.0698710  23.2243256  42.7542240
  40.9770083  27.7570014  37.2849248  40.3415916  27.8304641  37.9970153
  40.6467490  28.3463613  36.6068328  46.2068433  22.2572397  43.4893570
  46.9393605  21.6871614  43.7231399  45.4507789  21.8693998  43.9300076
  35.4813012  25.2189492  36.9810223  35.3649270  24.5434395  37.6491307
  35.5915272  24.7321865  36.1642376  37.8244553  24.6799639  40.6856912
  37.4602760  24.1530260  41.3969834  38.6811669  24.2898108  40.5123398
  43.7293853  15.9693971  47.9488179  43.3977178  16.8389382  47.7249394
  43.1339467  15.6530255  48.6282209  37.4650040  19.7089538  35.6818261
  37.6324442  20.5769775  36.0488732  37.2747209  19.8716820  34.7579550
  40.2225373  28.1706517  47.3484091  39.9226096  29.0731556  47.2399899
  39.8776432  27.9038700  48.2005244  33.6737854  24.6220314  43.3820796
  32.7488351  24.4896528  43.5898487  33.9222268  25.4014533  43.8790738
  43.6222517  20.6889057  45.0281529  42.7139394  20.6204466  44.7340290
  43.5710112  21.1661002  45.8563354  37.4439261  22.1647196  36.6664928
  37.3238886  22.6104247  37.5050408  36.7491849  22.5132514  36.1078466
  31.0346665  24.2653588  44.2164585  31.1639047  24.5188067  45.1303996
  30.3544117  24.8581296  43.8969240  35.2046153  34.9350838  40.3155059
  35.1270182  35.8858663  40.3943540  34.6007796  34.5896710  40.9729985
  37.6963382  22.1078703  52.9716426  36.9196717  22.6672623  52.9619291
  38.3353946  22.5935486  53.4931296  45.4884163  18.8905496  46.8059403
  44.8458543  19.1838029  46.1599197  44.9839092  18.7758416  47.6112599
  43.1424327  22.6368669  37.4945262  44.0542183  22.8696056  37.3192959
  42.6333974  23.2205713  36.9320340  35.9509755  24.9164156  52.5334393
  36.6924439  25.4549200  52.2569216  35.2446740  25.5430445  52.6905945
  41.4265094  27.0593297  51.1306554  41.8348450  26.6175707  50.3861187
  40.7042356  26.4845924  51.3840747  37.7796164  21.9965904  48.5040111
  38.6257360  22.4205317  48.6474760  37.7194802  21.3399528  49.1978674
  41.7493909  27.6194487  44.8858843  41.1202771  27.7840202  44.1834911
  41.3619571  28.0336097  45.6569807  45.6283141  28.5548925  42.2403207
  44.9434179  28.9347827  41.6900240  45.7126990  29.1644252  42.9735155
  40.9295610  19.6570272  50.1621285  40.6856542  20.4112333  49.6255561
  41.2055540  20.0355620  50.9968532  42.8834073  26.2008884  48.8398551
  43.0950968  26.8440644  48.1632932  42.8363821  25.3671201  48.3720481
  40.4860302  18.8126705  45.7435123  39.6244781  19.1107959  46.0351860
  40.5122736  19.0297104  44.8116155  37.3021871  27.3568896  42.1508928
  37.7660216  27.6356599  41.3613551  37.0378669  26.4552340  41.9682019
  34.1945952  26.9040377  45.0888692  34.7647309  27.3327645  44.4506176
  34.7854064  26.6222962  45.7872877  36.2390757  23.4792048  38.9598493
  36.9414800  23.9313092  39.4272420  35.9071385  22.8375867  39.5878387
  34.6871119  22.0703805  53.3349703  34.0569779  22.7520085  53.5685100
  34.5807206  21.9586886  52.3902841  29.9816091  21.7375601  44.2615627
  29.1915145  21.9933129  43.7855738  30.4727338  22.5523938  44.3667668
  43.9979901  29.0780840  47.0120908  44.8197344  28.6761027  46.7303590
  43.9942303  28.9749074  47.9637024  31.9330836  22.1020180  41.2199104
  31.1362000  22.2138874  41.7382599  31.7056429  22.4406832  40.3539994
  37.7636504  28.6264883  49.1681618  37.8280936  29.0885290  50.0039790
  37.0547428  27.9962248  49.2963928  28.2653794  21.9906091  46.6930618
  28.5161832  22.8753101  46.9588194  28.8013342  21.8110693  45.9205710
  52.0885894  25.4219588  43.3605879  51.3349602  24.8526986  43.2049884
  52.2233435  25.3882253  44.3076514  37.4784522  30.2932991  39.0360599
  37.3430196  31.1384526  39.4645447  38.0194334  30.4952268  38.2726533
  33.9651861  16.3724570  55.6974954  33.5718807  15.8190769  56.3722598
  34.7818002  16.6835149  56.0881471  30.9313919  27.8108429  39.6088524
  31.4438440  28.6051679  39.7594088  31.5836632  27.1134719  39.5422125
  32.7408804  30.9274185  41.6911277  32.9175432  31.8492150  41.5032261
  33.5365637  30.6132604  42.1205657  36.8819822  17.7882449  53.2895210
  37.6229536  18.3889603  53.2099673  37.1137745  17.0460087  52.7313253
  32.0261160  22.9738817  51.5673440  31.9114675  22.0724074  51.8680539
  31.1705678  23.2202514  51.2158257  39.1052998  30.9156557  53.1660941
  38.6616852  30.1292936  52.8481845  39.7670212  31.1035708  52.5004832
  33.8640119  32.4452359  47.6921619  34.4147544  32.3169422  46.9198613
  33.0251595  32.7447248  47.3416512  41.2034236  31.1959357  51.1942342
  41.1852711  32.0168238  50.7022611  42.1254156  31.0713432  51.4192483
  37.6607290  28.7103486  52.0365850  38.1935627  27.9491775  51.8065158
  37.1321371  28.4177138  52.7790005  40.8276985  13.8163552  47.5659492
  40.4841255  14.7065194  47.4898603  41.1955948  13.6265210  46.7029077
  28.8962836  26.1397083  40.3848094  29.7338058  26.5494091  40.1681802
  29.0741103  25.1996525  40.3548288  40.7927268  23.8072164  36.0731927
  40.2773891  24.5776768  36.3120315  40.5204576  23.1337300  36.6964989
  38.3774379  18.6521864  41.1317166  37.5215975  18.2628715  40.9522804
  38.7901331  18.7313825  40.2716951  39.9073526  16.1868208  45.5308725
  39.4038321  16.1498343  44.7176531  40.2004132  17.0960950  45.5905382
  36.1516411  16.2706937  44.5374907  37.0169408  16.0749746  44.1780797
  36.2193920  16.0417289  45.4644264  45.7661542  26.5604518  38.0085101
  44.9890985  26.2215678  37.5640263  46.4453023  26.5657141  37.3340066
  40.5813571  21.6799256  37.8991708  40.2763707  21.9945405  38.7501852
  41.5344013  21.7580676  37.9419041  39.0260003  27.8389479  39.5484662
  38.4981364  27.1042239  39.2357900  38.5247506  28.6164155  39.3024631
  44.0052849  26.0338499  44.6651709  43.3476523  26.7237761  44.7531837
  44.8093248  26.4234931  45.0085695  33.7578731  18.5009145  41.9091274
  34.3322482  18.2784327  41.1764467  34.3449713  18.5697840  42.6619875
  42.8158308  24.3882872  42.7155650  43.3290189  25.0212864  43.2177360
  43.4659532  23.7884068  42.3499011  34.0848318  20.5313606  35.9287159
  33.2485630  20.8688293  36.2496434  33.9453087  20.3962586  34.9914296
  36.0601398  15.3750394  40.6366343  35.4065811  15.0599411  40.0122958
  36.0181872  14.7526135  41.3626166  37.1712603  25.6569689  32.5519635
  36.2639665  25.4258943  32.7510784  37.6683635  24.8607308  32.7393617
  40.0780682  34.3667196  35.4716322  39.4042381  34.6698893  36.0801279
  40.4646504  35.1696277  35.1221779  39.2939139  21.8632328  44.9613991
  38.3761700  22.0847275  44.8035679  39.7099282  21.9378638  44.1025698
  40.0774186  23.2623743  40.0916671  40.8246005  23.7745141  39.7823793
  40.3465776  22.9407796  40.9521065  38.3500837  25.7582284  37.0743626
  37.4412056  25.4741317  37.1716095  38.3795920  26.1781363  36.2146932
  43.5820104  29.3688874  40.8434793  43.1282431  28.5279783  40.8999984
  42.9514071  30.0050272  41.1809573  42.5253024  20.2980860  42.0735461
  41.7875780  19.7858246  42.4045703  42.7779797  19.8581241  41.2618737
  42.0253043  31.2065370  41.7784611  42.3176018  31.7670427  41.0596977
  42.5351664  31.4993931  42.5337770  42.6264651  13.0757112  42.6677230
  42.9323528  12.2154475  42.3803145  43.3517256  13.6674732  42.4676224
  28.9189007  23.4787798  41.0558828  28.7213407  22.8857159  40.3309894
  28.3635671  23.1740008  41.7734767  36.8985731  23.3710905  43.1753421
  36.9534340  22.4184741  43.0995898  36.0876933  23.5270344  43.6594719
  38.0476924  27.2991028  34.4131704  37.6096354  26.5826887  33.9537341
  38.7887365  27.5267143  33.8516796  34.8378090  21.9887964  40.9343800
  34.0245956  22.2882135  41.3408992  35.3337085  21.5943653  41.6518282
  36.9886668  31.9845721  42.8678064  36.9462847  32.2106568  41.9386596
  37.9049367  31.7509096  43.0163866  40.4352302  22.4529789  49.7658694
  40.7901690  22.6801262  50.6253159  41.0824433  22.7848166  49.1435949
  46.1650039  25.5748225  40.4708023  46.0267938  25.7649821  39.5429212
  45.8086258  26.3367608  40.9276074  34.3292165  19.5606320  46.5505035
  34.9691545  19.4195079  45.8527998  33.4969696  19.2740833  46.1743637
  46.1919419  27.6424752  45.4819294  46.6255925  27.5500041  46.3302348
  46.9050999  27.6182252  44.8439310  35.1052469  28.8608750  42.6640027
  35.8993068  28.3659071  42.4622602  34.3944162  28.3326614  42.3007733
  39.9247314  31.2426846  47.0152395  39.9784336  31.8117782  47.7830111
  39.0562095  31.4128731  46.6506432  31.4135233  23.0051832  38.7399780
  30.4832821  22.9436288  38.9569742  31.5092705  22.4827785  37.9436421
  31.3320782  19.5306645  41.3278022  31.5927599  20.4451978  41.2187182
  32.1537954  19.0631088  41.4774634  32.8045707  20.9444402  48.4976846
  33.4768760  20.7361764  47.8489495  31.9775494  20.7466488  48.0582078
  47.0534968  27.6848452  48.0152180  47.2470858  28.5894263  48.2611455
  46.9535586  27.2255872  48.8490765  38.7071279  17.5706343  50.5142507
  38.0599194  18.2696293  50.4206983  39.4772294  18.0042487  50.8818755
  42.1150077  27.8355195  53.5893060  41.9635583  27.6065747  52.6723144
  42.1054756  28.7925797  53.6024405  38.8835413  25.4087108  48.5739327
  39.8127473  25.5598268  48.4008294  38.4626443  25.4971129  47.7187973
  37.6823745  29.4337772  46.3437864  37.5434831  29.0656557  47.2163802
  36.8938341  29.9485412  46.1721822  38.2771897  34.5346869  37.6863401
  38.4523653  34.0634912  38.5009024  37.5904685  35.1612635  37.9144662
  39.2328960  28.8119375  43.7326702  38.8978793  28.7720145  44.6284352
  38.7332906  28.1464091  43.2597112  33.2073204  24.2187005  49.2579283
  33.0693002  23.4867244  49.8590822  34.1178128  24.1295905  48.9763471
  42.1688152  26.1575409  34.0063762  41.5517323  25.4322238  33.9096814
  41.7004640  26.9184770  33.6630836  35.8355505  23.9306964  48.7462963
  36.5455123  23.2900157  48.7049581  35.7924813  24.1819859  49.6689144
  43.8242284  30.8674318  51.6669542  43.7654830  30.1833538  51.0000125
  44.2261802  31.6093308  51.2150168  34.5484439  20.9172182  50.5658602
  34.0121796  20.4662921  51.2180199  33.9601147  21.0518091  49.8229067
  32.8432982  37.6836232  44.4603261  33.0829581  38.3154756  45.1382280
  32.0002179  37.3324272  44.7468620  33.9586698  20.3760834  33.1285066
  33.0816164  20.2549634  32.7647313  34.4344451  19.5846912  32.8763955
  43.8259691  28.8313902  49.8983522  42.9386470  28.4939823  50.0209921
  44.3958242  28.0996933  50.1352287  25.4788838  25.1637993  43.2226573
  26.1659878  24.8499723  42.6347588  25.3236967  26.0679358  42.9493825
  30.2823560  20.0528190  47.6511597  30.1981749  19.4453860  46.9162007
  29.4606267  20.5437208  47.6521093  37.3560844  33.4915354  46.8644765
  37.2831016  34.2970326  47.3764070  36.9138237  33.6907320  46.0392786
  37.1450624  32.7287124  40.3747587  36.3618146  33.2708804  40.4685811
  37.8443369  33.2461104  40.7741828  40.4547274  18.5381754  43.0181792
  40.9515974  17.7851716  42.6982862  39.6834256  18.5746070  42.4525001
  48.3077031  24.2422119  44.6600083  48.2966908  25.1246834  44.2894017
  47.4394411  23.8893670  44.4654620  39.8159528  33.3902188  49.0202924
  40.5287500  34.0249653  48.9478825  39.3249556  33.4866054  48.2042925
  41.5377055  27.2953441  40.5920215  40.6033333  27.4154903  40.4224920
  41.7153723  26.3925908  40.3280225  37.0382243  20.6799137  42.7453477
  36.6680030  20.1270177  43.4334382  37.5341335  20.0757270  42.1928477
  44.9249606  23.1370760  41.1270249  45.3910058  23.9698752  41.0530552
  45.3757107  22.6715742  41.8315508  34.8671441  31.1396632  49.8408494
  35.5680901  31.7733114  49.9937889  34.3966556  31.4811363  49.0804134
  42.9925837  29.4814581  38.1256401  43.2685681  29.3671176  39.0350276
  42.1230336  29.0832066  38.0868575  42.8966269  15.5051347  45.1661151
  41.9829349  15.7355574  45.3343358  43.3259370  15.5889791  46.0175183
  42.6672727  23.6941239  47.6661045  42.0144178  23.9417146  47.0113498
  43.0453107  22.8805377  47.3323522  39.6279901  33.7300932  41.7689215
  39.8102296  32.9122588  42.2316967  40.4512887  33.9468624  41.3314105
  39.9622067  32.6569117  39.0304264  40.4909833  32.1461572  38.4174426
  40.2250286  32.3411647  39.8949797  38.7160300  24.4361050  54.1527082
  38.0400937  24.3355179  54.8229457  39.5387934  24.2800264  54.6163079
  30.4639159  30.6732987  46.7739597  31.0492596  29.9276674  46.9067501
  30.2663998  30.9836943  47.6576261  33.3177815  33.7084234  41.7902040
  32.6488190  34.1930362  41.3066080  33.1790684  33.9553454  42.7045418
  25.0556814  23.2438587  45.4944040  25.0940914  22.7102177  46.2881158
  24.5497107  22.7173792  44.8755017  37.4583083  35.7427977  48.3884698
  38.0101391  35.9059599  49.1533783  37.7989277  36.3332415  47.7164723
  32.4347576  18.0903127  48.9906583  32.4988903  18.9517958  48.5783980
  32.3714697  17.4777129  48.2578941  31.9099849  20.1626260  52.6379617
  32.5371888  19.7803337  53.2517141  31.0527768  19.9440462  53.0035309
  42.3093958  30.5689235  54.2433352  42.8533861  31.1819193  53.7488307
  41.7280802  31.1268813  54.7600365  28.6865392  21.9702689  38.5697972
  28.9818833  21.0613367  38.5165025  27.7853427  21.9490428  38.2478974
  40.5951470  33.6909953  45.3748380  40.4702610  32.8899693  44.8659326
  41.2530562  34.1856146  44.8862350  32.2159639  20.0458686  44.5525520
  31.4946224  20.6594653  44.4132994  33.0052894  20.5816450  44.4742166
  42.6586379  31.4918973  47.0027930  41.7116714  31.3724324  46.9306257
  43.0069152  30.6041471  47.0854192  35.0185952  17.3813112  50.8266172
  35.5420354  17.6275409  51.5892481  34.7998285  18.2133147  50.4069309
  30.4153233  19.6516787  38.6937297  30.0865939  18.7714166  38.5112403
  30.7692604  19.5964455  39.5813686  39.6632812  31.2871689  43.2032282
  39.5157775  30.3588397  43.3839852  40.4886306  31.3091780  42.7189358
  33.5295056  19.9389756  39.0612775  33.8691129  20.4675678  38.3391383
  33.9767177  20.2770163  39.8371341  43.2666934  32.1100248  44.2897155
  44.1913481  31.9043109  44.1521606  43.0982237  31.8616649  45.1986497
  36.2238497  18.3226807  48.5115843  35.8835318  17.5234620  48.9136522
  35.5177504  18.6228518  47.9392676  36.8754969  15.4076120  46.9643166
  37.6981038  14.9336598  46.8422056  37.1193033  16.1866603  47.4641852
  35.5163204  18.4364378  37.2606067  36.2371566  18.8145631  36.7569784
  34.8928508  19.1553255  37.3641045  39.6594326  19.1409527  38.1964400
  39.8757941  20.0234165  37.8953228  39.1788394  18.7495740  37.4670042
  34.3993548  22.0995240  44.7735144  34.2538129  22.4135543  45.6659426
  33.9218751  22.7180141  44.2206043  36.2589931  19.0897788  44.8216034
  36.2451499  18.1938881  44.4848332  36.9762359  19.0968452  45.4554320
  38.1116061  19.5235128  46.8669161  37.8533839  20.4452199  46.8653492
  37.5801102  19.1265563  47.5569625  43.0562250  32.6285915  39.6459247
  43.2299128  32.0632338  38.8933099  43.5491141  33.4286810  39.4638737
  28.8739210  24.6400585  47.7122805  28.3292678  25.4160393  47.8443080
  29.7518560  24.9871389  47.5541927  35.6626827  17.9712168  40.0903604
  35.7842738  17.0428815  40.2894491  35.3728869  17.9850854  39.1781919
  38.5318017  15.6567079  43.2270324  38.5539714  15.7206412  42.2722303
  38.9486076  14.8171588  43.4210830  48.9101641  25.3922338  41.2649546
  49.3532787  24.6429664  40.8668670  48.0328152  25.3832475  40.8823278
  44.0437423  31.9452680  36.7456145  44.7388327  32.5659373  36.9643459
  44.3860573  31.0948031  37.0208523  29.6605232  23.7670481  50.6052962
  28.9186968  23.9153116  51.1917593  29.3397976  24.0278746  49.7419712
  45.9428846  29.3952385  38.2743476  46.4680170  29.7339658  37.5492796
  45.8551198  28.4599401  38.0906610  37.6048895  33.3086459  50.4033352
  37.9136021  33.0635606  51.2756052  38.4024377  33.5133098  49.9152222
  37.6269507  35.4624369  42.6338729  37.1874497  34.9700747  43.3271586
  38.3777624  34.9197336  42.3930804  30.1061846  31.6535910  42.6363357
  30.9319865  31.3539681  42.2562000  29.7555898  30.8843532  43.0853146
  35.0743379  31.0062378  44.7061030  34.4523388  30.3433083  44.4063258
  35.7448246  31.0323510  44.0234678  28.3070451  29.5722236  43.5952290
  27.4702359  29.1444410  43.4136292  28.2794096  29.7654679  44.5323082
  35.1467906  19.4844166  54.2993537  35.1956062  20.3606289  53.9171306
  35.6890420  18.9421559  53.7265180  45.6322752  30.0285289  53.5794674
  44.8418296  30.0109428  53.0399173  45.3956106  30.5673583  54.3343710
  45.7520627  26.8777755  50.8927402  45.8018632  26.7127763  51.8342925
  45.6434550  26.0105014  50.5025283  34.6356886  29.5566301  38.1819491
  34.7845006  30.2401766  37.5286164  35.4423329  29.5371391  38.6968947
  43.0424389  22.8608683  52.2086709  43.9434252  22.7215148  51.9170707
  43.1172364  23.0263138  53.1484886  37.3767195  20.2375538  51.0539895
  36.5070504  20.5309104  50.7822484  37.6126675  20.8215983  51.7747159
  47.2538824  29.2974697  51.1369424  46.9623632  29.6604678  51.9732885
  46.6410955  28.5841705  50.9582756  48.4534506  26.8627577  43.6571994
  49.2881397  27.3017381  43.8209554  48.5893635  26.3866230  42.8380240
  45.5026012  24.4207312  49.6049482  45.9780134  24.6134958  48.7968333
  44.5791577  24.4766497  49.3592865  32.3909519  25.5831479  39.1880560
  32.1455561  24.6793809  39.3860770  32.5605433  25.5848629  38.2460038
  40.0806228  16.4555155  48.5705316  40.5988172  17.1916182  48.2451804
  39.7261361  16.7619148  49.4052075  31.6605166  21.3159836  36.6866721
  30.9674411  21.3904191  36.0306757  31.4156918  20.5520180  37.2088238
  40.3318823  12.8755438  44.0906212  40.6120576  12.2078627  44.7166639
  41.1169430  13.0684533  43.5780876  38.1352291  32.0514432  35.6531238
  37.5626258  32.6704619  35.2001710  38.7085085  32.6013793  36.1871160
  44.2027681  21.2973072  47.8377787  45.1545104  21.3971169  47.8590011
  44.0331131  20.5051340  48.3475872  42.2242060  18.3828655  48.0237188
  41.6291993  18.6633668  47.3283677  41.9391757  18.8722556  48.7953929
  41.3549551  32.3351582  36.7839821  42.2880224  32.2697143  36.9872696
  41.2672764  33.1707849  36.3254353  43.9837568  31.6517452  33.7443768
  43.9051199  31.3177316  34.6379526  44.8047234  32.1439220  33.7435241
  46.6815759  24.5179191  46.9520087  46.6492079  23.5795192  47.1379771
  47.2916382  24.5963228  46.2185912  38.5199090  23.3875244  32.9947291
  39.4658194  23.2581452  33.0635709  38.1413335  22.6489906  33.4716719
  46.8310247  21.3090235  46.9978370  46.3149296  20.5248691  46.8108299
  47.7150196  20.9808951  47.1624890  44.4920974  15.0531250  42.9574183
  44.2945795  14.7446339  43.8417515  45.1020680  15.7792889  43.0872113
  52.4992309  25.5795198  46.0926124  53.2295697  25.3180486  46.6533827
  51.8899254  24.8423920  46.1328192  50.5807606  23.7203061  46.6900575
  49.8540769  23.5859026  46.0817066  50.1654893  24.0279889  47.4957293
  38.4037782  27.4392990  54.4547948  39.3240792  27.6171589  54.6487994
  38.3687365  26.4949036  54.3027647  36.7042007  21.3125221  32.9302176
  35.7973462  21.0158333  33.0064890  36.9817988  21.0155039  32.0636462
  27.6219947  22.6331584  43.3801223  27.3022732  21.7796892  43.0875597
  27.0753375  22.8480162  44.1359190  31.3999855  25.3494025  47.0970729
  31.6185865  26.2811133  47.1158763  31.8125629  24.9902000  47.8825533
  38.3204073  15.8562110  39.0846417  37.5104801  15.5109195  39.4601664
  39.0088489  15.5469654  39.6734029  40.2494621  14.9340157  40.7070714
  40.8025659  15.3535611  41.3660737  40.4864707  14.0075905  40.7493670
  36.2727720  20.9227231  56.4873478  36.1724447  21.8721588  56.4185569
  36.0549262  20.5945470  55.6149548  35.4740791  18.1712156  33.0714155
  36.3359955  18.4967054  33.3309973  35.6591136  17.3843652  32.5587221
  27.4908207  26.2534496  45.3494344  26.7971679  25.8388448  44.8364299
  28.2381198  26.2955032  44.7527763  43.6273428  17.0440682  40.2149378
  43.0472097  17.7025486  39.8327431  43.3609361  16.2218027  39.8036796
  42.0776994  16.4445740  42.4170699  42.5776773  16.5562275  41.6085018
  42.7212602  16.1406793  43.0571507  36.1358990  24.3524370  55.3038540
  35.6526072  25.1524730  55.5102429  36.2219929  24.3632315  54.3505984
  29.4044950  26.1852749  43.2260359  29.3815638  26.2840437  42.2742242
  29.7145586  27.0317900  43.5477525  32.0632328  28.2428904  47.3406973
  33.0175581  28.2112847  47.2736905  31.8644851  27.7819528  48.1557199
  32.6531710  26.8130020  49.9077771  33.4724599  27.3074099  49.9312608
  32.9268517  25.8961989  49.8795339  42.4098306  19.2040773  39.2705727
  41.5224161  19.4890423  39.0525921  42.8252295  19.0434536  38.4233004
  45.7612842  19.2287294  42.9860066  46.5373232  19.7183746  43.2584683
  45.0360976  19.6545348  43.4431935  48.1985401  19.9414913  44.0434006
  48.7929891  19.7010649  43.3327315  48.2711984  19.2222044  44.6707543
  30.4182556  33.7848524  44.3577171  30.2837024  33.0248925  43.7915169
  30.0014619  34.5089424  43.8905960  41.5541519  28.9685447  33.3653747
  42.2577370  29.1735450  33.9811402  40.8304168  29.5362209  33.6302830
  42.3839330  24.7195309  39.4856017  42.3274531  25.1763860  38.6463649
  42.9367672  23.9585993  39.3078860  46.1944136  20.5085041  40.3106136
  45.9381070  20.1081676  41.1414344  45.5697004  21.2228835  40.1856275
  50.5056473  23.2481114  42.8177428  49.9456031  23.3174303  43.5908990
  49.8999977  23.0722098  42.0976924  33.5751682  34.6817841  44.5695614
  33.4584066  35.6263273  44.4674304  32.7544129  34.3791402  44.9581413
  43.4628217  29.4067977  35.4152207  44.2973821  28.9749175  35.2329681
  43.3012560  29.2349990  36.3429101  43.1174109  25.9100090  36.7808546
  43.0622913  25.7444361  35.8396990  42.4920164  26.6176123  36.9370736
  27.9066624  21.1468154  50.6069968  28.5525488  20.6367108  51.0957193
  27.6983775  21.8836836  51.1813393  40.4320016  28.2149002  56.1062109
  41.3011176  28.3889654  55.7448744  39.9526768  29.0343419  55.9837838
  36.4270234  15.4108199  36.3593864  36.4148904  16.3550039  36.5162135
  37.3193656  15.2278344  36.0653326  34.6006196  35.3346103  47.7851542
  35.5033443  35.3669713  48.1018037  34.3743566  34.4046554  47.7997878
  36.3559798  34.0877089  44.4461621  35.4055429  34.0878951  44.3325993
  36.6592285  33.3409824  43.9297656  40.2422354  12.0050976  40.6139801
  39.4754750  11.4509462  40.7596484  40.6533059  12.0772844  41.4753953
  32.2464115  18.2935771  54.7044982  33.1095577  17.9372576  54.9148307
  31.6729526  17.9549666  55.3920387  52.0912492  39.9237628  45.5107383
  52.7290902  39.8044375  44.8070723  51.9733335  40.8718472  45.5695336
  48.9002198  39.8765056  45.4468908  48.5620710  39.7606121  44.5589443
  49.7691966  39.4756221  45.4269914  44.7589014  41.7300532  41.4365799
  44.1953879  41.6390469  40.6682087  44.6441409  40.9100437  41.9168292
  49.3821981  41.0299908  51.4055114  49.3710622  40.6352706  50.5335617
  49.5442621  40.2965980  51.9988885  42.3053446  43.2251724  44.2750020
  43.0974738  42.8842549  43.8596319  42.5450096  43.3346699  45.1952173
  50.3388573  45.3971500  36.7480264  49.6876552  45.9825580  36.3614278
  51.1332935  45.9277695  36.8075301  44.2644200  42.4860637  37.1467398
  45.0375076  41.9389624  37.0080274  44.6169599  43.3504886  37.3581860
  46.1029242  43.8137019  50.3534298  45.8119108  44.7182650  50.2380964
  46.7386227  43.8553547  51.0678367  47.0285449  41.1913868  46.9435657
  47.6249021  40.9669890  46.2292620  47.0860421  40.4498613  47.5461105
  46.6010478  38.6453303  34.7785848  46.8535998  38.1234825  34.0169311
  45.6635037  38.4819449  34.8812532  51.6453760  37.6489082  42.5860591
  52.4316850  37.2308505  42.2351008  51.9092465  38.5535174  42.7542240
  51.8163838  43.0861932  37.2849248  51.1809671  43.1596558  37.9970153
  51.4861244  43.6755531  36.6068328  57.0462188  37.5864315  43.4893570
  57.7787359  37.0163532  43.7231399  56.2901543  37.1985915  43.9300076
  46.3206766  40.5481409  36.9810223  46.2043024  39.8726313  37.6491307
  46.4309026  40.0613783  36.1642376  48.6638307  40.0091556  40.6856912
  48.2996514  39.4822177  41.3969834  49.5205423  39.6190025  40.5123398
  54.5687608  31.2985889  47.9488179  54.2370933  32.1681300  47.7249394
  53.9733221  30.9822173  48.6282209  48.3043794  35.0381456  35.6818261
  48.4718197  35.9061692  36.0488732  48.1140963  35.2008738  34.7579550
  51.0619127  43.4998435  47.3484091  50.7619850  44.4023474  47.2399899
  50.7170187  43.2330618  48.2005244  44.5131609  39.9512232  43.3820796
  43.5882105  39.8188446  43.5898487  44.7616022  40.7306451  43.8790738
  54.4616271  36.0180975  45.0281529  53.5533149  35.9496384  44.7340290
  54.4103867  36.4952920  45.8563354  48.2833015  37.4939114  36.6664928
  48.1632640  37.9396164  37.5050408  47.5885603  37.8424431  36.1078466
  41.8740420  39.5945505  44.2164585  42.0032801  39.8479984  45.1303996
  41.1937871  40.1873213  43.8969240  46.0439907  50.2642755  40.3155059
  45.9663937  51.2150580  40.3943540  45.4401551  49.9188628  40.9729985
  48.5357137  37.4370621  52.9716426  47.7590471  37.9964541  52.9619291
  49.1747700  37.9227404  53.4931296  56.3277918  34.2197414  46.8059403
  55.6852298  34.5129947  46.1599197  55.8232846  34.1050334  47.6112599
  53.9818081  37.9660587  37.4945262  54.8935937  38.1987973  37.3192959
  53.4727728  38.5497631  36.9320340  46.7903509  40.2456074  52.5334393
  47.5318194  40.7841118  52.2569216  46.0840495  40.8722363  52.6905945
  52.2658849  42.3885215  51.1306554  52.6742205  41.9467625  50.3861187
  51.5436110  41.8137842  51.3840747  48.6189919  37.3257821  48.5040111
  49.4651114  37.7497235  48.6474760  48.5588557  36.6691446  49.1978674
  52.5887664  42.9486405  44.8858843  51.9596526  43.1132119  44.1834911
  52.2013326  43.3628015  45.6569807  56.4676895  43.8840843  42.2403207
  55.7827934  44.2639744  41.6900240  56.5520745  44.4936170  42.9735155
  51.7689364  34.9862190  50.1621285  51.5250296  35.7404250  49.6255561
  52.0449295  35.3647537  50.9968532  53.7227827  41.5300802  48.8398551
  53.9344722  42.1732562  48.1632932  53.6757575  40.6963119  48.3720481
  51.3254056  34.1418623  45.7435123  50.4638535  34.4399876  46.0351860
  51.3516491  34.3589022  44.8116155  48.1415625  42.6860813  42.1508928
  48.6053971  42.9648516  41.3613551  47.8772424  41.7844258  41.9682019
  45.0339706  42.2332295  45.0888692  45.6041064  42.6619563  44.4506176
  45.6247818  41.9514879  45.7872877  47.0784511  38.8083966  38.9598493
  47.7808555  39.2605009  39.4272420  46.7465140  38.1667784  39.5878387
  45.5264873  37.3995722  53.3349703  44.8963534  38.0812003  53.5685100
  45.4200961  37.2878804  52.3902841  40.8209845  37.0667518  44.2615627
  40.0308899  37.3225047  43.7855738  41.3121093  37.8815856  44.3667668
  54.8373655  44.4072757  47.0120908  55.6591099  44.0052945  46.7303590
  54.8336058  44.3040992  47.9637024  42.7724591  37.4312098  41.2199104
  41.9755754  37.5430792  41.7382599  42.5450183  37.7698750  40.3539994
  48.6030258  43.9556801  49.1681618  48.6674691  44.4177208  50.0039790
  47.8941182  43.3254166  49.2963928  39.1047548  37.3198009  46.6930618
  39.3555587  38.2045019  46.9588194  39.6407097  37.1402610  45.9205710
  62.9279648  40.7511506  43.3605879  62.1743356  40.1818904  43.2049884
  63.0627189  40.7174170  44.3076514  48.3178276  45.6224908  39.0360599
  48.1823951  46.4676444  39.4645447  48.8588089  45.8244186  38.2726533
  44.8045616  31.7016488  55.6974954  44.4112561  31.1482687  56.3722598
  45.6211756  32.0127067  56.0881471  41.7707673  43.1400346  39.6088524
  42.2832194  43.9343597  39.7594088  42.4230386  42.4426637  39.5422125
  43.5802558  46.2566103  41.6911277  43.7569187  47.1784067  41.5032261
  44.3759392  45.9424522  42.1205657  47.7213577  33.1174367  53.2895210
  48.4623290  33.7181520  53.2099673  47.9531500  32.3752005  52.7313253
  42.8654915  38.3030734  51.5673440  42.7508430  37.4015992  51.8680539
  42.0099432  38.5494431  51.2158257  49.9446752  46.2448475  53.1660941
  49.5010607  45.4584853  52.8481845  50.6063966  46.4327625  52.5004832
  44.7033874  47.7744276  47.6921619  45.2541299  47.6461340  46.9198613
  43.8645350  48.0739165  47.3416512  52.0427991  46.5251275  51.1942342
  52.0246466  47.3460156  50.7022611  52.9647911  46.4005350  51.4192483
  48.5001045  44.0395404  52.0365850  49.0329381  43.2783692  51.8065158
  47.9715126  43.7469056  52.7790005  51.6670740  29.1455470  47.5659492
  51.3235009  30.0357112  47.4898603  52.0349702  28.9557128  46.7029077
  39.7356590  41.4689001  40.3848094  40.5731812  41.8786009  40.1681802
  39.9134858  40.5288443  40.3548288  51.6321022  39.1364081  36.0731927
  51.1167646  39.9068686  36.3120315  51.3598331  38.4629217  36.6964989
  49.2168133  33.9813782  41.1317166  48.3609730  33.5920632  40.9522804
  49.6295085  34.0605743  40.2716951  50.7467280  31.5160125  45.5308725
  50.2432076  31.4790260  44.7176531  51.0397887  32.4252868  45.5905382
  46.9910166  31.5998855  44.5374907  47.8563163  31.4041664  44.1780797
  47.0587675  31.3709207  45.4644264  56.6055297  41.8896436  38.0085101
  55.8284739  41.5507595  37.5640263  57.2846777  41.8949059  37.3340066
  51.4207326  37.0091173  37.8991708  51.1157461  37.3237322  38.7501852
  52.3737768  37.0872593  37.9419041  49.8653757  43.1681397  39.5484662
  49.3375119  42.4334156  39.2357900  49.3641260  43.9456073  39.3024631
  54.8446603  41.3630417  44.6651709  54.1870278  42.0529679  44.7531837
  55.6487003  41.7526849  45.0085695  44.5972485  33.8301063  41.9091274
  45.1716237  33.6076244  41.1764467  45.1843467  33.8989757  42.6619875
  53.6552062  39.7174790  42.7155650  54.1683944  40.3504782  43.2177360
  54.3053286  39.1175985  42.3499011  44.9242072  35.8605524  35.9287159
  44.0879384  36.1980210  36.2496434  44.7846842  35.7254504  34.9914296
  46.8995153  30.7042312  40.6366343  46.2459565  30.3891329  40.0122958
  46.8575627  30.0818052  41.3626166  48.0106358  40.9861607  32.5519635
  47.1033419  40.7550860  32.7510784  48.5077390  40.1899226  32.7393617
  50.9174436  49.6959114  35.4716322  50.2436135  49.9990811  36.0801279
  51.3040258  50.4988194  35.1221779  50.1332893  37.1924245  44.9613991
  49.2155454  37.4139192  44.8035679  50.5493037  37.2670556  44.1025698
  50.9167941  38.5915661  40.0916671  51.6639760  39.1037058  39.7823793
  51.1859530  38.2699714  40.9521065  49.1894591  41.0874202  37.0743626
  48.2805810  40.8033235  37.1716095  49.2189675  41.5073280  36.2146932
  54.4213858  44.6980791  40.8434793  53.9676186  43.8571701  40.8999984
  53.7907825  45.3342190  41.1809573  53.3646778  35.6272777  42.0735461
  52.6269535  35.1150163  42.4045703  53.6173552  35.1873159  41.2618737
  52.8646798  46.5357288  41.7784611  53.1569772  47.0962345  41.0596977
  53.3745418  46.8285849  42.5337770  53.4658405  28.4049029  42.6677230
  53.7717282  27.5446393  42.3803145  54.1911010  28.9966649  42.4676224
  39.7582761  38.8079716  41.0558828  39.5607161  38.2149077  40.3309894
  39.2029425  38.5031926  41.7734767  47.7379485  38.7002822  43.1753421
  47.7928095  37.7476659  43.0995898  46.9270687  38.8562261  43.6594719
  48.8870679  42.6282945  34.4131704  48.4490109  41.9118804  33.9537341
  49.6281120  42.8559060  33.8516796  45.6771845  37.3179882  40.9343800
  44.8639711  37.6174053  41.3408992  46.1730839  36.9235571  41.6518282
  47.8280423  47.3137639  42.8678064  47.7856602  47.5398485  41.9386596
  48.7443122  47.0801014  43.0163866  51.2746057  37.7821707  49.7658694
  51.6295444  38.0093180  50.6253159  51.9218188  38.1140083  49.1435949
  57.0043794  40.9040142  40.4708023  56.8661692  41.0941738  39.5429212
  56.6480012  41.6659525  40.9276074  45.1685920  34.8898238  46.5505035
  45.8085299  34.7486997  45.8527998  44.3363450  34.6032751  46.1743637
  57.0313173  42.9716669  45.4819294  57.4649680  42.8791959  46.3302348
  57.7444754  42.9474170  44.8439310  45.9446224  44.1900668  42.6640027
  46.7386822  43.6950988  42.4622602  45.2337916  43.6618531  42.3007733
  50.7641068  46.5718764  47.0152395  50.8178090  47.1409700  47.7830111
  49.8955849  46.7420649  46.6506432  42.2528987  38.3343750  38.7399780
  41.3226575  38.2728205  38.9569742  42.3486459  37.8119703  37.9436421
  42.1714536  34.8598563  41.3278022  42.4321353  35.7743896  41.2187182
  42.9931708  34.3923005  41.4774634  43.6439461  36.2736320  48.4976846
  44.3162515  36.0653682  47.8489495  42.8169248  36.0758406  48.0582078
  57.8928723  43.0140370  48.0152180  58.0864613  43.9186181  48.2611455
  57.7929341  42.5547789  48.8490765  49.5465034  32.8998261  50.5142507
  48.8992949  33.5988210  50.4206983  50.3166049  33.3334405  50.8818755
  52.9543831  43.1647113  53.5893060  52.8029338  42.9357665  52.6723144
  52.9448511  44.1217714  53.6024405  49.7229168  40.7379026  48.5739327
  50.6521228  40.8890185  48.4008294  49.3020198  40.8263046  47.7187973
  48.5217500  44.7629690  46.3437864  48.3828585  44.3948474  47.2163802
  47.7332096  45.2777329  46.1721822  49.1165652  49.8638786  37.6863401
  49.2917407  49.3926830  38.5009024  48.4298440  50.4904553  37.9144662
  50.0722715  44.1411293  43.7326702  49.7372547  44.1012063  44.6284352
  49.5726660  43.4756009  43.2597112  44.0466959  39.5478923  49.2579283
  43.9086757  38.8159162  49.8590822  44.9571882  39.4587823  48.9763471
  53.0081906  41.4867327  34.0063762  52.3911077  40.7614155  33.9096814
  52.5398395  42.2476687  33.6630836  46.6749259  39.2598882  48.7462963
  47.3848878  38.6192074  48.7049581  46.6318568  39.5111777  49.6689144
  54.6636038  46.1966235  51.6669542  54.6048584  45.5125456  51.0000125
  55.0655556  46.9385225  51.2150168  45.3878193  36.2464100  50.5658602
  44.8515550  35.7954838  51.2180199  44.7994902  36.3810009  49.8229067
  43.6826737  53.0128149  44.4603261  43.9223335  53.6446673  45.1382280
  42.8395933  52.6616189  44.7468620  44.7980452  35.7052751  33.1285066
  43.9209919  35.5841552  32.7647313  45.2738205  34.9138830  32.8763955
  54.6653445  44.1605819  49.8983522  53.7780224  43.8231741  50.0209921
  55.2351996  43.4288851  50.1352287  36.3182592  40.4929911  43.2226573
  37.0053632  40.1791641  42.6347588  36.1630721  41.3971276  42.9493825
  41.1217315  35.3820108  47.6511597  41.0375503  34.7745777  46.9162007
  40.3000021  35.8729126  47.6521093  48.1954599  48.8207272  46.8644765
  48.1224770  49.6262243  47.3764070  47.7531992  49.0199238  46.0392786
  47.9844378  48.0579042  40.3747587  47.2011900  48.6000722  40.4685811
  48.6837124  48.5753021  40.7741828  51.2941028  33.8673671  43.0181792
  51.7909728  33.1143634  42.6982862  50.5228010  33.9037988  42.4525001
  59.1470786  39.5714037  44.6600083  59.1360662  40.4538752  44.2894017
  58.2788165  39.2185588  44.4654620  50.6553282  48.7194106  49.0202924
  51.3681254  49.3541571  48.9478825  50.1643311  48.8157972  48.2042925
  52.3770809  42.6245358  40.5920215  51.4427088  42.7446821  40.4224920
  52.5547478  41.7217825  40.3280225  47.8775997  36.0091054  42.7453477
  47.5073785  35.4562095  43.4334382  48.3735090  35.4049188  42.1928477
  55.7643361  38.4662678  41.1270249  56.2303813  39.2990669  41.0530552
  56.2150861  38.0007659  41.8315508  45.7065196  46.4688549  49.8408494
  46.4074655  47.1025032  49.9937889  45.2360311  46.8103281  49.0804134
  53.8319592  44.8106499  38.1256401  54.1079436  44.6963094  39.0350276
  52.9624090  44.4123984  38.0868575  53.7360023  30.8343265  45.1661151
  52.8223103  31.0647492  45.3343358  54.1653125  30.9181709  46.0175183
  53.5066482  39.0233157  47.6661045  52.8537932  39.2709064  47.0113498
  53.8846862  38.2097295  47.3323522  50.4673656  49.0592850  41.7689215
  50.6496050  48.2414506  42.2316967  51.2906642  49.2760542  41.3314105
  50.8015821  47.9861035  39.0304264  51.3303588  47.4753490  38.4174426
  51.0644041  47.6703565  39.8949797  49.5554055  39.7652968  54.1527082
  48.8794692  39.6647097  54.8229457  50.3781689  39.6092181  54.6163079
  41.3032914  46.0024904  46.7739597  41.8886351  45.2568592  46.9067501
  41.1057752  46.3128861  47.6576261  44.1571569  49.0376152  41.7902040
  43.4881944  49.5222279  41.3066080  44.0184439  49.2845372  42.7045418
  35.8950569  38.5730504  45.4944040  35.9334668  38.0394095  46.2881158
  35.3890861  38.0465710  44.8755017  48.2976838  51.0719895  48.3884698
  48.8495146  51.2351517  49.1533783  48.6383031  51.6624333  47.7164723
  43.2741331  33.4195045  48.9906583  43.3382657  34.2809876  48.5783980
  43.2108451  32.8069047  48.2578941  42.7493603  35.4918178  52.6379617
  43.3765642  35.1095255  53.2517141  41.8921522  35.2732379  53.0035309
  53.1487712  45.8981153  54.2433352  53.6927616  46.5111111  53.7488307
  52.5674557  46.4560731  54.7600365  39.5259146  37.2994607  38.5697972
  39.8212587  36.3905285  38.5165025  38.6247182  37.2782346  38.2478974
  51.4345225  49.0201871  45.3748380  51.3096364  48.2191611  44.8659326
  52.0924316  49.5148064  44.8862350  43.0553393  35.3750603  44.5525520
  42.3339979  35.9886571  44.4132994  43.8446649  35.9108368  44.4742166
  53.4980133  46.8210891  47.0027930  52.5510469  46.7016242  46.9306257
  53.8462906  45.9333389  47.0854192  45.8579707  32.7105030  50.8266172
  46.3814109  32.9567326  51.5892481  45.6392040  33.5425065  50.4069309
  41.2546988  34.9808704  38.6937297  40.9259694  34.1006083  38.5112403
  41.6086358  34.9256373  39.5813686  50.5026567  46.6163607  43.2032282
  50.3551529  45.6880314  43.3839852  51.3280060  46.6383698  42.7189358
  44.3688811  35.2681674  39.0612775  44.7084883  35.7967595  38.3391383
  44.8160931  35.6062080  39.8371341  54.1060688  47.4392166  44.2897155
  55.0307236  47.2335027  44.1521606  53.9375992  47.1908567  45.1986497
  47.0632252  33.6518725  48.5115843  46.7229072  32.8526538  48.9136522
  46.3571258  33.9520436  47.9392676  47.7148724  30.7368037  46.9643166
  48.5374793  30.2628515  46.8422056  47.9586787  31.5158521  47.4641852
  46.3556958  33.7656296  37.2606067  47.0765321  34.1437548  36.7569784
  45.7322262  34.4845172  37.3641045  50.4988081  34.4701445  38.1964400
  50.7151695  35.3526083  37.8953228  50.0182148  34.0787658  37.4670042
  45.2387302  37.4287158  44.7735144  45.0931883  37.7427461  45.6659426
  44.7612506  38.0472058  44.2206043  47.0983685  34.4189706  44.8216034
  47.0845254  33.5230799  44.4848332  47.8156113  34.4260370  45.4554320
  48.9509816  34.8527046  46.8669161  48.6927594  35.7744117  46.8653492
  48.4194856  34.4557481  47.5569625  53.8956005  47.9577833  39.6459247
  54.0692882  47.3924256  38.8933099  54.3884896  48.7578728  39.4638737
  39.7132964  39.9692502  47.7122805  39.1686433  40.7452310  47.8443080
  40.5912314  40.3163307  47.5541927  46.5020581  33.3004086  40.0903604
  46.6236492  32.3720732  40.2894491  46.2122624  33.3142772  39.1781919
  49.3711772  30.9858997  43.2270324  49.3933468  31.0498330  42.2722303
  49.7879831  30.1463505  43.4210830  59.7495396  40.7214256  41.2649546
  60.1926542  39.9721581  40.8668670  58.8721906  40.7124392  40.8823278
  54.8831177  47.2744598  36.7456145  55.5782082  47.8951290  36.9643459
  55.2254327  46.4239949  37.0208523  40.4998986  39.0962399  50.6052962
  39.7580722  39.2445034  51.1917593  40.1791731  39.3570664  49.7419712
  56.7822600  44.7244303  38.2743476  57.3073924  45.0631576  37.5492796
  56.6944953  43.7891318  38.0906610  48.4442649  48.6378377  50.4033352
  48.7529775  48.3927524  51.2756052  49.2418131  48.8425015  49.9152222
  48.4663261  50.7916286  42.6338729  48.0268251  50.2992665  43.3271586
  49.2171378  50.2489254  42.3930804  40.9455600  46.9827827  42.6363357
  41.7713620  46.6831599  42.2562000  40.5949652  46.2135450  43.0853146
  45.9137133  46.3354295  44.7061030  45.2917142  45.6725000  44.4063258
  46.5842000  46.3615427  44.0234678  39.1464205  44.9014154  43.5952290
  38.3096113  44.4736328  43.4136292  39.1187851  45.0946597  44.5323082
  45.9861661  34.8136083  54.2993537  46.0349816  35.6898206  53.9171306
  46.5284175  34.2713477  53.7265180  56.4716506  45.3577207  53.5794674
  55.6812050  45.3401346  53.0399173  56.2349861  45.8965500  54.3343710
  56.5914381  42.2069673  50.8927402  56.6412386  42.0419681  51.8342925
  56.4828305  41.3396932  50.5025283  45.4750640  44.8858219  38.1819491
  45.6238760  45.5693683  37.5286164  46.2817084  44.8663309  38.6968947
  53.8818144  38.1900601  52.2086709  54.7828007  38.0507066  51.9170707
  53.9566118  38.3555056  53.1484886  48.2160949  35.5667456  51.0539895
  47.3464259  35.8601022  50.7822484  48.4520430  36.1507901  51.7747159
  58.0932578  44.6266615  51.1369424  57.8017387  44.9896595  51.9732885
  57.4804710  43.9133623  50.9582756  59.2928261  42.1919494  43.6571994
  60.1275152  42.6309298  43.8209554  59.4287389  41.7158148  42.8380240
  56.3419766  39.7499229  49.6049482  56.8173888  39.9426876  48.7968333
  55.4185332  39.8058415  49.3592865  43.2303273  40.9123396  39.1880560
  42.9849315  40.0085726  39.3860770  43.3999188  40.9140547  38.2460038
  50.9199983  31.7847073  48.5705316  51.4381927  32.5208100  48.2451804
  50.5655116  32.0911066  49.4052075  42.4998921  36.6451754  36.6866721
  41.8068166  36.7196109  36.0306757  42.2550673  35.8812098  37.2088238
  51.1712577  28.2047355  44.0906212  51.4514331  27.5370544  44.7166639
  51.9563184  28.3976451  43.5780876  48.9746046  47.3806349  35.6531238
  48.4020013  47.9996536  35.2001710  49.5478839  47.9305711  36.1871160
  55.0421435  36.6264989  47.8377787  55.9938858  36.7263087  47.8590011
  54.8724886  35.8343258  48.3475872  53.0635815  33.7120573  48.0237188
  52.4685747  33.9925585  47.3283677  52.7785512  34.2014473  48.7953929
  52.1943305  47.6643499  36.7839821  53.1273979  47.5989061  36.9872696
  52.1066518  48.4999766  36.3254353  54.8231322  46.9809370  33.7443768
  54.7444954  46.6469233  34.6379526  55.6440989  47.4731138  33.7435241
  57.5209513  39.8471109  46.9520087  57.4885833  38.9087110  47.1379771
  58.1310137  39.9255146  46.2185912  49.3592844  38.7167162  32.9947291
  50.3051949  38.5873370  33.0635709  48.9807089  37.9781824  33.4716719
  57.6704002  36.6382152  46.9978370  57.1543050  35.8540609  46.8108299
  58.5543950  36.3100869  47.1624890  55.3314729  30.3823168  42.9574183
  55.1339550  30.0738256  43.8417515  55.9414434  31.1084807  43.0872113
  63.3386063  40.9087116  46.0926124  64.0689452  40.6472404  46.6533827
  62.7293009  40.1715838  46.1328192  61.4201360  39.0494978  46.6900575
  60.6934524  38.9150943  46.0817066  61.0048647  39.3571807  47.4957293
  49.2431537  42.7684908  54.4547948  50.1634546  42.9463507  54.6487994
  49.2081120  41.8240953  54.3027647  47.5435761  36.6417138  32.9302176
  46.6367217  36.3450251  33.0064890  47.8211742  36.3446956  32.0636462
  38.4613702  37.9623502  43.3801223  38.1416486  37.1088810  43.0875597
  37.9147130  38.1772080  44.1359190  42.2393609  40.6785943  47.0970729
  42.4579619  41.6103051  47.1158763  42.6519383  40.3193917  47.8825533
  49.1597827  31.1854028  39.0846417  48.3498555  30.8401113  39.4601664
  49.8482244  30.8761572  39.6734029  51.0888375  30.2632075  40.7070714
  51.6419414  30.6827528  41.3660737  51.3258462  29.3367823  40.7493670
  47.1121475  36.2519149  56.4873478  47.0118201  37.2013506  56.4185569
  46.8943017  35.9237387  55.6149548  46.3134546  33.5004074  33.0714155
  47.1753710  33.8258972  33.3309973  46.4984890  32.7135570  32.5587221
  38.3301962  41.5826413  45.3494344  37.6365433  41.1680366  44.8364299
  39.0774953  41.6246950  44.7527763  54.4667182  32.3732600  40.2149378
  53.8865851  33.0317404  39.8327431  54.2003115  31.5509945  39.8036796
  52.9170749  31.7737658  42.4170699  53.4170527  31.8854192  41.6085018
  53.5606357  31.4698711  43.0571507  46.9752745  39.6816287  55.3038540
  46.4919826  40.4816648  55.5102429  47.0613684  39.6924232  54.3505984
  40.2438704  41.5144667  43.2260359  40.2209392  41.6132354  42.2742242
  40.5539341  42.3609818  43.5477525  42.9026082  43.5720822  47.3406973
  43.8569336  43.5404764  47.2736905  42.7038606  43.1111446  48.1557199
  43.4925464  42.1421938  49.9077771  44.3118353  42.6366017  49.9312608
  43.7662272  41.2253906  49.8795339  53.2492060  34.5332690  39.2705727
  52.3617915  34.8182341  39.0525921  53.6646049  34.3726454  38.4233004
  56.6006597  34.5579211  42.9860066  57.3766987  35.0475664  43.2584683
  55.8754731  34.9837266  43.4431935  59.0379155  35.2706831  44.0434006
  59.6323646  35.0302567  43.3327315  59.1105739  34.5513961  44.6707543
  41.2576311  49.1140442  44.3577171  41.1230779  48.3540842  43.7915169
  40.8408373  49.8381341  43.8905960  52.3935274  44.2977365  33.3653747
  53.0971124  44.5027368  33.9811402  51.6697923  44.8654127  33.6302830
  53.2233084  40.0487226  39.4856017  53.1668286  40.5055778  38.6463649
  53.7761427  39.2877911  39.3078860  57.0337890  35.8376958  40.3106136
  56.7774824  35.4373594  41.1414344  56.4090758  36.5520752  40.1856275
  61.3450228  38.5773032  42.8177428  60.7849786  38.6466221  43.5908990
  60.7393731  38.4014016  42.0976924  44.4145437  50.0109759  44.5695614
  44.2977821  50.9555191  44.4674304  43.5937883  49.7083320  44.9581413
  54.3021971  44.7359894  35.4152207  55.1367575  44.3041093  35.2329681
  54.1406314  44.5641908  36.3429101  53.9567863  41.2392008  36.7808546
  53.9016667  41.0736279  35.8396990  53.3313919  41.9468041  36.9370736
  38.7460378  36.4760072  50.6069968  39.3919242  35.9659026  51.0957193
  38.5377530  37.2128754  51.1813393  51.2713771  43.5440920  56.1062109
  52.1404930  43.7181572  55.7448744  50.7920522  44.3635336  55.9837838
  47.2663989  30.7400117  36.3593864  47.2542659  31.6841957  36.5162135
  48.1587411  30.5570262  36.0653326  45.4399951  50.6638021  47.7851542
  46.3427198  50.6961631  48.1018037  45.2137321  49.7338471  47.7997878
  47.1953553  49.4169007  44.4461621  46.2449184  49.4170869  44.3325993
  47.4986039  48.6701742  43.9297656  51.0816108  27.3342893  40.6139801
  50.3148504  26.7801380  40.7596484  51.4926813  27.4064762  41.4753953
  43.0857869  33.6227689  54.7044982  43.9489331  33.2664494  54.9148307
  42.5123280  33.2841584  55.3920387  62.9306246  55.2529545  45.5107383
  63.5684656  55.1336293  44.8070723  62.8127089  56.2010389  45.5695336
  59.7395953  55.2056974  45.4468908  59.4014464  55.0898038  44.5589443
  60.6085721  54.8048139  45.4269914  55.5982768  57.0592450  41.4365799
  55.0347633  56.9682387  40.6682087  55.4835163  56.2392354  41.9168292
  60.2215736  56.3591825  51.4055114  60.2104376  55.9644624  50.5335617
  60.3836375  55.6257898  51.9988885  53.1447200  58.5543642  44.2750020
  53.9368492  58.2134466  43.8596319  53.3843850  58.6638617  45.1952173
  61.1782327  60.7263418  36.7480264  60.5270307  61.3117498  36.3614278
  61.9726690  61.2569613  36.8075301  55.1037954  57.8152555  37.1467398
  55.8768830  57.2681542  37.0080274  55.4563353  58.6796804  37.3581860
  56.9422997  59.1428937  50.3534298  56.6512863  60.0474568  50.2380964
  57.5779981  59.1845465  51.0678367  57.8679204  56.5205786  46.9435657
  58.4642776  56.2961808  46.2292620  57.9254175  55.7790531  47.5461105
  57.4404232  53.9745221  34.7785848  57.6929753  53.4526742  34.0169311
  56.5028791  53.8111366  34.8812532  62.4847515  52.9780999  42.5860591
  63.2710604  52.5600422  42.2351008  62.7486219  53.8827091  42.7542240
  62.6557592  58.4153850  37.2849248  62.0203425  58.4888476  37.9970153
  62.3254999  59.0047448  36.6068328  67.8855942  52.9156232  43.4893570
  68.6181114  52.3455449  43.7231399  67.1295298  52.5277833  43.9300076
  57.1600521  55.8773327  36.9810223  57.0436779  55.2018230  37.6491307
  57.2702781  55.3905701  36.1642376  59.5032062  55.3383474  40.6856912
  59.1390269  54.8114095  41.3969834  60.3599178  54.9481943  40.5123398
  65.4081362  46.6277807  47.9488179  65.0764687  47.4973218  47.7249394
  64.8126976  46.3114091  48.6282209  59.1437549  50.3673374  35.6818261
  59.3111951  51.2353610  36.0488732  58.9534718  50.5300655  34.7579550
  61.9012882  58.8290353  47.3484091  61.6013605  59.7315391  47.2399899
  61.5563941  58.5622536  48.2005244  55.3525363  55.2804149  43.3820796
  54.4275860  55.1480364  43.5898487  55.6009777  56.0598369  43.8790738
  65.3010026  51.3472893  45.0281529  64.3926903  51.2788301  44.7340290
  65.2497621  51.8244838  45.8563354  59.1226770  52.8231031  36.6664928
  59.0026395  53.2688082  37.5050408  58.4279358  53.1716349  36.1078466
  52.7134174  54.9237423  44.2164585  52.8426556  55.1771902  45.1303996
  52.0331626  55.5165131  43.8969240  56.8833662  65.5934673  40.3155059
  56.8057691  66.5442498  40.3943540  56.2795305  65.2480545  40.9729985
  59.3750891  52.7662538  52.9716426  58.5984226  53.3256459  52.9619291
  60.0141454  53.2519321  53.4931296  67.1671672  49.5489331  46.8059403
  66.5246052  49.8421864  46.1599197  66.6626601  49.4342252  47.6112599
  64.8211836  53.2952504  37.4945262  65.7329692  53.5279891  37.3192959
  64.3121483  53.8789549  36.9320340  57.6297264  55.5747992  52.5334393
  58.3711948  56.1133036  52.2569216  56.9234249  56.2014280  52.6905945
  63.1052603  57.7177132  51.1306554  63.5135959  57.2759543  50.3861187
  62.3829865  57.1429760  51.3840747  59.4583673  52.6549739  48.5040111
  60.3044869  53.0789153  48.6474760  59.3982311  51.9983363  49.1978674
  63.4281418  58.2778323  44.8858843  62.7990280  58.4424037  44.1834911
  63.0407080  58.6919932  45.6569807  67.3070650  59.2132761  42.2403207
  66.6221688  59.5931662  41.6900240  67.3914499  59.8228087  42.9735155
  62.6083119  50.3154107  50.1621285  62.3644051  51.0696168  49.6255561
  62.8843049  50.6939455  50.9968532  64.5621582  56.8592720  48.8398551
  64.7738477  57.5024480  48.1632932  64.5151330  56.0255036  48.3720481
  62.1647810  49.4710540  45.7435123  61.3032290  49.7691794  46.0351860
  62.1910245  49.6880939  44.8116155  58.9809380  58.0152731  42.1508928
  59.4447725  58.2940434  41.3613551  58.7166178  57.1136175  41.9682019
  55.8733461  57.5624212  45.0888692  56.4434818  57.9911481  44.4506176
  56.4641573  57.2806797  45.7872877  57.9178266  54.1375883  38.9598493
  58.6202309  54.5896927  39.4272420  57.5858894  53.4959702  39.5878387
  56.3658627  52.7287640  53.3349703  55.7357288  53.4103921  53.5685100
  56.2594715  52.6170722  52.3902841  51.6603600  52.3959436  44.2615627
  50.8702654  52.6516964  43.7855738  52.1514847  53.2107774  44.3667668
  65.6767409  59.7364675  47.0120908  66.4984853  59.3344862  46.7303590
  65.6729812  59.6332909  47.9637024  53.6118345  52.7604015  41.2199104
  52.8149509  52.8722709  41.7382599  53.3843938  53.0990667  40.3539994
  59.4424013  59.2848718  49.1681618  59.5068445  59.7469126  50.0039790
  58.7334937  58.6546083  49.2963928  49.9441303  52.6489926  46.6930618
  50.1949341  53.5336936  46.9588194  50.4800851  52.4694528  45.9205710
  59.1572031  60.9516826  39.0360599  59.0217705  61.7968362  39.4645447
  59.6981843  61.1536104  38.2726533  55.6439370  47.0308406  55.6974954
  55.2506316  46.4774604  56.3722598  56.4605511  47.3418984  56.0881471
  52.6101428  58.4692264  39.6088524  53.1225949  59.2635514  39.7594088
  53.2624141  57.7718554  39.5422125  54.4196313  61.5858020  41.6911277
  54.5962941  62.5075985  41.5032261  55.2153146  61.2716439  42.1205657
  58.5607331  48.4466285  53.2895210  59.3017045  49.0473438  53.2099673
  58.7925254  47.7043923  52.7313253  53.7048669  53.6322652  51.5673440
  53.5902184  52.7307909  51.8680539  52.8493187  53.8786349  51.2158257
  60.7840507  61.5740392  53.1660941  60.3404361  60.7876771  52.8481845
  61.4457721  61.7619543  52.5004832  55.5427628  63.1036194  47.6921619
  56.0935053  62.9753257  46.9198613  54.7039104  63.4031083  47.3416512
  62.8821745  61.8543192  51.1942342  62.8640220  62.6752073  50.7022611
  63.8041665  61.7297268  51.4192483  59.3394799  59.3687322  52.0365850
  59.8723136  58.6075610  51.8065158  58.8108880  59.0760974  52.7790005
  62.5064494  44.4747388  47.5659492  62.1628764  45.3649029  47.4898603
  62.8743457  44.2849045  46.7029077  50.5750345  56.7980918  40.3848094
  51.4125567  57.2077927  40.1681802  50.7528612  55.8580360  40.3548288
  62.4714777  54.4655999  36.0731927  61.9561400  55.2360604  36.3120315
  62.1992085  53.7921135  36.6964989  60.0561888  49.3105700  41.1317166
  59.2003484  48.9212550  40.9522804  60.4688840  49.3897660  40.2716951
  61.5861035  46.8452043  45.5308725  61.0825830  46.8082178  44.7176531
  61.8791641  47.7544786  45.5905382  57.8303920  46.9290773  44.5374907
  58.6956917  46.7333581  44.1780797  57.8981429  46.7001124  45.4644264
  67.4449051  57.2188354  38.0085101  66.6678494  56.8799513  37.5640263
  68.1240532  57.2240977  37.3340066  62.2601080  52.3383091  37.8991708
  61.9551216  52.6529240  38.7501852  63.2131522  52.4164511  37.9419041
  60.7047512  58.4973314  39.5484662  60.1768873  57.7626074  39.2357900
  60.2035015  59.2747991  39.3024631  65.6840358  56.6922335  44.6651709
  65.0264032  57.3821596  44.7531837  66.4880757  57.0818767  45.0085695
  55.4366240  49.1592981  41.9091274  56.0109991  48.9368162  41.1764467
  56.0237222  49.2281675  42.6619875  64.4945817  55.0466707  42.7155650
  65.0077698  55.6796699  43.2177360  65.1447041  54.4467903  42.3499011
  55.7635827  51.1897442  35.9287159  54.9273139  51.5272128  36.2496434
  55.6240596  51.0546421  34.9914296  57.7388907  46.0334229  40.6366343
  57.0853320  45.7183247  40.0122958  57.6969381  45.4109970  41.3626166
  58.8500112  56.3153525  32.5519635  57.9427174  56.0842778  32.7510784
  59.3471144  55.5191144  32.7393617  61.7568191  65.0251032  35.4716322
  61.0829890  65.3282729  36.0801279  62.1434013  65.8280112  35.1221779
  60.9726648  52.5216163  44.9613991  60.0549209  52.7431110  44.8035679
  61.3886791  52.5962474  44.1025698  61.7561695  53.9207579  40.0916671
  62.5033514  54.4328976  39.7823793  62.0253285  53.5991631  40.9521065
  60.0288346  56.4166119  37.0743626  59.1199565  56.1325152  37.1716095
  60.0583429  56.8365198  36.2146932  65.2607613  60.0272709  40.8434793
  64.8069940  59.1863619  40.8999984  64.6301580  60.6634107  41.1809573
  64.2040532  50.9564695  42.0735461  63.4663289  50.4442081  42.4045703
  64.4567306  50.5165077  41.2618737  63.7040552  61.8649206  41.7784611
  63.9963527  62.4254263  41.0596977  64.2139173  62.1577767  42.5337770
  64.3052160  43.7340947  42.6677230  64.6111037  42.8738310  42.3803145
  65.0304765  44.3258567  42.4676224  50.5976516  54.1371634  41.0558828
  50.4000916  53.5440994  40.3309894  50.0423180  53.8323844  41.7734767
  58.5773240  54.0294740  43.1753421  58.6321849  53.0768576  43.0995898
  57.7664442  54.1854179  43.6594719  59.7264433  57.9574863  34.4131704
  59.2883863  57.2410722  33.9537341  60.4674874  58.1850978  33.8516796
  56.5165599  52.6471800  40.9343800  55.7033465  52.9465970  41.3408992
  57.0124594  52.2527489  41.6518282  58.6674177  62.6429557  42.8678064
  58.6250356  62.8690403  41.9386596  59.5836876  62.4092931  43.0163866
  62.1139811  53.1113624  49.7658694  62.4689199  53.3385097  50.6253159
  62.7611942  53.4432001  49.1435949  67.8437548  56.2332060  40.4708023
  67.7055447  56.4233656  39.5429212  67.4873767  56.9951443  40.9276074
  56.0079674  50.2190155  46.5505035  56.6479054  50.0778914  45.8527998
  55.1757205  49.9324669  46.1743637  67.8706928  58.3008587  45.4819294
  68.3043434  58.2083876  46.3302348  68.5838508  58.2766088  44.8439310
  56.7839978  59.5192586  42.6640027  57.5780577  59.0242906  42.4622602
  56.0731671  58.9910449  42.3007733  61.6034823  61.9010681  47.0152395
  61.6571845  62.4701618  47.7830111  60.7349604  62.0712566  46.6506432
  53.0922742  53.6635667  38.7399780  52.1620330  53.6020123  38.9569742
  53.1880214  53.1411620  37.9436421  53.0108291  50.1890480  41.3278022
  53.2715108  51.1035814  41.2187182  53.8325463  49.7214923  41.4774634
  54.4833216  51.6028237  48.4976846  55.1556269  51.3945600  47.8489495
  53.6563003  51.4050323  48.0582078  60.3858788  48.2290178  50.5142507
  59.7386703  48.9280128  50.4206983  61.1559803  48.6626322  50.8818755
  63.7937586  58.4939031  53.5893060  63.6423092  58.2649582  52.6723144
  63.7842265  59.4509632  53.6024405  60.5622922  56.0670943  48.5739327
  61.4914982  56.2182103  48.4008294  60.1413952  56.1554964  47.7187973
  59.3611254  60.0921608  46.3437864  59.2222340  59.7240392  47.2163802
  58.5725850  60.6069247  46.1721822  59.9559406  65.1930704  37.6863401
  60.1311162  64.7218747  38.5009024  59.2692194  65.8196470  37.9144662
  60.9116469  59.4703210  43.7326702  60.5766302  59.4303980  44.6284352
  60.4120415  58.8047926  43.2597112  54.8860713  54.8770840  49.2579283
  54.7480511  54.1451079  49.8590822  55.7965637  54.7879741  48.9763471
  63.8475661  56.8159245  34.0063762  63.2304832  56.0906073  33.9096814
  63.3792149  57.5768605  33.6630836  57.5143014  54.5890800  48.7462963
  58.2242632  53.9483992  48.7049581  57.4712322  54.8403695  49.6689144
  56.2271948  51.5756018  50.5658602  55.6909305  51.1246756  51.2180199
  55.6388656  51.7101926  49.8229067  54.5220491  68.3420067  44.4603261
  54.7617090  68.9738591  45.1382280  53.6789688  67.9908107  44.7468620
  55.6374207  51.0344669  33.1285066  54.7603673  50.9133470  32.7647313
  56.1131960  50.2430747  32.8763955  65.5047200  59.4897737  49.8983522
  64.6173979  59.1523659  50.0209921  66.0745751  58.7580768  50.1352287
  47.1576347  55.8221829  43.2226573  47.8447387  55.5083559  42.6347588
  47.0024476  56.7263193  42.9493825  51.9611069  50.7112025  47.6511597
  51.8769258  50.1037695  46.9162007  51.1393776  51.2021044  47.6521093
  59.0348353  64.1499189  46.8644765  58.9618525  64.9554161  47.3764070
  58.5925746  64.3491155  46.0392786  58.8238133  63.3870959  40.3747587
  58.0405655  63.9292640  40.4685811  59.5230878  63.9044939  40.7741828
  62.1334783  49.1965589  43.0181792  62.6303483  48.4435551  42.6982862
  61.3621764  49.2329906  42.4525001  69.9864540  54.9005954  44.6600083
  69.9754417  55.7830670  44.2894017  69.1181920  54.5477505  44.4654620
  63.2164564  57.9537276  40.5920215  62.2820842  58.0738739  40.4224920
  63.3941232  57.0509743  40.3280225  58.7169752  51.3382972  42.7453477
  58.3467539  50.7854012  43.4334382  59.2128844  50.7341105  42.1928477
  66.6037115  53.7954595  41.1270249  67.0697567  54.6282587  41.0530552
  67.0544616  53.3299577  41.8315508  56.5458950  61.7980467  49.8408494
  57.2468410  62.4316950  49.9937889  56.0754065  62.1395198  49.0804134
  64.6713346  60.1398417  38.1256401  64.9473190  60.0255011  39.0350276
  63.8017845  59.7415902  38.0868575  64.5753778  46.1635182  45.1661151
  63.6616858  46.3939409  45.3343358  65.0046879  46.2473626  46.0175183
  64.3460236  54.3525074  47.6661045  63.6931687  54.6000982  47.0113498
  64.7240616  53.5389213  47.3323522  61.3067410  64.3884768  41.7689215
  61.4889805  63.5706423  42.2316967  62.1300396  64.6052460  41.3314105
  61.6409576  63.3152953  39.0304264  62.1697342  62.8045407  38.4174426
  61.9037795  62.9995483  39.8949797  60.3947809  55.0944885  54.1527082
  59.7188446  54.9939015  54.8229457  61.2175443  54.9384099  54.6163079
  52.1426668  61.3316822  46.7739597  52.7280105  60.5860510  46.9067501
  51.9451507  61.6420779  47.6576261  54.9965324  64.3668069  41.7902040
  54.3275699  64.8514197  41.3066080  54.8578193  64.6137290  42.7045418
  46.7344323  53.9022422  45.4944040  46.7728423  53.3686013  46.2881158
  46.2284616  53.3757628  44.8755017  54.1135085  48.7486963  48.9906583
  54.1776412  49.6101794  48.5783980  54.0502206  48.1360964  48.2578941
  53.5887358  50.8210095  52.6379617  54.2159397  50.4387173  53.2517141
  52.7315277  50.6024297  53.0035309  63.9881466  61.2273070  54.2433352
  64.5321370  61.8403029  53.7488307  63.4068311  61.7852649  54.7600365
  50.3652901  52.6286524  38.5697972  50.6606342  51.7197203  38.5165025
  49.4640936  52.6074264  38.2478974  53.8947148  50.7042521  44.5525520
  53.1733733  51.3178489  44.4132994  54.6840403  51.2400286  44.4742166
  64.3373888  62.1502808  47.0027930  63.3904223  62.0308160  46.9306257
  64.6856661  61.2625306  47.0854192  56.6973461  48.0396947  50.8266172
  57.2207863  48.2859244  51.5892481  56.4785794  48.8716982  50.4069309
  52.0940742  50.3100622  38.6937297  51.7653448  49.4298001  38.5112403
  52.4480113  50.2548291  39.5813686  61.3420321  61.9455525  43.2032282
  61.1945284  61.0172232  43.3839852  62.1673815  61.9675615  42.7189358
  55.2082565  50.5973592  39.0612775  55.5478638  51.1259513  38.3391383
  55.6554686  50.9353998  39.8371341  64.9454443  62.7684083  44.2897155
  65.8700990  62.5626945  44.1521606  64.7769746  62.5200485  45.1986497
  57.9026006  48.9810642  48.5115843  57.5622827  48.1818456  48.9136522
  57.1965013  49.2812353  47.9392676  58.5542478  46.0659955  46.9643166
  59.3768547  45.5920433  46.8422056  58.7980542  46.8450439  47.4641852
  57.1950713  49.0948213  37.2606067  57.9159075  49.4729466  36.7569784
  56.5716017  49.8137090  37.3641045  61.3381835  49.7993362  38.1964400
  61.5545450  50.6818000  37.8953228  60.8575903  49.4079576  37.4670042
  56.0781057  52.7579076  44.7735144  55.9325638  53.0719379  45.6659426
  55.6006260  53.3763976  44.2206043  57.9377440  49.7481624  44.8216034
  57.9239008  48.8522717  44.4848332  58.6549868  49.7552287  45.4554320
  59.7903570  50.1818964  46.8669161  59.5321348  51.1036034  46.8653492
  59.2588611  49.7849398  47.5569625  64.7349759  63.2869751  39.6459247
  64.9086637  62.7216173  38.8933099  65.2278650  64.0870646  39.4638737
  50.5526719  55.2984420  47.7122805  50.0080187  56.0744228  47.8443080
  51.4306069  55.6455224  47.5541927  57.3414336  48.6296004  40.0903604
  57.4630247  47.7012650  40.2894491  57.0516378  48.6434690  39.1781919
  60.2105526  46.3150914  43.2270324  60.2327223  46.3790247  42.2722303
  60.6273585  45.4755423  43.4210830  70.5889150  56.0506174  41.2649546
  71.0320296  55.3013499  40.8668670  69.7115661  56.0416310  40.8823278
  65.7224932  62.6036515  36.7456145  66.4175836  63.2243208  36.9643459
  66.0648082  61.7531866  37.0208523  51.3392741  54.4254316  50.6052962
  50.5974477  54.5736952  51.1917593  51.0185485  54.6862582  49.7419712
  67.6216355  60.0536221  38.2743476  68.1467679  60.3923494  37.5492796
  67.5338707  59.1183236  38.0906610  59.2836403  63.9670294  50.4033352
  59.5923530  63.7219441  51.2756052  60.0811886  64.1716933  49.9152222
  59.3057016  66.1208204  42.6338729  58.8662006  65.6284583  43.3271586
  60.0565132  65.5781172  42.3930804  51.7849355  62.3119745  42.6363357
  52.6107374  62.0123517  42.2562000  51.4343407  61.5427367  43.0853146
  56.7530888  61.6646213  44.7061030  56.1310897  61.0016918  44.4063258
  57.4235755  61.6907345  44.0234678  49.9857960  60.2306071  43.5952290
  49.1489868  59.8028246  43.4136292  49.9581605  60.4238515  44.5323082
  56.8255415  50.1428001  54.2993537  56.8743571  51.0190124  53.9171306
  57.3677929  49.6005394  53.7265180  56.3144395  60.2150136  38.1819491
  56.4632515  60.8985601  37.5286164  57.1210838  60.1955227  38.6968947
  64.7211898  53.5192519  52.2086709  65.6221761  53.3798984  51.9170707
  64.7959873  53.6846974  53.1484886  59.0554704  50.8959374  51.0539895
  58.1858013  51.1892940  50.7822484  59.2914184  51.4799819  51.7747159
  70.1322015  57.5211412  43.6571994  70.9668906  57.9601216  43.8209554
  70.2681144  57.0450065  42.8380240  67.1813521  55.0791147  49.6049482
  67.6567643  55.2718793  48.7968333  66.2579086  55.1350333  49.3592865
  54.0697028  56.2415314  39.1880560  53.8243070  55.3377644  39.3860770
  54.2392942  56.2432465  38.2460038  61.7593737  47.1138991  48.5705316
  62.2775681  47.8500017  48.2451804  61.4048870  47.4202984  49.4052075
  53.3392675  51.9743672  36.6866721  52.6461920  52.0488027  36.0306757
  53.0944427  51.2104015  37.2088238  62.0106332  43.5339273  44.0906212
  62.2908085  42.8662462  44.7166639  62.7956939  43.7268369  43.5780876
  59.8139800  62.7098267  35.6531238  59.2413767  63.3288454  35.2001710
  60.3872594  63.2597629  36.1871160  65.8815190  51.9556907  47.8377787
  66.8332613  52.0555005  47.8590011  65.7118640  51.1635176  48.3475872
  63.9029569  49.0412490  48.0237188  63.3079502  49.3217503  47.3283677
  63.6179266  49.5306391  48.7953929  63.0337060  62.9935417  36.7839821
  63.9667733  62.9280979  36.9872696  62.9460273  63.8291684  36.3254353
  65.6625077  62.3101287  33.7443768  65.5838708  61.9761151  34.6379526
  66.4834743  62.8023055  33.7435241  68.3603268  55.1763027  46.9520087
  68.3279588  54.2379027  47.1379771  68.9703891  55.2547063  46.2185912
  60.1986599  54.0459080  32.9947291  61.1445703  53.9165288  33.0635709
  59.8200844  53.3073742  33.4716719  68.5097756  51.9674070  46.9978370
  67.9936805  51.1832527  46.8108299  69.3937705  51.6392787  47.1624890
  66.1708483  45.7115086  42.9574183  65.9733304  45.4030174  43.8417515
  66.7808189  46.4376725  43.0872113  60.0825291  58.0976826  54.4547948
  61.0028301  58.2755425  54.6487994  60.0474874  57.1532871  54.3027647
  58.3829516  51.9709056  32.9302176  57.4760971  51.6742169  33.0064890
  58.6605497  51.6738874  32.0636462  49.3007456  53.2915419  43.3801223
  48.9810241  52.4380728  43.0875597  48.7540884  53.5063998  44.1359190
  53.0787364  56.0077860  47.0970729  53.2973373  56.9394968  47.1158763
  53.4913138  55.6485835  47.8825533  59.9991582  46.5145946  39.0846417
  59.1892310  46.1693031  39.4601664  60.6875998  46.2053490  39.6734029
  61.9282130  45.5923993  40.7070714  62.4813168  46.0119446  41.3660737
  62.1652216  44.6659741  40.7493670  57.9515229  51.5811066  56.4873478
  57.8511956  52.5305423  56.4185569  57.7336771  51.2529305  55.6149548
  57.1528300  48.8295991  33.0714155  58.0147464  49.1550890  33.3309973
  57.3378645  48.0427487  32.5587221  49.1695716  56.9118331  45.3494344
  48.4759188  56.4972284  44.8364299  49.9168707  56.9538867  44.7527763
  65.3060937  47.7024518  40.2149378  64.7259606  48.3609322  39.8327431
  65.0396870  46.8801862  39.8036796  63.7564503  47.1029575  42.4170699
  64.2564282  47.2146110  41.6085018  64.4000111  46.7990628  43.0571507
  57.8146499  55.0108205  55.3038540  57.3313581  55.8108565  55.5102429
  57.9007438  55.0216150  54.3505984  51.0832459  56.8436585  43.2260359
  51.0603147  56.9424272  42.2742242  51.3933095  57.6901736  43.5477525
  53.7419837  58.9012740  47.3406973  54.6963090  58.8696682  47.2736905
  53.5432360  58.4403364  48.1557199  54.3319219  57.4713856  49.9077771
  55.1512108  57.9657935  49.9312608  54.6056026  56.5545824  49.8795339
  64.0885815  49.8624608  39.2705727  63.2011670  50.1474259  39.0525921
  64.5039804  49.7018372  38.4233004  67.4400351  49.8871129  42.9860066
  68.2160741  50.3767582  43.2584683  66.7148485  50.3129183  43.4431935
  69.8772910  50.5998748  44.0434006  70.4717400  50.3594484  43.3327315
  69.9499493  49.8805879  44.6707543  52.0970065  64.4432359  44.3577171
  51.9624533  63.6832760  43.7915169  51.6802128  65.1673259  43.8905960
  63.2329028  59.6269283  33.3653747  63.9364878  59.8319285  33.9811402
  62.5091677  60.1946045  33.6302830  64.0626839  55.3779144  39.4856017
  64.0062040  55.8347696  38.6463649  64.6155181  54.6169829  39.3078860
  67.8731645  51.1668876  40.3106136  67.6168579  50.7665512  41.1414344
  67.2484513  51.8812670  40.1856275  72.1843982  53.9064949  42.8177428
  71.6243540  53.9758139  43.5908990  71.5787486  53.7305934  42.0976924
  55.2539191  65.3401676  44.5695614  55.1371575  66.2847109  44.4674304
  54.4331638  65.0375238  44.9581413  65.1415726  60.0651812  35.4152207
  65.9761330  59.6333010  35.2329681  64.9800069  59.8933826  36.3429101
  64.7961618  56.5683925  36.7808546  64.7410422  56.4028197  35.8396990
  64.1707673  57.2759958  36.9370736  49.5854133  51.8051990  50.6069968
  50.2312997  51.2950944  51.0957193  49.3771284  52.5420671  51.1813393
  62.1107525  58.8732837  56.1062109  62.9798685  59.0473489  55.7448744
  61.6314277  59.6927254  55.9837838  58.1057743  46.0692034  36.3593864
  58.0936413  47.0133874  36.5162135  58.9981165  45.8862180  36.0653326
  56.2793705  65.9929938  47.7851542  57.1820952  66.0253548  48.1018037
  56.0531075  65.0630389  47.7997878  58.0347307  64.7460925  44.4461621
  57.0842938  64.7462786  44.3325993  58.3379794  63.9993659  43.9297656
  61.9209863  42.6634811  40.6139801  61.1542259  42.1093298  40.7596484
  62.3320568  42.7356680  41.4753953  53.9251624  48.9519607  54.7044982
  54.7883085  48.5956412  54.9148307  53.3517035  48.6133502  55.3920387
  69.9831303  65.6965291  35.6818261  70.1505706  66.5645528  36.0488732
  69.7928472  65.8592573  34.7579550  69.9620524  68.1522949  36.6664928
  69.8420149  68.5980000  37.5050408  69.2673112  68.5008267  36.1078466
  75.6605590  68.6244422  37.4945262  76.5723446  68.8571809  37.3192959
  75.1515237  69.2081466  36.9320340  84.6067157  71.4095341  43.3605879
  83.8530865  70.8402739  43.2049884  84.7414698  71.3758006  44.3076514
  73.3108531  69.7947917  36.0731927  72.7955155  70.5652521  36.3120315
  73.0385840  69.1213053  36.6964989  70.8955642  64.6397617  41.1317166
  70.0397239  64.2504468  40.9522804  71.3082594  64.7189578  40.2716951
  68.6697675  62.2582690  44.5374907  69.5350672  62.0625499  44.1780797
  68.7375184  62.0293042  45.4644264  78.2842805  72.5480271  38.0085101
  77.5072248  72.2091431  37.5640263  78.9634286  72.5532894  37.3340066
  73.0994835  67.6675009  37.8991708  72.7944970  67.9821158  38.7501852
  74.0525277  67.7456429  37.9419041  66.2759994  64.4884898  41.9091274
  66.8503746  64.2660080  41.1764467  66.8630976  64.5573593  42.6619875
  66.6029581  66.5189359  35.9287159  65.7666893  66.8564046  36.2496434
  66.4634351  66.3838339  34.9914296  68.5782662  61.3626147  40.6366343
  67.9247074  61.0475164  40.0122958  68.5363136  60.7401888  41.3626166
  69.6893867  71.6445442  32.5519635  68.7820928  71.4134696  32.7510784
  70.1864899  70.8483061  32.7393617  72.5955450  69.2499496  40.0916671
  73.3427269  69.7620894  39.7823793  72.8647039  68.9283549  40.9521065
  75.0434287  66.2856613  42.0735461  74.3057044  65.7733999  42.4045703
  75.2961061  65.8456994  41.2618737  75.1445914  59.0632865  42.6677230
  75.4504791  58.2030228  42.3803145  75.8698519  59.6550485  42.4676224
  61.4370270  69.4663551  41.0558828  61.2394670  68.8732912  40.3309894
  60.8816934  69.1615761  41.7734767  78.6831303  71.5623978  40.4708023
  78.5449201  71.7525574  39.5429212  78.3267521  72.3243361  40.9276074
  63.8502045  65.5182398  41.3278022  64.1108862  66.4327731  41.2187182
  64.6719217  65.0506841  41.4774634  74.6869415  72.1451162  34.0063762
  74.0698586  71.4197991  33.9096814  74.2185904  72.9060523  33.6630836
  66.4767961  66.3636587  33.1285066  65.5997428  66.2425388  32.7647313
  66.9525714  65.5722665  32.8763955  72.9728537  64.5257507  43.0181792
  73.4697237  63.7727469  42.6982862  72.2015519  64.5621823  42.4525001
  61.2046655  67.9578442  38.5697972  61.5000096  67.0489120  38.5165025
  60.3034691  67.9366181  38.2478974  62.9334497  65.6392540  38.6937297
  62.6047203  64.7589919  38.5112403  63.2873867  65.5840208  39.5813686
  66.0476320  65.9265509  39.0612775  66.3872392  66.4551431  38.3391383
  66.4948440  66.2645916  39.8371341  68.0344467  64.4240131  37.2606067
  68.7552830  64.8021384  36.7569784  67.4109771  65.1429008  37.3641045
  72.1775590  65.1285280  38.1964400  72.3939204  66.0109918  37.8953228
  71.6969657  64.7371493  37.4670042  68.1808090  63.9587921  40.0903604
  68.3024001  63.0304568  40.2894491  67.8910133  63.9726607  39.1781919
  71.0499281  61.6442832  43.2270324  71.0720977  61.7082165  42.2722303
  71.4667340  60.8047341  43.4210830  81.4282905  71.3798091  41.2649546
  81.8714051  70.6305417  40.8668670  80.5509415  71.3708228  40.8823278
  78.4610109  75.3828138  38.2743476  78.9861433  75.7215411  37.5492796
  78.3732462  74.4475154  38.0906610  80.9715770  72.8503330  43.6571994
  81.8062661  73.2893134  43.8209554  81.1074898  72.3741983  42.8380240
  64.1786430  67.3035589  36.6866721  63.4855675  67.3779944  36.0306757
  63.9338182  66.5395933  37.2088238  76.5018831  77.6393205  33.7443768
  76.4232463  77.3053069  34.6379526  77.3228498  78.1314973  33.7435241
  71.0380353  69.3750997  32.9947291  71.9839458  69.2457205  33.0635709
  70.6594598  68.6365659  33.4716719  77.0102238  61.0407003  42.9574183
  76.8127059  60.7322092  43.8417515  77.6201943  61.7668642  43.0872113
  69.2223270  67.3000974  32.9302176  68.3154726  67.0034086  33.0064890
  69.4999251  67.0030792  32.0636462  70.8385336  61.8437863  39.0846417
  70.0286064  61.4984948  39.4601664  71.5269753  61.5345407  39.6734029
  72.7675884  60.9215910  40.7070714  73.3206923  61.3411364  41.3660737
  73.0045971  59.9951658  40.7493670  67.9922055  64.1587909  33.0714155
  68.8541219  64.4842807  33.3309973  68.1772399  63.3719405  32.5587221
  76.1454691  63.0316435  40.2149378  75.5653360  63.6901239  39.8327431
  75.8790624  62.2093780  39.8036796  74.5958258  62.4321493  42.4170699
  75.0958036  62.5438028  41.6085018  75.2393866  62.1282546  43.0571507
  74.9279569  65.1916526  39.2705727  74.0405424  65.4766176  39.0525921
  75.3433558  65.0310289  38.4233004  78.2794106  65.2163047  42.9860066
  79.0554496  65.7059499  43.2584683  77.5542240  65.6421101  43.4431935
  74.0722783  74.9561200  33.3653747  74.7758633  75.1611203  33.9811402
  73.3485432  75.5237962  33.6302830  74.9020593  70.7071062  39.4856017
  74.8455795  71.1639613  38.6463649  75.4548936  69.9461746  39.3078860
  78.7125399  66.4960794  40.3106136  78.4562333  66.0957429  41.1414344
  78.0878267  67.2104588  40.1856275  83.0237737  69.2356867  42.8177428
  82.4637295  69.3050056  43.5908990  82.4181240  69.0597851  42.0976924
  75.9809480  75.3943730  35.4152207  76.8155084  74.9624928  35.2329681
  75.8193823  75.2225743  36.3429101  75.6355372  71.8975843  36.7808546
  75.5804176  71.7320114  35.8396990  75.0101428  72.6051876  36.9370736
  68.9451498  61.3983952  36.3593864  68.9330168  62.3425792  36.5162135
  69.8374920  61.2154097  36.0653326  72.7603617  57.9926729  40.6139801
  71.9936013  57.4385215  40.7596484  73.1714322  58.0648597  41.4753953
  84.1635024  83.6364835  42.5860591  84.9498113  83.2184258  42.2351008
  84.4273728  84.5410927  42.7542240  89.5643451  83.5740068  43.4893570
  90.2968623  83.0039285  43.7231399  88.8082807  83.1861668  43.9300076
  87.0868871  77.2861642  47.9488179  86.7552196  78.1557053  47.7249394
  86.4914485  76.9697926  48.6282209  80.8225058  81.0257209  35.6818261
  80.9899460  81.8937445  36.0488732  80.6322227  81.1884491  34.7579550
  86.9797535  82.0056728  45.0281529  86.0714412  81.9372137  44.7340290
  86.9285130  82.4828673  45.8563354  80.8014279  83.4814867  36.6664928
  80.6813904  83.9271917  37.5050408  80.1066867  83.8300184  36.1078466
  81.0538400  83.4246374  52.9716426  80.2771734  83.9840294  52.9619291
  81.6928963  83.9103157  53.4931296  88.8459181  80.2073167  46.8059403
  88.2033561  80.5005700  46.1599197  88.3414110  80.0926087  47.6112599
  81.1371182  83.3133574  48.5040111  81.9832378  83.7372988  48.6474760
  81.0769820  82.6567199  49.1978674  84.2870628  80.9737943  50.1621285
  84.0431560  81.7280003  49.6255561  84.5630558  81.3523290  50.9968532
  83.8435319  80.1294376  45.7435123  82.9819799  80.4275629  46.0351860
  83.8697754  80.3464775  44.8116155  84.1852003  75.1331223  47.5659492
  83.8416273  76.0232865  47.4898603  84.5530966  74.9432881  46.7029077
  81.7349397  79.9689535  41.1317166  80.8790993  79.5796385  40.9522804
  82.1476349  80.0481496  40.2716951  83.2648544  77.5035878  45.5308725
  82.7613339  77.4666013  44.7176531  83.5579150  78.4128621  45.5905382
  86.1733326  85.7050543  42.7155650  86.6865207  86.3380535  43.2177360
  86.8234550  85.1051738  42.3499011  79.4176416  76.6918065  40.6366343
  78.7640829  76.3767082  40.0122958  79.3756890  76.0693805  41.3626166
  80.5287621  86.9737360  32.5519635  79.6214683  86.7426613  32.7510784
  81.0258653  86.1774979  32.7393617  82.6514157  83.1799998  44.9613991
  81.7336718  83.4014945  44.8035679  83.0674300  83.2546309  44.1025698
  85.8828041  81.6148530  42.0735461  85.1450798  81.1025917  42.4045703
  86.1354815  81.1748912  41.2618737  85.9839669  74.3924782  42.6677230
  86.2898546  73.5322146  42.3803145  86.7092274  74.9842403  42.4676224
  78.1953108  83.3055635  40.9343800  77.3820974  83.6049806  41.3408992
  78.6912103  82.9111324  41.6518282  83.7927320  83.7697460  49.7658694
  84.1476708  83.9968933  50.6253159  84.4399451  84.1015836  49.1435949
  82.0646297  78.8874014  50.5142507  81.4174212  79.5863963  50.4206983
  82.8347312  79.3210158  50.8818755  77.3161716  81.6928504  33.1285066
  76.4391182  81.5717305  32.7647313  77.7919469  80.9014583  32.8763955
  83.8122292  79.8549424  43.0181792  84.3090992  79.1019387  42.6982862
  83.0409273  79.8913741  42.4525001  91.6652049  85.5589790  44.6600083
  91.6541926  86.4414505  44.2894017  90.7969429  85.2061341  44.4654620
  80.3957261  81.9966807  42.7453477  80.0255048  81.4437848  43.4334382
  80.8916353  81.3924941  42.1928477  88.2824624  84.4538431  41.1270249
  88.7485076  85.2866422  41.0530552  88.7332125  83.9883412  41.8315508
  86.2541287  76.8219018  45.1661151  85.3404367  77.0523245  45.3343358
  86.6834388  76.9057462  46.0175183  79.5813515  79.6394478  48.5115843
  79.2410336  78.8402291  48.9136522  78.8752521  79.9396189  47.9392676
  83.0169344  80.4577198  38.1964400  83.2332959  81.3401836  37.8953228
  82.5363412  80.0663411  37.4670042  79.6164949  80.4065459  44.8216034
  79.6026517  79.5106552  44.4848332  80.3337377  80.4136123  45.4554320
  81.4691079  80.8402799  46.8669161  81.2108857  81.7619870  46.8653492
  80.9376120  80.4433234  47.5569625  79.0201845  79.2879839  40.0903604
  79.1417756  78.3596485  40.2894491  78.7303887  79.3018525  39.1781919
  81.8893035  76.9734750  43.2270324  81.9114732  77.0374083  42.2722303
  82.3061094  76.1339258  43.4210830  80.7342213  81.5543209  51.0539895
  79.8645522  81.8476775  50.7822484  80.9701693  82.1383654  51.7747159
  83.4381246  77.7722826  48.5705316  83.9563190  78.5083853  48.2451804
  83.0836379  78.0786819  49.4052075  83.6893841  74.1923108  44.0906212
  83.9695594  73.5246297  44.7166639  84.4744448  74.3852204  43.5780876
  85.5817078  79.6996326  48.0237188  84.9867011  79.9801338  47.3283677
  85.2966775  80.1890227  48.7953929  81.8774108  84.7042915  32.9947291
  82.8233212  84.5749123  33.0635709  81.4988353  83.9657577  33.4716719
  87.8495992  76.3698921  42.9574183  87.6520813  76.0614009  43.8417515
  88.4595698  77.0960560  43.0872113  80.0617025  82.6292891  32.9302176
  79.1548480  82.3326004  33.0064890  80.3393006  82.3322710  32.0636462
  81.6779090  77.1729781  39.0846417  80.8679819  76.8276866  39.4601664
  82.3663507  76.8637325  39.6734029  83.6069639  76.2507828  40.7070714
  84.1600677  76.6703281  41.3660737  83.8439725  75.3243576  40.7493670
  79.6302738  82.2394902  56.4873478  79.5299465  83.1889259  56.4185569
  79.4124280  81.9113140  55.6149548  78.8315809  79.4879827  33.0714155
  79.6934973  79.8134725  33.3309973  79.0166154  78.7011323  32.5587221
  86.9848446  78.3608353  40.2149378  86.4047115  79.0193157  39.8327431
  86.7184379  77.5385698  39.8036796  85.4352012  77.7613411  42.4170699
  85.9351791  77.8729945  41.6085018  86.0787620  77.4574464  43.0571507
  85.7673324  80.5208443  39.2705727  84.8799179  80.8058094  39.0525921
  86.1827313  80.3602207  38.4233004  89.1187860  80.5454964  42.9860066
  89.8948250  81.0351417  43.2584683  88.3935994  80.9713019  43.4431935
  91.5560419  81.2582584  44.0434006  92.1504909  81.0178320  43.3327315
  91.6287002  80.5389714  44.6707543  84.9116537  90.2853118  33.3653747
  85.6152387  90.4903121  33.9811402  84.1879186  90.8529880  33.6302830
  89.5519154  81.8252711  40.3106136  89.2956088  81.4249347  41.1414344
  88.9272022  82.5396505  40.1856275  79.7845252  76.7275870  36.3593864
  79.7723922  77.6717710  36.5162135  80.6768674  76.5446015  36.0653326
  83.5997372  73.3218646  40.6139801  82.8329768  72.7677133  40.7596484
  84.0108077  73.3940515  41.4753953  88.1164032 103.0468203  41.4365799
  87.5528897 102.9558140  40.6682087  88.0016427 102.2268107  41.9168292
  93.6963591 106.7139171  36.7480264  93.0451570 107.2993251  36.3614278
  94.4907953 107.2445366  36.8075301  95.1738856 104.4029603  37.2849248
  94.5384689 104.4764229  37.9970153  94.8436262 104.9923201  36.6068328
  89.6781784 101.8649080  36.9810223  89.5618042 101.1893983  37.6491307
  89.7884044 101.3781454  36.1642376  92.0213325 101.3259227  40.6856912
  91.6571532 100.7989848  41.3969834  92.8780441 100.9357696  40.5123398
  89.4014925 111.5810426  40.3155059  89.3238955 112.5318251  40.3943540
  88.7976569 111.2356298  40.9729985  97.3393099  99.2828257  37.4945262
  98.2510955  99.5155644  37.3192959  96.8302746  99.8665302  36.9320340
  99.8251913 105.2008514  42.2403207  99.1402952 105.5807415  41.6900240
  99.9095763 105.8103840  42.9735155  91.4990643 104.0028484  42.1508928
  91.9628989 104.2816187  41.3613551  91.2347441 103.1011929  41.9682019
  98.1948673 105.7240428  47.0120908  99.0166117 105.3220615  46.7303590
  98.1911076 105.6208662  47.9637024 106.2854666 102.0679177  43.3605879
 105.5318374 101.4986575  43.2049884 106.4202207 102.0341841  44.3076514
  91.6753294 106.9392579  39.0360599  91.5398969 107.7844115  39.4645447
  92.2163107 107.1411857  38.2726533  86.9377576 107.5733773  41.6911277
  87.1144204 108.4951738  41.5032261  87.7334410 107.2592192  42.1205657
  93.3021770 107.5616145  53.1660941  92.8585625 106.7752524  52.8481845
  93.9638984 107.7495296  52.5004832  88.0608892 109.0911947  47.6921619
  88.6116317 108.9629010  46.9198613  87.2220368 109.3906836  47.3416512
  95.4003009 107.8418945  51.1942342  95.3821484 108.6627826  50.7022611
  96.3222929 107.7173021  51.4192483  94.9896040 100.4531752  36.0731927
  94.4742664 101.2236357  36.3120315  94.7173349  99.7796888  36.6964989
  99.9630314 103.2064107  38.0085101  99.1859757 102.8675266  37.5640263
 100.6421795 103.2116730  37.3340066  93.2228775 104.4849067  39.5484662
  92.6950137 103.7501827  39.2357900  92.7216278 105.2623744  39.3024631
  98.2021621 102.6798088  44.6651709  97.5445296 103.3697349  44.7531837
  99.0062021 103.0694520  45.0085695  91.3681376 102.3029278  32.5519635
  90.4608437 102.0718531  32.7510784  91.8652408 101.5066897  32.7393617
  94.2749454 111.0126785  35.4716322  93.6011153 111.3158482  36.0801279
  94.6615276 111.8155865  35.1221779  94.2742959  99.9083332  40.0916671
  95.0214778 100.4204729  39.7823793  94.5434548  99.5867384  40.9521065
  92.5469609 102.4041872  37.0743626  91.6380828 102.1200905  37.1716095
  92.5764693 102.8240951  36.2146932  97.7788876 106.0148462  40.8434793
  97.3251203 105.1739372  40.8999984  97.1482843 106.6509860  41.1809573
  96.2221816 107.8524959  41.7784611  96.5144790 108.4130016  41.0596977
  96.7320436 108.1453520  42.5337770  91.0954503 100.0170493  43.1753421
  91.1503113  99.0644329  43.0995898  90.2845705 100.1729932  43.6594719
  92.2445697 103.9450616  34.4131704  91.8065127 103.2286475  33.9537341
  92.9856138 104.1726731  33.8516796  89.0346863  98.6347553  40.9343800
  88.2214728  98.9341723  41.3408992  89.5305857  98.2403242  41.6518282
  91.1855441 108.6305310  42.8678064  91.1431620 108.8566156  41.9386596
  92.1018140 108.3968684  43.0163866 100.3618812 102.2207813  40.4708023
 100.2236710 102.4109409  39.5429212 100.0055030 102.9827196  40.9276074
 100.3888191 104.2884340  45.4819294 100.8224698 104.1959629  46.3302348
 101.1019772 104.2641841  44.8439310  89.3021242 105.5068339  42.6640027
  90.0961840 105.0118659  42.4622602  88.5912934 104.9786202  42.3007733
  94.1216086 107.8886434  47.0152395  94.1753108 108.4577371  47.7830111
  93.2530867 108.0588319  46.6506432 101.2503741 104.3308041  48.0152180
 101.4439631 105.2353851  48.2611455 101.1504359 103.8715460  48.8490765
  96.3118849 104.4814784  53.5893060  96.1604356 104.2525335  52.6723144
  96.3023529 105.4385385  53.6024405  92.4740670 111.1806457  37.6863401
  92.6492425 110.7094500  38.5009024  91.7873458 111.8072223  37.9144662
  93.4297733 105.4578963  43.7326702  93.0947565 105.4179733  44.6284352
  92.9301678 104.7923679  43.2597112  96.3656924 102.8034998  34.0063762
  95.7486095 102.0781826  33.9096814  95.8973413 103.5644358  33.6630836
  98.0211056 107.5133906  51.6669542  97.9623602 106.8293126  51.0000125
  98.4230574 108.2552896  51.2150168  87.0401755 114.3295820  44.4603261
  87.2798353 114.9614344  45.1382280  86.1970951 113.9783860  44.7468620
  88.1555470  97.0220422  33.1285066  87.2784937  96.9009223  32.7647313
  88.6313223  96.2306500  32.8763955  91.5529617 110.1374942  46.8644765
  91.4799788 110.9429914  47.3764070  91.1107010 110.3366908  46.0392786
  91.3419396 109.3746712  40.3747587  90.5586918 109.9168393  40.4685811
  92.0412142 109.8920692  40.7741828 102.5045804 100.8881707  44.6600083
 102.4935680 101.7706423  44.2894017 101.6363183 100.5353258  44.4654620
  94.0128300 110.0361776  49.0202924  94.7256272 110.6709241  48.9478825
  93.5218329 110.1325642  48.2042925  95.7345827 103.9413029  40.5920215
  94.8002106 104.0614492  40.4224920  95.9122496 103.0385496  40.3280225
  89.0640214 107.7856220  49.8408494  89.7649673 108.4192703  49.9937889
  88.5935329 108.1270951  49.0804134  97.1894610 106.1274170  38.1256401
  97.4654454 106.0130764  39.0350276  96.3199108 105.7291655  38.0868575
  93.8248674 110.3760521  41.7689215  94.0071068 109.5582176  42.2316967
  94.6481660 110.5928213  41.3314105  94.1590839 109.3028706  39.0304264
  94.6878606 108.7921160  38.4174426  94.4219059 108.9871236  39.8949797
  84.6607932 107.3192575  46.7739597  85.2461369 106.5736263  46.9067501
  84.4632770 107.6296532  47.6576261  87.5146587 110.3543822  41.7902040
  86.8456962 110.8389950  41.3066080  87.3759457 110.6013043  42.7045418
  91.6551856 112.3887566  48.3884698  92.2070164 112.5519187  49.1533783
  91.9958049 112.9792004  47.7164723  96.5062730 107.2148823  54.2433352
  97.0502634 107.8278782  53.7488307  95.9249575 107.7728402  54.7600365
  94.7920243 110.3369541  45.3748380  94.6671382 109.5359281  44.8659326
  95.4499334 110.8315735  44.8862350  96.8555151 108.1378561  47.0027930
  95.9085487 108.0183913  46.9306257  97.2037924 107.2501060  47.0854192
  93.8601585 107.9331278  43.2032282  93.7126547 107.0047985  43.3839852
  94.6855078 107.9551368  42.7189358  97.4635706 108.7559836  44.2897155
  98.3882254 108.5502698  44.1521606  97.2951010 108.5076238  45.1986497
  97.2531023 109.2745504  39.6459247  97.4267900 108.7091926  38.8933099
  97.7459914 110.0746399  39.4638737 103.1070414 102.0381927  41.2649546
 103.5501560 101.2889252  40.8668670 102.2296924 102.0292063  40.8823278
  98.2406195 108.5912268  36.7456145  98.9357100 109.2118961  36.9643459
  98.5829345 107.7407620  37.0208523 100.1397618 106.0411974  38.2743476
 100.6648942 106.3799247  37.5492796 100.0519971 105.1058989  38.0906610
  91.8017667 109.9546047  50.4033352  92.1104793 109.7095194  51.2756052
  92.5993149 110.1592686  49.9152222  91.8238279 112.1083957  42.6338729
  91.3843269 111.6160336  43.3271586  92.5746396 111.5656925  42.3930804
  84.3030618 108.2995498  42.6363357  85.1288638 107.9999270  42.2562000
  83.9524670 107.5303120  43.0853146  89.2712151 107.6521966  44.7061030
  88.6492160 106.9892671  44.4063258  89.9417018 107.6783098  44.0234678
  99.8291524 106.6744877  53.5794674  99.0387068 106.6569016  53.0399173
  99.5924879 107.2133171  54.3343710  99.9489399 103.5237344  50.8927402
  99.9987404 103.3587351  51.8342925  99.8403323 102.6564603  50.5025283
  88.8325658 106.2025890  38.1819491  88.9813778 106.8861354  37.5286164
  89.6392102 106.1830980  38.6968947 101.4507596 105.9434285  51.1369424
 101.1592405 106.3064266  51.9732885 100.8379727 105.2301294  50.9582756
 102.6503279 103.5087165  43.6571994 103.4850170 103.9476969  43.8209554
 102.7862407 103.0325818  42.8380240  92.3321064 108.6974020  35.6531238
  91.7595031 109.3164207  35.2001710  92.9053857 109.2473382  36.1871160
  95.5518323 108.9811170  36.7839821  96.4848997 108.9156732  36.9872696
  95.4641536 109.8167437  36.3254353  98.1806340 108.2977040  33.7443768
  98.1019972 107.9636904  34.6379526  99.0016007 108.7898808  33.7435241
  92.7167862 100.0334833  32.9947291  93.6626967  99.9041041  33.0635709
  92.3382107  99.2949495  33.4716719  90.9010779  97.9584809  32.9302176
  89.9942235  97.6617922  33.0064890  91.1786760  97.6614627  32.0636462
 102.3954173  96.5874501  44.0434006 102.9898664  96.3470237  43.3327315
 102.4680757  95.8681632  44.6707543  84.6151329 110.4308112  44.3577171
  84.4805797 109.6708513  43.7915169  84.1983391 111.1549012  43.8905960
  95.7510292 105.6145036  33.3653747  96.4546142 105.8195038  33.9811402
  95.0272941 106.1821798  33.6302830  96.5808102 101.3654897  39.4856017
  96.5243304 101.8223449  38.6463649  97.1336445 100.6045582  39.3078860
 100.3912908  97.1544629  40.3106136 100.1349842  96.7541265  41.1414344
  99.7665776  97.8688423  40.1856275 104.7025246  99.8940702  42.8177428
 104.1424804  99.9633892  43.5908990 104.0968749  99.7181687  42.0976924
  87.7720455 111.3277429  44.5695614  87.6552839 112.2722862  44.4674304
  86.9512901 111.0250991  44.9581413  97.6596989 106.0527565  35.4152207
  98.4942593 105.6208764  35.2329681  97.4981332 105.8809579  36.3429101
  97.3142881 102.5559678  36.7808546  97.2591685 102.3903950  35.8396990
  96.6888937 103.2635711  36.9370736  88.7974969 111.9805691  47.7851542
  89.7002216 112.0129301  48.1018037  88.5712339 111.0506142  47.7997878
  90.5528571 110.7336678  44.4461621  89.6024202 110.7338539  44.3325993
  90.8561057 109.9869412  43.9297656 106.2881264 116.5697216  45.5107383
 106.9259674 116.4503964  44.8070723 106.1702107 117.5178060  45.5695336
 103.0970971 116.5224644  45.4468908 102.7589482 116.4065709  44.5589443
 103.9660739 116.1215809  45.4269914  98.9557786 118.3760121  41.4365799
  98.3922651 118.2850058  40.6682087  98.8410181 117.5560025  41.9168292
 103.5790754 117.6759496  51.4055114 103.5679394 117.2812294  50.5335617
 103.7411393 116.9425569  51.9988885  96.5022218 119.8711312  44.2750020
  97.2943510 119.5302137  43.8596319  96.7418868 119.9806287  45.1952173
 104.5357345 122.0431088  36.7480264 103.8845325 122.6285169  36.3614278
 105.3301708 122.5737283  36.8075301  98.4612972 119.1320226  37.1467398
  99.2343848 118.5849213  37.0080274  98.8138371 119.9964475  37.3581860
 100.2998015 120.4596608  50.3534298 100.0087881 121.3642239  50.2380964
 100.9354999 120.5013135  51.0678367 101.2254222 117.8373456  46.9435657
 101.8217794 117.6129479  46.2292620 101.2829193 117.0958202  47.5461105
 100.7979250 115.2912892  34.7785848 101.0504771 114.7694413  34.0169311
  99.8603809 115.1279037  34.8812532 105.8422533 114.2948670  42.5860591
 106.6285622 113.8768093  42.2351008 106.1061237 115.1994762  42.7542240
 106.0132610 119.7321520  37.2849248 105.3778443 119.8056147  37.9970153
 105.6830017 120.3215119  36.6068328 111.2430960 114.2323903  43.4893570
 111.9756132 113.6623120  43.7231399 110.4870316 113.8445504  43.9300076
 100.5175539 117.1940998  36.9810223 100.4011797 116.5185901  37.6491307
 100.6277799 116.7073372  36.1642376 102.8607080 116.6551145  40.6856912
 102.4965287 116.1281766  41.3969834 103.7174196 116.2649614  40.5123398
 108.7656380 107.9445477  47.9488179 108.4339705 108.8140888  47.7249394
 108.1701994 107.6281761  48.6282209 102.5012567 111.6841044  35.6818261
 102.6686969 112.5521281  36.0488732 102.3109736 111.8468326  34.7579550
 105.2587900 120.1458023  47.3484091 104.9588623 121.0483062  47.2399899
 104.9138959 119.8790207  48.2005244  98.7100381 116.5971820  43.3820796
  97.7850878 116.4648034  43.5898487  98.9584795 117.3766039  43.8790738
 108.6585044 112.6640563  45.0281529 107.7501921 112.5955972  44.7340290
 108.6072639 113.1412508  45.8563354 102.4801788 114.1398702  36.6664928
 102.3601413 114.5855753  37.5050408 101.7854376 114.4884020  36.1078466
  96.0709192 116.2405094  44.2164585  96.2001574 116.4939573  45.1303996
  95.3906644 116.8332802  43.8969240 100.2408680 126.9102344  40.3155059
 100.1632709 127.8610169  40.3943540  99.6370323 126.5648216  40.9729985
 102.7325909 114.0830209  52.9716426 101.9559243 114.6424129  52.9619291
 103.3716472 114.5686992  53.4931296 110.5246690 110.8657002  46.8059403
 109.8821070 111.1589535  46.1599197 110.0201619 110.7509922  47.6112599
 108.1786854 114.6120175  37.4945262 109.0904710 114.8447562  37.3192959
 107.6696501 115.1957219  36.9320340 100.9872282 116.8915662  52.5334393
 101.7286966 117.4300706  52.2569216 100.2809267 117.5181951  52.6905945
 106.4627621 119.0344803  51.1306554 106.8710977 118.5927213  50.3861187
 105.7404883 118.4597430  51.3840747 102.8158691 113.9717410  48.5040111
 103.6619887 114.3956823  48.6474760 102.7557329 113.3151034  49.1978674
 106.7856436 119.5945994  44.8858843 106.1565298 119.7591708  44.1834911
 106.3982098 120.0087603  45.6569807 110.6645668 120.5300431  42.2403207
 109.9796706 120.9099333  41.6900240 110.7489517 121.1395758  42.9735155
 105.9658137 111.6321778  50.1621285 105.7219069 112.3863839  49.6255561
 106.2418067 112.0107126  50.9968532 107.9196599 118.1760390  48.8398551
 108.1313495 118.8192150  48.1632932 107.8726348 117.3422707  48.3720481
 105.5222828 110.7878211  45.7435123 104.6607307 111.0859465  46.0351860
 105.5485263 111.0048610  44.8116155 102.3384398 119.3320402  42.1508928
 102.8022743 119.6108105  41.3613551 102.0741196 118.4303846  41.9682019
  99.2308479 118.8791883  45.0888692  99.8009836 119.3079152  44.4506176
  99.8216591 118.5974468  45.7872877 101.2753284 115.4543554  38.9598493
 101.9777327 115.9064598  39.4272420 100.9433912 114.8127373  39.5878387
  99.7233645 114.0455311  53.3349703  99.0932306 114.7271591  53.5685100
  99.6169733 113.9338392  52.3902841  95.0178618 113.7127107  44.2615627
  94.2277672 113.9684635  43.7855738  95.5089865 114.5275445  44.3667668
 109.0342427 121.0532346  47.0120908 109.8559871 120.6512533  46.7303590
 109.0304830 120.9500580  47.9637024  96.9693363 114.0771686  41.2199104
  96.1724527 114.1890380  41.7382599  96.7418955 114.4158338  40.3539994
 102.7999031 120.6016389  49.1681618 102.8643463 121.0636796  50.0039790
 102.0909955 119.9713754  49.2963928  93.3016321 113.9657597  46.6930618
  93.5524359 114.8504607  46.9588194  93.8375869 113.7862199  45.9205710
 117.1248420 117.3971094  43.3605879 116.3712129 116.8278492  43.2049884
 117.2595962 117.3633759  44.3076514 102.5147049 122.2684497  39.0360599
 102.3792723 123.1136032  39.4645447 103.0556861 122.4703774  38.2726533
  99.0014388 108.3476076  55.6974954  98.6081334 107.7942275  56.3722598
  99.8180529 108.6586655  56.0881471  95.9676446 119.7859935  39.6088524
  96.4800967 120.5803185  39.7594088  96.6199159 119.0886225  39.5422125
  97.7771331 122.9025691  41.6911277  97.9537959 123.8243656  41.5032261
  98.5728164 122.5884110  42.1205657 101.9182349 109.7633956  53.2895210
 102.6592063 110.3641109  53.2099673 102.1500272 109.0211593  52.7313253
  97.0623687 114.9490323  51.5673440  96.9477202 114.0475580  51.8680539
  96.2068205 115.1954020  51.2158257 104.1415525 122.8908063  53.1660941
 103.6979379 122.1044442  52.8481845 104.8032739 123.0787214  52.5004832
  98.9002646 124.4203865  47.6921619  99.4510071 124.2920928  46.9198613
  98.0614122 124.7198754  47.3416512 106.2396763 123.1710863  51.1942342
 106.2215238 123.9919744  50.7022611 107.1616683 123.0464938  51.4192483
 102.6969817 120.6854993  52.0365850 103.2298154 119.9243281  51.8065158
 102.1683898 120.3928644  52.7790005 105.8639512 105.7915058  47.5659492
 105.5203782 106.6816700  47.4898603 106.2318475 105.6016716  46.7029077
  93.9325363 118.1148589  40.3848094  94.7700585 118.5245597  40.1681802
  94.1103630 117.1748031  40.3548288 105.8289795 115.7823670  36.0731927
 105.3136418 116.5528274  36.3120315 105.5567103 115.1088806  36.6964989
 103.4136906 110.6273370  41.1317166 102.5578502 110.2380221  40.9522804
 103.8263858 110.7065331  40.2716951 104.9436053 108.1619714  45.5308725
 104.4400848 108.1249849  44.7176531 105.2366659 109.0712456  45.5905382
 101.1878938 108.2458443  44.5374907 102.0531935 108.0501252  44.1780797
 101.2556447 108.0168795  45.4644264 110.8024069 118.5356024  38.0085101
 110.0253512 118.1967184  37.5640263 111.4815550 118.5408647  37.3340066
 105.6176098 113.6550762  37.8991708 105.3126234 113.9696911  38.7501852
 106.5706540 113.7332182  37.9419041 104.0622530 119.8140985  39.5484662
 103.5343891 119.0793745  39.2357900 103.5610033 120.5915661  39.3024631
 109.0415376 118.0090005  44.6651709 108.3839050 118.6989267  44.7531837
 109.8455775 118.3986437  45.0085695  98.7941257 110.4760651  41.9091274
  99.3685009 110.2535833  41.1764467  99.3812240 110.5449346  42.6619875
 107.8520835 116.3634378  42.7155650 108.3652716 116.9964370  43.2177360
 108.5022059 115.7635574  42.3499011  99.1210845 112.5065112  35.9287159
  98.2848157 112.8439799  36.2496434  98.9815614 112.3714092  34.9914296
 101.0963925 107.3501900  40.6366343 100.4428338 107.0350917  40.0122958
 101.0544399 106.7277641  41.3626166 102.2075130 117.6321195  32.5519635
 101.3002192 117.4010449  32.7510784 102.7046162 116.8358815  32.7393617
 105.1143209 126.3418702  35.4716322 104.4404908 126.6450399  36.0801279
 105.5009031 127.1447783  35.1221779 104.3301666 113.8383834  44.9613991
 103.4124227 114.0598781  44.8035679 104.7461809 113.9130144  44.1025698
 105.1136713 115.2375249  40.0916671 105.8608532 115.7496647  39.7823793
 105.3828303 114.9159302  40.9521065 103.3863363 117.7333790  37.0743626
 102.4774583 117.4492823  37.1716095 103.4158447 118.1532869  36.2146932
 108.6182631 121.3440380  40.8434793 108.1644958 120.5031290  40.8999984
 107.9876598 121.9801778  41.1809573 107.5615550 112.2732366  42.0735461
 106.8238307 111.7609752  42.4045703 107.8142324 111.8332747  41.2618737
 107.0615570 123.1816876  41.7784611 107.3538545 123.7421933  41.0596977
 107.5714191 123.4745437  42.5337770 107.6627178 105.0508618  42.6677230
 107.9686055 104.1905981  42.3803145 108.3879783 105.6426238  42.4676224
  93.9551534 115.4539304  41.0558828  93.7575934 114.8608665  40.3309894
  93.3998198 115.1491514  41.7734767 101.9348258 115.3462411  43.1753421
 101.9896867 114.3936247  43.0995898 101.1239460 115.5021850  43.6594719
 103.0839451 119.2742534  34.4131704 102.6458881 118.5578393  33.9537341
 103.8249892 119.5018649  33.8516796  99.8740617 113.9639470  40.9343800
  99.0608483 114.2633641  41.3408992 100.3699612 113.5695159  41.6518282
 102.0249195 123.9597227  42.8678064 101.9825374 124.1858074  41.9386596
 102.9411894 123.7260602  43.0163866 105.4714829 114.4281295  49.7658694
 105.8264217 114.6552768  50.6253159 106.1186960 114.7599672  49.1435949
 111.2012566 117.5499731  40.4708023 111.0630465 117.7401327  39.5429212
 110.8448785 118.3119114  40.9276074  99.3654692 111.5357826  46.5505035
 100.0054072 111.3946585  45.8527998  98.5332223 111.2492339  46.1743637
 111.2281946 119.6176258  45.4819294 111.6618452 119.5251547  46.3302348
 111.9413526 119.5933758  44.8439310 100.1414996 120.8360256  42.6640027
 100.9355595 120.3410577  42.4622602  99.4306688 120.3078120  42.3007733
 104.9609841 123.2178352  47.0152395 105.0146863 123.7869288  47.7830111
 104.0924622 123.3880237  46.6506432  96.4497760 114.9803338  38.7399780
  95.5195348 114.9187794  38.9569742  96.5455232 114.4579291  37.9436421
  96.3683309 111.5058151  41.3278022  96.6290126 112.4203484  41.2187182
  97.1900481 111.0382594  41.4774634  97.8408234 112.9195908  48.4976846
  98.5131287 112.7113270  47.8489495  97.0138020 112.7217994  48.0582078
 112.0897495 119.6599959  48.0152180 112.2833385 120.5645769  48.2611455
 111.9898113 119.2007378  48.8490765 103.7433806 109.5457849  50.5142507
 103.0961721 110.2447799  50.4206983 104.5134821 109.9793993  50.8818755
 107.1512604 119.8106701  53.5893060 106.9998110 119.5817253  52.6723144
 107.1417283 120.7677303  53.6024405 103.9197940 117.3838614  48.5739327
 104.8490000 117.5349774  48.4008294 103.4988970 117.4722635  47.7187973
 102.7186272 121.4089278  46.3437864 102.5797358 121.0408063  47.2163802
 101.9300868 121.9236918  46.1721822 103.3134424 126.5098375  37.6863401
 103.4886180 126.0386418  38.5009024 102.6267212 127.1364141  37.9144662
 104.2691487 120.7870881  43.7326702 103.9341320 120.7471651  44.6284352
 103.7695433 120.1215597  43.2597112  98.2435731 116.1938511  49.2579283
  98.1055529 115.4618750  49.8590822  99.1540655 116.1047411  48.9763471
 107.2050679 118.1326915  34.0063762 106.5879850 117.4073744  33.9096814
 106.7367167 118.8936276  33.6630836 100.8718032 115.9058470  48.7462963
 101.5817650 115.2651663  48.7049581 100.8287340 116.1571365  49.6689144
 108.8604811 122.8425824  51.6669542 108.8017357 122.1585044  51.0000125
 109.2624329 123.5844814  51.2150168  99.5846966 112.8923688  50.5658602
  99.0484323 112.4414427  51.2180199  98.9963674 113.0269597  49.8229067
  97.8795509 129.6587738  44.4603261  98.1192108 130.2906262  45.1382280
  97.0364706 129.3075778  44.7468620  98.9949225 112.3512340  33.1285066
  98.1178691 112.2301141  32.7647313  99.4706978 111.5598418  32.8763955
 108.8622218 120.8065408  49.8983522 107.9748997 120.4691330  50.0209921
 109.4320769 120.0748439  50.1352287  90.5151365 117.1389499  43.2226573
  91.2022405 116.8251230  42.6347588  90.3599494 118.0430864  42.9493825
  95.3186087 112.0279696  47.6511597  95.2344276 111.4205366  46.9162007
  94.4968793 112.5188714  47.6521093 102.3923371 125.4666860  46.8644765
 102.3193543 126.2721832  47.3764070 101.9500764 125.6658826  46.0392786
 102.1813151 124.7038630  40.3747587 101.3980673 125.2460310  40.4685811
 102.8805896 125.2212610  40.7741828 105.4909801 110.5133260  43.0181792
 105.9878500 109.7603222  42.6982862 104.7196782 110.5497576  42.4525001
 113.3439558 116.2173625  44.6600083 113.3329435 117.0998341  44.2894017
 112.4756938 115.8645176  44.4654620 104.8522055 125.3653694  49.0202924
 105.5650027 126.0001159  48.9478825 104.3612083 125.4617560  48.2042925
 106.5739582 119.2704947  40.5920215 105.6395860 119.3906409  40.4224920
 106.7516250 118.3677414  40.3280225 102.0744770 112.6550643  42.7453477
 101.7042557 112.1021683  43.4334382 102.5703862 112.0508776  42.1928477
 109.9612133 115.1122266  41.1270249 110.4272585 115.9450258  41.0530552
 110.4119633 114.6467248  41.8315508  99.9033968 123.1148138  49.8408494
 100.6043428 123.7484621  49.9937889  99.4329083 123.4562869  49.0804134
 108.0288364 121.4566087  38.1256401 108.3048208 121.3422682  39.0350276
 107.1592863 121.0583572  38.0868575 107.9328796 107.4802853  45.1661151
 107.0191876 107.7107080  45.3343358 108.3621897 107.5641297  46.0175183
 107.7035254 115.6692745  47.6661045 107.0506704 115.9168652  47.0113498
 108.0815634 114.8556883  47.3323522 104.6642428 125.7052438  41.7689215
 104.8464823 124.8874094  42.2316967 105.4875414 125.9220130  41.3314105
 104.9984594 124.6320623  39.0304264 105.5272360 124.1213078  38.4174426
 105.2612813 124.3163154  39.8949797 103.7522827 116.4112556  54.1527082
 103.0763464 116.3106685  54.8229457 104.5750461 116.2551770  54.6163079
  95.5001686 122.6484493  46.7739597  96.0855123 121.9028181  46.9067501
  95.3026525 122.9588449  47.6576261  98.3540342 125.6835740  41.7902040
  97.6850717 126.1681868  41.3066080  98.2153211 125.9304960  42.7045418
  90.0919341 115.2190093  45.4944040  90.1303441 114.6853684  46.2881158
  89.5859634 114.6925298  44.8755017 102.4945610 127.7179484  48.3884698
 103.0463918 127.8811105  49.1533783 102.8351804 128.3083921  47.7164723
  97.4710103 110.0654633  48.9906583  97.5351430 110.9269464  48.5783980
  97.4077224 109.4528635  48.2578941  96.9462376 112.1377766  52.6379617
  97.5734415 111.7554843  53.2517141  96.0890295 111.9191968  53.0035309
 107.3456484 122.5440741  54.2433352 107.8896388 123.1570699  53.7488307
 106.7643329 123.1020319  54.7600365  93.7227919 113.9454195  38.5697972
  94.0181360 113.0364873  38.5165025  92.8215954 113.9241934  38.2478974
 105.6313997 125.6661459  45.3748380 105.5065137 124.8651199  44.8659326
 106.2893089 126.1607652  44.8862350  97.2522166 112.0210192  44.5525520
  96.5308751 112.6346159  44.4132994  98.0415421 112.5567956  44.4742166
 107.6948906 123.4670479  47.0027930 106.7479241 123.3475830  46.9306257
 108.0431679 122.5792977  47.0854192 100.0548479 109.3564618  50.8266172
 100.5782881 109.6026915  51.5892481  99.8360812 110.1884653  50.4069309
  95.4515760 111.6268293  38.6937297  95.1228466 110.7465672  38.5112403
  95.8055131 111.5715961  39.5813686 104.6995339 123.2623195  43.2032282
 104.5520302 122.3339903  43.3839852 105.5248833 123.2843286  42.7189358
  98.5657583 111.9141262  39.0612775  98.9053656 112.4427184  38.3391383
  99.0129704 112.2521669  39.8371341 108.3029461 124.0851754  44.2897155
 109.2276008 123.8794615  44.1521606 108.1344764 123.8368155  45.1986497
 101.2601024 110.2978313  48.5115843 100.9197845 109.4986126  48.9136522
 100.5540030 110.5980024  47.9392676 101.9117496 107.3827626  46.9643166
 102.7343565 106.9088104  46.8422056 102.1555560 108.1618109  47.4641852
 100.5525731 110.4115884  37.2606067 101.2734093 110.7897137  36.7569784
  99.9291035 111.1304761  37.3641045 104.6956853 111.1161033  38.1964400
 104.9120468 111.9985671  37.8953228 104.2150921 110.7247246  37.4670042
  99.4356075 114.0746746  44.7735144  99.2900656 114.3887049  45.6659426
  98.9581278 114.6931647  44.2206043 101.2952458 111.0649294  44.8216034
 101.2814026 110.1690388  44.4848332 102.0124886 111.0719958  45.4554320
 103.1478588 111.4986634  46.8669161 102.8896366 112.4203705  46.8653492
 102.6163629 111.1017069  47.5569625 108.0924777 124.6037422  39.6459247
 108.2661655 124.0383844  38.8933099 108.5853668 125.4038316  39.4638737
  93.9101737 116.6152091  47.7122805  93.3655205 117.3911899  47.8443080
  94.7881087 116.9622895  47.5541927 100.6989354 109.9463675  40.0903604
 100.8205265 109.0180321  40.2894491 100.4091396 109.9602360  39.1781919
 103.5680544 107.6318585  43.2270324 103.5902241 107.6957918  42.2722303
 103.9848603 106.7923094  43.4210830 113.9464168 117.3673844  41.2649546
 114.3895314 116.6181170  40.8668670 113.0690679 117.3583981  40.8823278
 109.0799950 123.9204186  36.7456145 109.7750854 124.5410879  36.9643459
 109.4223100 123.0699537  37.0208523  94.6967759 115.7421987  50.6052962
  93.9549495 115.8904622  51.1917593  94.3760503 116.0030253  49.7419712
 110.9791373 121.3703891  38.2743476 111.5042697 121.7091164  37.5492796
 110.8913725 120.4350907  38.0906610 102.6411421 125.2837965  50.4033352
 102.9498548 125.0387112  51.2756052 103.4386903 125.4884604  49.9152222
 102.6632034 127.4375875  42.6338729 102.2237024 126.9452253  43.3271586
 103.4140150 126.8948842  42.3930804  95.1424372 123.6287416  42.6363357
  95.9682392 123.3291187  42.2562000  94.7918424 122.8595038  43.0853146
 100.1105906 122.9813884  44.7061030  99.4885915 122.3184589  44.4063258
 100.7810773 123.0075016  44.0234678  93.3432978 121.5473742  43.5952290
  92.5064886 121.1195916  43.4136292  93.3156623 121.7406185  44.5323082
 100.1830433 111.4595672  54.2993537 100.2318589 112.3357795  53.9171306
 100.7252947 110.9173065  53.7265180 110.6685279 122.0036795  53.5794674
 109.8780823 121.9860934  53.0399173 110.4318633 122.5425089  54.3343710
 110.7883154 118.8529262  50.8927402 110.8381159 118.6879269  51.8342925
 110.6797077 117.9856521  50.5025283  99.6719413 121.5317807  38.1819491
  99.8207533 122.2153272  37.5286164 100.4785856 121.5122897  38.6968947
 108.0786916 114.8360190  52.2086709 108.9796779 114.6966654  51.9170707
 108.1534891 115.0014644  53.1484886 102.4129722 112.2127044  51.0539895
 101.5433031 112.5060610  50.7822484 102.6489202 112.7967489  51.7747159
 112.2901351 121.2726203  51.1369424 111.9986159 121.6356184  51.9732885
 111.6773482 120.5593211  50.9582756 113.4897033 118.8379083  43.6571994
 114.3243924 119.2768887  43.8209554 113.6256162 118.3617736  42.8380240
 110.5388539 116.3958818  49.6049482 111.0142661 116.5886464  48.7968333
 109.6154104 116.4518003  49.3592865  97.4272046 117.5582985  39.1880560
  97.1818087 116.6545315  39.3860770  97.5967960 117.5600135  38.2460038
 105.1168755 108.4306661  48.5705316 105.6350699 109.1667688  48.2451804
 104.7623888 108.7370655  49.4052075  96.6967693 113.2911342  36.6866721
  96.0036938 113.3655697  36.0306757  96.4519445 112.5271686  37.2088238
 105.3681350 104.8506944  44.0906212 105.6483103 104.1830133  44.7166639
 106.1531957 105.0436039  43.5780876 103.1714818 124.0265938  35.6531238
 102.5988785 124.6456125  35.2001710 103.7447612 124.5765299  36.1871160
 109.2390208 113.2724578  47.8377787 110.1907631 113.3722675  47.8590011
 109.0693658 112.4802846  48.3475872 107.2604587 110.3580161  48.0237188
 106.6654520 110.6385174  47.3283677 106.9754284 110.8474062  48.7953929
 106.3912078 124.3103088  36.7839821 107.3242751 124.2448649  36.9872696
 106.3035291 125.1459355  36.3254353 109.0200095 123.6268958  33.7443768
 108.9413726 123.2928822  34.6379526 109.8409761 124.1190726  33.7435241
 111.7178286 116.4930697  46.9520087 111.6854606 115.5546698  47.1379771
 112.3278909 116.5714734  46.2185912 103.5561617 115.3626750  32.9947291
 104.5020721 115.2332959  33.0635709 103.1775862 114.6241412  33.4716719
 111.8672774 113.2841741  46.9978370 111.3511823 112.5000197  46.8108299
 112.7512723 112.9560457  47.1624890 109.5283501 107.0282756  42.9574183
 109.3308322 106.7197845  43.8417515 110.1383207 107.7544395  43.0872113
 117.5354836 117.5546704  46.0926124 118.2658224 117.2931992  46.6533827
 116.9261781 116.8175426  46.1328192 115.6170133 115.6954567  46.6900575
 114.8903296 115.5610532  46.0817066 115.2017420 116.0031395  47.4957293
 103.4400309 119.4144497  54.4547948 104.3603319 119.5923096  54.6487994
 103.4049892 118.4700542  54.3027647 101.7404534 113.2876727  32.9302176
 100.8335989 112.9909839  33.0064890 102.0180515 112.9906545  32.0636462
  92.6582474 114.6083090  43.3801223  92.3385258 113.7548398  43.0875597
  92.1115902 114.8231668  44.1359190  96.4362382 117.3245531  47.0970729
  96.6548391 118.2562639  47.1158763  96.8488155 116.9653506  47.8825533
 103.3566599 107.8313616  39.0846417 102.5467328 107.4860701  39.4601664
 104.0451016 107.5221160  39.6734029 105.2857148 106.9091663  40.7070714
 105.8388186 107.3287117  41.3660737 105.5227234 105.9827411  40.7493670
 101.3090247 112.8978737  56.4873478 101.2086974 113.8473094  56.4185569
 101.0911789 112.5696976  55.6149548 100.5103318 110.1463662  33.0714155
 101.3722482 110.4718560  33.3309973 100.6953663 109.3595158  32.5587221
  92.5270734 118.2286002  45.3494344  91.8334206 117.8139954  44.8364299
  93.2743725 118.2706538  44.7527763 108.6635955 109.0192188  40.2149378
 108.0834624 109.6776992  39.8327431 108.3971888 108.1969533  39.8036796
 107.1139521 108.4197246  42.4170699 107.6139300 108.5313781  41.6085018
 107.7575129 108.1158299  43.0571507 101.1721517 116.3275876  55.3038540
 100.6888599 117.1276236  55.5102429 101.2582456 116.3383821  54.3505984
  94.4407477 118.1604255  43.2260359  94.4178165 118.2591943  42.2742242
  94.7508113 119.0069406  43.5477525  97.0994855 120.2180410  47.3406973
  98.0538108 120.1864353  47.2736905  96.9007378 119.7571034  48.1557199
  97.6894237 118.7881527  49.9077771  98.5087126 119.2825605  49.9312608
  97.9631044 117.8713495  49.8795339 107.4460833 111.1792279  39.2705727
 106.5586688 111.4641929  39.0525921 107.8614822 111.0186042  38.4233004
 110.7975369 111.2038800  42.9860066 111.5735759 111.6935252  43.2584683
 110.0723503 111.6296854  43.4431935 113.2347928 111.9166419  44.0434006
 113.8292418 111.6762155  43.3327315 113.3074511 111.1973550  44.6707543
  95.4545083 125.7600030  44.3577171  95.3199551 125.0000431  43.7915169
  95.0377146 126.4840930  43.8905960 106.5904046 120.9436954  33.3653747
 107.2939896 121.1486956  33.9811402 105.8666695 121.5113715  33.6302830
 107.4201857 116.6946815  39.4856017 107.3637058 117.1515366  38.6463649
 107.9730199 115.9337499  39.3078860 111.2306663 112.4836547  40.3106136
 110.9743597 112.0833182  41.1414344 110.6059531 113.1980341  40.1856275
 115.5419000 115.2232620  42.8177428 114.9818558 115.2925809  43.5908990
 114.9362504 115.0473605  42.0976924  98.6114209 126.6569347  44.5695614
  98.4946593 127.6014779  44.4674304  97.7906655 126.3542909  44.9581413
 108.4990744 121.3819483  35.4152207 109.3336348 120.9500681  35.2329681
 108.3375087 121.2101496  36.3429101 108.1536636 117.8851596  36.7808546
 108.0985440 117.7195867  35.8396990 107.5282691 118.5927629  36.9370736
  92.9429151 113.1219660  50.6069968  93.5888015 112.6118614  51.0957193
  92.7346302 113.8588342  51.1813393 105.4682543 120.1900508  56.1062109
 106.3373703 120.3641160  55.7448744 104.9889295 121.0094925  55.9837838
 101.4632761 107.3859705  36.3593864 101.4511431 108.3301545  36.5162135
 102.3556183 107.2029850  36.0653326  99.6368723 127.3097609  47.7851542
 100.5395970 127.3421219  48.1018037  99.4106093 126.3798060  47.7997878
 101.3922325 126.0628595  44.4461621 100.4417956 126.0630457  44.3325993
 101.6954811 125.3161330  43.9297656 105.2784881 103.9802482  40.6139801
 104.5117277 103.4260968  40.7596484 105.6895586 104.0524350  41.4753953
  97.2826642 110.2687277  54.7044982  98.1458103 109.9124082  54.9148307
  96.7092053 109.9301172  55.3920387 117.1275019 131.8989134  45.5107383
 117.7653429 131.7795881  44.8070723 117.0095862 132.8469978  45.5695336
 113.9364725 131.8516562  45.4468908 113.5983237 131.7357627  44.5589443
 114.8054493 131.4507727  45.4269914 109.7951541 133.7052038  41.4365799
 109.2316406 133.6141975  40.6682087 109.6803936 132.8851943  41.9168292
 114.4184508 133.0051414  51.4055114 114.4073149 132.6104212  50.5335617
 114.5805148 132.2717486  51.9988885 107.3415973 135.2003230  44.2750020
 108.1337265 134.8594055  43.8596319 107.5812623 135.3098205  45.1952173
 111.1391769 135.7888525  50.3534298 110.8481635 136.6934156  50.2380964
 111.7748754 135.8305053  51.0678367 112.0647976 133.1665374  46.9435657
 112.6611548 132.9421396  46.2292620 112.1222948 132.4250119  47.5461105
 116.6816287 129.6240588  42.5860591 117.4679377 129.2060011  42.2351008
 116.9454992 130.5286680  42.7542240 122.0824714 129.5615821  43.4893570
 122.8149886 128.9915038  43.7231399 121.3264070 129.1737421  43.9300076
 113.7000834 131.9843062  40.6856912 113.3359041 131.4573683  41.3969834
 114.5567950 131.5941531  40.5123398 119.6050135 123.2737395  47.9488179
 119.2733460 124.1432806  47.7249394 119.0095748 122.9573679  48.6282209
 113.3406321 127.0132962  35.6818261 113.5080723 127.8813198  36.0488732
 113.1503490 127.1760244  34.7579550 116.0981654 135.4749941  47.3484091
 115.7982377 136.3774980  47.2399899 115.7532714 135.2082124  48.2005244
 109.5494136 131.9263738  43.3820796 108.6244632 131.7939952  43.5898487
 109.7978549 132.7057957  43.8790738 119.4978798 127.9932481  45.0281529
 118.5895675 127.9247890  44.7340290 119.4466394 128.4704426  45.8563354
 113.3195542 129.4690620  36.6664928 113.1995167 129.9147670  37.5050408
 112.6248130 129.8175937  36.1078466 106.9102947 131.5697011  44.2164585
 107.0395328 131.8231490  45.1303996 106.2300398 132.1624719  43.8969240
 113.5719664 129.4122127  52.9716426 112.7952998 129.9716047  52.9619291
 114.2110227 129.8978910  53.4931296 121.3640445 126.1948920  46.8059403
 120.7214825 126.4881453  46.1599197 120.8595373 126.0801840  47.6112599
 111.8266036 132.2207580  52.5334393 112.5680721 132.7592624  52.2569216
 111.1203022 132.8473869  52.6905945 117.3021376 134.3636721  51.1306554
 117.7104732 133.9219131  50.3861187 116.5798637 133.7889348  51.3840747
 113.6552446 129.3009327  48.5040111 114.5013641 129.7248741  48.6474760
 113.5951084 128.6442952  49.1978674 117.6250190 134.9237911  44.8858843
 116.9959053 135.0883625  44.1834911 117.2375853 135.3379521  45.6569807
 116.8051891 126.9613696  50.1621285 116.5612823 127.7155756  49.6255561
 117.0811822 127.3399043  50.9968532 118.7590354 133.5052308  48.8398551
 118.9707249 134.1484068  48.1632932 118.7120102 132.6714625  48.3720481
 116.3616583 126.1170129  45.7435123 115.5001062 126.4151382  46.0351860
 116.3879018 126.3340528  44.8116155 113.1778152 134.6612319  42.1508928
 113.6416498 134.9400022  41.3613551 112.9134950 133.7595764  41.9682019
 110.0702233 134.2083801  45.0888692 110.6403590 134.6371069  44.4506176
 110.6610345 133.9266386  45.7872877 112.1147038 130.7835472  38.9598493
 112.8171082 131.2356515  39.4272420 111.7827667 130.1419291  39.5878387
 110.5627400 129.3747228  53.3349703 109.9326061 130.0563509  53.5685100
 110.4563488 129.2630310  52.3902841 105.8572372 129.0419024  44.2615627
 105.0671426 129.2976553  43.7855738 106.3483620 129.8567362  44.3667668
 107.8087118 129.4063604  41.2199104 107.0118281 129.5182298  41.7382599
 107.5812710 129.7450256  40.3539994 113.6392785 135.9308307  49.1681618
 113.7037218 136.3928714  50.0039790 112.9303709 135.3005672  49.2963928
 104.1410075 129.2949515  46.6930618 104.3918114 130.1796525  46.9588194
 104.6769624 129.1154116  45.9205710 109.8408143 123.6767994  55.6974954
 109.4475088 123.1234193  56.3722598 110.6574283 123.9878573  56.0881471
 106.8070200 135.1151852  39.6088524 107.3194721 135.9095103  39.7594088
 107.4592913 134.4178143  39.5422125 108.6165085 138.2317609  41.6911277
 108.7931713 139.1535573  41.5032261 109.4121919 137.9176028  42.1205657
 112.7576104 125.0925873  53.2895210 113.4985817 125.6933026  53.2099673
 112.9894026 124.3503511  52.7313253 107.9017442 130.2782240  51.5673440
 107.7870957 129.3767498  51.8680539 107.0461959 130.5245937  51.2158257
 114.9809279 138.2199981  53.1660941 114.5373134 137.4336359  52.8481845
 115.6426493 138.4079131  52.5004832 109.7396401 139.7495782  47.6921619
 110.2903826 139.6212846  46.9198613 108.9007876 140.0490671  47.3416512
 113.5363572 136.0146910  52.0365850 114.0691908 135.2535198  51.8065158
 113.0077653 135.7220562  52.7790005 116.7033267 121.1206976  47.5659492
 116.3597536 122.0108618  47.4898603 117.0712229 120.9308634  46.7029077
 104.7719117 133.4440507  40.3848094 105.6094339 133.8537515  40.1681802
 104.9497385 132.5039949  40.3548288 114.2530660 125.9565288  41.1317166
 113.3972257 125.5672138  40.9522804 114.6657612 126.0357249  40.2716951
 115.7829807 123.4911631  45.5308725 115.2794603 123.4541766  44.7176531
 116.0760414 124.4004374  45.5905382 112.0272693 123.5750361  44.5374907
 112.8925690 123.3793170  44.1780797 112.0950202 123.3460713  45.4644264
 116.4569852 128.9842679  37.8991708 116.1519988 129.2988829  38.7501852
 117.4100295 129.0624099  37.9419041 119.8809130 133.3381923  44.6651709
 119.2232805 134.0281185  44.7531837 120.6849530 133.7278355  45.0085695
 109.6335012 125.8052569  41.9091274 110.2078764 125.5827750  41.1764467
 110.2205994 125.8741263  42.6619875 118.6914589 131.6926296  42.7155650
 119.2046471 132.3256288  43.2177360 119.3415813 131.0927491  42.3499011
 109.9604599 127.8357030  35.9287159 109.1241911 128.1731717  36.2496434
 109.8209369 127.7006010  34.9914296 111.9357680 122.6793818  40.6366343
 111.2822092 122.3642835  40.0122958 111.8938154 122.0569558  41.3626166
 115.1695420 129.1675751  44.9613991 114.2517981 129.3890698  44.8035679
 115.5855564 129.2422062  44.1025698 115.9530468 130.5667167  40.0916671
 116.7002287 131.0788564  39.7823793 116.2222057 130.2451220  40.9521065
 118.4009305 127.6024283  42.0735461 117.6632062 127.0901670  42.4045703
 118.6536078 127.1624665  41.2618737 118.5020932 120.3800535  42.6677230
 118.8079809 119.5197899  42.3803145 119.2273537 120.9718156  42.4676224
 104.7945288 130.7831222  41.0558828 104.5969688 130.1900583  40.3309894
 104.2391952 130.4783432  41.7734767 112.7742012 130.6754328  43.1753421
 112.8290622 129.7228165  43.0995898 111.9633214 130.8313768  43.6594719
 110.7134372 129.2931388  40.9343800 109.9002237 129.5925559  41.3408992
 111.2093366 128.8987077  41.6518282 112.8642950 139.2889145  42.8678064
 112.8219129 139.5149991  41.9386596 113.7805649 139.0552520  43.0163866
 116.3108584 129.7573213  49.7658694 116.6657971 129.9844686  50.6253159
 116.9580715 130.0891589  49.1435949 110.2048447 126.8649744  46.5505035
 110.8447826 126.7238503  45.8527998 109.3725977 126.5784257  46.1743637
 110.9808751 136.1652174  42.6640027 111.7749349 135.6702494  42.4622602
 110.2700443 135.6370037  42.3007733 107.2891514 130.3095256  38.7399780
 106.3589102 130.2479711  38.9569742 107.3848986 129.7871209  37.9436421
 107.2077063 126.8350069  41.3278022 107.4683880 127.7495402  41.2187182
 108.0294235 126.3674511  41.4774634 108.6801988 128.2487826  48.4976846
 109.3525042 128.0405188  47.8489495 107.8531775 128.0509912  48.0582078
 114.5827560 124.8749767  50.5142507 113.9355475 125.5739716  50.4206983
 115.3528576 125.3085911  50.8818755 117.9906358 135.1398619  53.5893060
 117.8391865 134.9109171  52.6723144 117.9811038 136.0969220  53.6024405
 114.7591695 132.7130532  48.5739327 115.6883755 132.8641691  48.4008294
 114.3382725 132.8014552  47.7187973 113.5580027 136.7381196  46.3437864
 113.4191112 136.3699980  47.2163802 112.7694623 137.2528836  46.1721822
 115.1085242 136.1162799  43.7326702 114.7735074 136.0763569  44.6284352
 114.6089187 135.4507515  43.2597112 109.0829486 131.5230429  49.2579283
 108.9449284 130.7910668  49.8590822 109.9934409 131.4339329  48.9763471
 111.7111786 131.2350388  48.7462963 112.4211405 130.5943580  48.7049581
 111.6681095 131.4863283  49.6689144 110.4240720 128.2215606  50.5658602
 109.8878077 127.7706344  51.2180199 109.8357429 128.3561515  49.8229067
 101.3545119 132.4681417  43.2226573 102.0416159 132.1543147  42.6347588
 101.1993248 133.3722782  42.9493825 106.1579842 127.3571614  47.6511597
 106.0738030 126.7497283  46.9162007 105.3362548 127.8480632  47.6521093
 116.3303555 125.8425177  43.0181792 116.8272255 125.0895140  42.6982862
 115.5590537 125.8789494  42.4525001 124.1833313 131.5465543  44.6600083
 124.1723189 132.4290258  44.2894017 123.3150692 131.1937094  44.4654620
 117.4133336 134.5996864  40.5920215 116.4789615 134.7198327  40.4224920
 117.5910005 133.6969331  40.3280225 112.9138524 127.9842560  42.7453477
 112.5436312 127.4313601  43.4334382 113.4097617 127.3800694  42.1928477
 120.8005887 130.4414184  41.1270249 121.2666340 131.2742175  41.0530552
 121.2513388 129.9759165  41.8315508 110.7427723 138.4440055  49.8408494
 111.4437182 139.0776538  49.9937889 110.2722838 138.7854787  49.0804134
 118.7722550 122.8094771  45.1661151 117.8585630 123.0398998  45.3343358
 119.2015652 122.8933215  46.0175183 118.5429009 130.9984663  47.6661045
 117.8900459 131.2460570  47.0113498 118.9209389 130.1848801  47.3323522
 114.5916582 131.7404474  54.1527082 113.9157219 131.6398603  54.8229457
 115.4144216 131.5843688  54.6163079 106.3395441 137.9776410  46.7739597
 106.9248878 137.2320098  46.9067501 106.1420279 138.2880367  47.6576261
 109.1934096 141.0127658  41.7902040 108.5244471 141.4973785  41.3066080
 109.0546966 141.2596878  42.7045418 100.9313096 130.5482011  45.4944040
 100.9697195 130.0145601  46.2881158 100.4253388 130.0217216  44.8755017
 108.3103858 125.3946551  48.9906583 108.3745184 126.2561382  48.5783980
 108.2470978 124.7820553  48.2578941 107.7856130 127.4669684  52.6379617
 108.4128169 127.0846761  53.2517141 106.9284049 127.2483886  53.0035309
 104.5621673 129.2746113  38.5697972 104.8575114 128.3656791  38.5165025
 103.6609709 129.2533852  38.2478974 108.0915920 127.3502109  44.5525520
 107.3702506 127.9638077  44.4132994 108.8809176 127.8859874  44.4742166
 110.8942234 124.6856536  50.8266172 111.4176635 124.9318832  51.5892481
 110.6754567 125.5176571  50.4069309 106.2909515 126.9560210  38.6937297
 105.9622221 126.0757589  38.5112403 106.6448885 126.9007879  39.5813686
 109.4051338 127.2433180  39.0612775 109.7447410 127.7719101  38.3391383
 109.8523458 127.5813586  39.8371341 112.0994779 125.6270231  48.5115843
 111.7591599 124.8278044  48.9136522 111.3933785 125.9271942  47.9392676
 112.7511251 122.7119543  46.9643166 113.5737320 122.2380021  46.8422056
 112.9949314 123.4910027  47.4641852 111.3919485 125.7407802  37.2606067
 112.1127848 126.1189055  36.7569784 110.7684789 126.4596679  37.3641045
 115.5350608 126.4452951  38.1964400 115.7514222 127.3277589  37.8953228
 115.0544675 126.0539164  37.4670042 110.2749829 129.4038664  44.7735144
 110.1294410 129.7178967  45.6659426 109.7975033 130.0223564  44.2206043
 112.1346212 126.3941212  44.8216034 112.1207781 125.4982305  44.4848332
 112.8518640 126.4011876  45.4554320 113.9872343 126.8278552  46.8669161
 113.7290121 127.7495623  46.8653492 113.4557383 126.4308987  47.5569625
 104.7495491 131.9444008  47.7122805 104.2048960 132.7203816  47.8443080
 105.6274841 132.2914813  47.5541927 111.5383108 125.2755592  40.0903604
 111.6599019 124.3472238  40.2894491 111.2485150 125.2894278  39.1781919
 114.4074298 122.9610503  43.2270324 114.4295995 123.0249836  42.2722303
 114.8242357 122.1215011  43.4210830 105.5361513 131.0713905  50.6052962
 104.7943249 131.2196540  51.1917593 105.2154258 131.3322170  49.7419712
 105.9818127 138.9579333  42.6363357 106.8076147 138.6583105  42.2562000
 105.6312179 138.1886956  43.0853146 110.9499660 138.3105802  44.7061030
 110.3279669 137.6476507  44.4063258 111.6204527 138.3366933  44.0234678
 104.1826732 136.8765660  43.5952290 103.3458640 136.4487834  43.4136292
 104.1550377 137.0698103  44.5323082 111.0224188 126.7887590  54.2993537
 111.0712343 127.6649712  53.9171306 111.5646702 126.2464983  53.7265180
 121.6276908 134.1821179  50.8927402 121.6774913 134.0171187  51.8342925
 121.5190832 133.3148438  50.5025283 118.9180671 130.1652107  52.2086709
 119.8190534 130.0258572  51.9170707 118.9928645 130.3306562  53.1484886
 113.2523476 127.5418962  51.0539895 112.3826785 127.8352528  50.7822484
 113.4882956 128.1259407  51.7747159 121.3782293 131.7250735  49.6049482
 121.8536415 131.9178382  48.7968333 120.4547859 131.7809921  49.3592865
 108.2665800 132.8874903  39.1880560 108.0211842 131.9837233  39.3860770
 108.4361715 132.8892053  38.2460038 115.9562510 123.7598579  48.5705316
 116.4744454 124.4959606  48.2451804 115.6017643 124.0662572  49.4052075
 107.5361448 128.6203260  36.6866721 106.8430693 128.6947615  36.0306757
 107.2913199 127.8563604  37.2088238 116.2075104 120.1798861  44.0906212
 116.4876858 119.5122050  44.7166639 116.9925711 120.3727957  43.5780876
 120.0783962 128.6016495  47.8377787 121.0301385 128.7014593  47.8590011
 119.9087413 127.8094764  48.3475872 118.0998342 125.6872079  48.0237188
 117.5048274 125.9677091  47.3283677 117.8148039 126.1765980  48.7953929
 122.5572040 131.8222615  46.9520087 122.5248360 130.8838616  47.1379771
 123.1672664 131.9006652  46.2185912 122.7066529 128.6133659  46.9978370
 122.1905577 127.8292115  46.8108299 123.5906477 128.2852375  47.1624890
 120.3677256 122.3574674  42.9574183 120.1702077 122.0489762  43.8417515
 120.9776961 123.0836313  43.0872113 114.2794064 134.7436414  54.4547948
 115.1997073 134.9215013  54.6487994 114.2443647 133.7992460  54.3027647
 103.4976229 129.9375008  43.3801223 103.1779013 129.0840316  43.0875597
 102.9509657 130.1523586  44.1359190 107.2756136 132.6537449  47.0970729
 107.4942146 133.5854557  47.1158763 107.6881910 132.2945423  47.8825533
 114.1960354 123.1605534  39.0846417 113.3861082 122.8152619  39.4601664
 114.8844771 122.8513078  39.6734029 116.1250902 122.2383581  40.7070714
 116.6781941 122.6579034  41.3660737 116.3620989 121.3119329  40.7493670
 112.1484001 128.2270655  56.4873478 112.0480728 129.1765012  56.4185569
 111.9305544 127.8988894  55.6149548 111.3497073 125.4755580  33.0714155
 112.2116237 125.8010478  33.3309973 111.5347417 124.6887076  32.5587221
 103.3664489 133.5577919  45.3494344 102.6727960 133.1431872  44.8364299
 104.1137480 133.5998456  44.7527763 119.5029709 124.3484106  40.2149378
 118.9228378 125.0068910  39.8327431 119.2365642 123.5261451  39.8036796
 117.9533276 123.7489164  42.4170699 118.4533054 123.8605698  41.6085018
 118.5968884 123.4450217  43.0571507 112.0115272 131.6567793  55.3038540
 111.5282353 132.4568154  55.5102429 112.0976211 131.6675738  54.3505984
 105.2801231 133.4896173  43.2260359 105.2571919 133.5883860  42.2742242
 105.5901868 134.3361324  43.5477525 107.9388609 135.5472328  47.3406973
 108.8931863 135.5156270  47.2736905 107.7401133 135.0862952  48.1557199
 108.5287991 134.1173444  49.9077771 109.3480880 134.6117523  49.9312608
 108.8024799 133.2005412  49.8795339 118.2854587 126.5084197  39.2705727
 117.3980442 126.7933847  39.0525921 118.7008576 126.3477960  38.4233004
 121.6369123 126.5330718  42.9860066 122.4129514 127.0227170  43.2584683
 120.9117258 126.9588772  43.4431935 124.0741682 127.2458337  44.0434006
 124.6686173 127.0054073  43.3327315 124.1468266 126.5265467  44.6707543
 106.2938838 141.0891948  44.3577171 106.1593306 140.3292349  43.7915169
 105.8770900 141.8132848  43.8905960 122.0700417 127.8128464  40.3106136
 121.8137351 127.4125100  41.1414344 121.4453285 128.5272258  40.1856275
 126.3812755 130.5524538  42.8177428 125.8212313 130.6217727  43.5908990
 125.7756258 130.3765522  42.0976924 109.4507964 141.9861265  44.5695614
 109.3340348 142.9306697  44.4674304 108.6300410 141.6834826  44.9581413
 103.7822905 128.4511578  50.6069968 104.4281769 127.9410532  51.0957193
 103.5740057 129.1880260  51.1813393 116.3076298 135.5192426  56.1062109
 117.1767457 135.6933078  55.7448744 115.8283049 136.3386842  55.9837838
 112.3026516 122.7151623  36.3593864 112.2905186 123.6593463  36.5162135
 113.1949938 122.5321768  36.0653326 116.1178635 119.3094399  40.6139801
 115.3511031 118.7552886  40.7596484 116.5289340 119.3816268  41.4753953
 108.1220396 125.5979195  54.7044982 108.9851858 125.2416000  54.9148307
 107.5485807 125.2593090  55.3920387  38.5428228   2.7070113  38.1300420
  38.5316869   2.3122911  37.2580924  38.7048867   1.9736185  38.7234192
  35.2635489   5.4907224  37.0779604  34.9725355   6.3952855  36.9626271
  35.8992473   5.5323752  37.7923674  37.6963384  -0.8859174  39.6961733
  36.9196718  -0.3265254  39.6864597  38.3353947  -0.4002391  40.2176603
  35.9509756   1.9226279  39.2579700  36.6924440   2.4611323  38.9814523
  35.2446741   2.5492568  39.4151251  41.4265096   4.0655419  37.8551861
  41.8348452   3.6237830  37.1106493  40.7042357   3.4908047  38.1086054
  43.9979902   6.0842962  33.7366215  44.8197345   5.6823150  33.4548896
  43.9942305   5.9811197  34.6882330  39.1052999   7.9218680  39.8906247
  38.6616853   7.1355058  39.5727152  39.7670213   8.1097830  39.2250138
  41.2034237   8.2021480  37.9187649  41.1852713   9.0230361  37.4267918
  42.1254157   8.0775555  38.1437790  37.6607291   5.7165609  38.7611157
  38.1935628   4.9553897  38.5310465  37.1321373   5.4239261  39.5035312
  47.0534970   4.6910575  34.7397486  47.2470860   5.5956386  34.9856761
  46.9535588   4.2317994  35.5736071  42.1150078   4.8417318  40.3138367
  41.9635585   4.6127869  39.3968451  42.1054758   5.7987919  40.3269712
  43.8242285   7.8736440  38.3914849  43.7654831   7.1895660  37.7245432
  44.2261803   8.6155430  37.9395475  43.8259692   5.8376024  36.6228828
  42.9386471   5.5001946  36.7455227  44.3958243   5.1059056  36.8597594
  39.8159529  10.3964311  35.7448230  40.5287501  11.0311775  35.6724132
  39.3249558  10.4928177  34.9288232  34.8671443   8.1458754  36.5653801
  35.5680902   8.7795237  36.7183195  34.3966558   8.4873486  35.8049440
  38.7160302   1.4423173  40.8772389  38.0400939   1.3417302  41.5474764
  39.5387935   1.2862386  41.3408386  37.4583084  12.7490100  35.1130005
  38.0101392  12.9121722  35.8779090  37.7989278  13.3394538  34.4410029
  42.3093959   7.5751358  40.9678659  42.8533863   8.1881316  40.4733614
  41.7280804   8.1330936  41.4845672  42.6586380   8.4981096  33.7273237
  41.7116716   8.3786447  33.6551564  43.0069153   7.6103594  33.8099498
  37.6048896  10.3148582  37.1278659  37.9136022  10.0697728  38.0001358
  38.4024378  10.5195220  36.6397529  45.6322753   7.0347412  40.3039980
  44.8418297   7.0171551  39.7644480  45.3956108   7.5735705  41.0589017
  45.7520628   3.8839878  37.6172709  45.8018633   3.7189885  38.5588232
  45.6434552   3.0167137  37.2270590  43.0424391  -0.1329194  38.9332015
  43.9434253  -0.2722729  38.6416013  43.1172365   0.0325261  39.8730193
  47.2538825   6.3036820  37.8614730  46.9623633   6.6666800  38.6978191
  46.6410956   5.5903828  37.6828062  45.5026013   1.4269434  36.3294788
  45.9780135   1.6197080  35.5213640  44.5791579   1.4828620  36.0838172
  52.4992310   2.5857321  32.8171430  53.2295698   2.3242609  33.3779134
  51.8899255   1.8486043  32.8573498  38.4037783   4.4455113  41.1793255
  39.3240793   4.6233712  41.3733301  38.3687366   3.5011158  41.0272954
  36.2727721  -2.0710647  43.2118785  36.1724448  -1.1216290  43.1430876
  36.0549263  -2.3992408  42.3394855  36.1358991   1.3586492  42.0283846
  35.6526073   2.1586852  42.2347735  36.2219930   1.3694437  41.0751290
  40.4320017   5.2211124  42.8307415  41.3011177   5.3951777  42.4694050
  39.9526769   6.0405541  42.7083145  34.6006198  12.3408225  34.5096849
  35.5033444  12.3731836  34.8263344  34.3743568  11.4108676  34.5243185
  52.0912493  16.9299750  32.2352690  52.7290903  16.8106498  31.5316030
  51.9733336  17.8780594  32.2940642  48.9002199  16.8827178  32.1714215
  48.5620711  16.7668243  31.2834750  49.7691968  16.4818344  32.1515221
  44.7589015  18.7362655  28.1611106  44.1953880  18.6452592  27.3927393
  44.6441410  17.9162559  28.6413598  49.3821982  18.0362030  38.1300420
  49.3710623  17.6414828  37.2580924  49.5442622  17.3028103  38.7234192
  42.3053447  20.2313846  30.9995326  43.0974739  19.8904671  30.5841625
  42.5450097  20.3408822  31.9197479  50.3388574  22.4033623  23.4725571
  49.6876554  22.9887703  23.0859584  51.1332937  22.9339817  23.5320608
  46.1029244  20.8199142  37.0779604  45.8119110  21.7244773  36.9626271
  46.7386228  20.8615670  37.7923674  47.0285450  18.1975991  33.6680964
  47.6249023  17.9732013  32.9537927  47.0860422  17.4560736  34.2706412
  51.6453762  14.6551204  29.3105898  52.4316851  14.2370627  28.9596315
  51.9092466  15.5597296  29.4787546  51.8163839  20.0924055  24.0094555
  51.1809672  20.1658681  24.7215460  51.4861245  20.6817653  23.3313634
  57.0462189  14.5926437  30.2138877  57.7787361  14.0225654  30.4476706
  56.2901544  14.2048038  30.6545382  48.6638308  17.0153679  27.4102219
  48.2996516  16.4884300  28.1215141  49.5205424  16.6252148  27.2368704
  54.5687609   8.3048012  34.6733485  54.2370934   9.1743422  34.4494700
  53.9733222   7.9884296  35.3527516  51.0619129  20.5060558  34.0729398
  50.7619852  21.4085596  33.9645205  50.7170188  20.2392741  34.9250551
  44.5131610  16.9574354  30.1066102  43.5882107  16.8250568  30.3143794
  44.7616023  17.7368574  30.6036045  54.4616272  13.0243098  31.7526835
  53.5533150  12.9558506  31.4585596  54.4103868  13.5015043  32.5808661
  41.8740421  16.6007628  30.9409891  42.0032802  16.8542107  31.8549303
  41.1937872  17.1935336  30.6214546  46.0439908  27.2704878  27.0400366
  45.9663938  28.2212703  27.1188846  45.4401552  26.9250750  27.6975292
  48.5357138  14.4432743  39.6961733  47.7590472  15.0026663  39.6864597
  49.1747701  14.9289526  40.2176603  56.3277919  11.2259536  33.5304709
  55.6852299  11.5192069  32.8844504  55.8232847  11.1112456  34.3357906
  53.9818082  14.9722709  24.2190568  54.8935939  15.2050096  24.0438266
  53.4727730  15.5559753  23.6565647  46.7903511  17.2518197  39.2579700
  47.5318195  17.7903241  38.9814523  46.0840496  17.8784485  39.4151251
  52.2658850  19.3947337  37.8551861  52.6742206  18.9529748  37.1106493
  51.5436112  18.8199965  38.1086054  48.6189920  14.3319944  35.2285418
  49.4651115  14.7559357  35.3720067  48.5588558  13.6753568  35.9223981
  52.5887665  19.9548528  31.6104150  51.9596527  20.1194242  30.9080218
  52.2013327  20.3690137  32.3815114  56.4676897  20.8902966  28.9648514
  55.7827935  21.2701867  28.4145547  56.5520746  21.4998292  29.6980461
  51.7689366  11.9924312  36.8866592  51.5250297  12.7466373  36.3500867
  52.0449296  12.3709660  37.7213839  53.7227828  18.5362925  35.5643857
  53.9344724  19.1794685  34.8878238  53.6757577  17.7025241  35.0965787
  51.3254057  11.1480745  32.4680429  50.4638536  11.4461999  32.7597167
  51.3516492  11.3651144  31.5361462  48.1415627  19.6922936  28.8754235
  48.6053972  19.9710639  28.0858857  47.8772425  18.7906380  28.6927326
  45.0339708  19.2394417  31.8133998  45.6041065  19.6681686  31.1751483
  45.6247820  18.9577002  32.5118184  45.5264874  14.4057845  40.0595010
  44.8963535  15.0874126  40.2930406  45.4200962  14.2940926  39.1148148
  40.8209847  14.0729641  30.9860934  40.0308901  14.3287169  30.5101044
  41.3121094  14.8877979  31.0912974  54.8373656  21.4134880  33.7366215
  55.6591100  21.0115067  33.4548896  54.8336059  21.3103114  34.6882330
  48.6030260  20.9618923  35.8926925  48.6674692  21.4239331  36.7285097
  47.8941184  20.3316288  36.0209235  39.1047550  14.3260131  33.4175924
  39.3555588  15.2107141  33.6833500  39.6407098  14.1464733  32.6451016
  62.9279649  17.7573629  30.0851186  62.1743358  17.1881027  29.9295190
  63.0627191  17.7236293  31.0321821  48.3178277  22.6287031  25.7605905
  48.1823952  23.4738567  26.1890753  48.8588090  22.8306308  24.9971839
  44.8045617   8.7078611  42.4220261  44.4112563   8.1544809  43.0967905
  45.6211757   9.0189189  42.8126778  41.7707675  20.1462469  26.3333830
  42.2832195  20.9405719  26.4839395  42.4230388  19.4488759  26.2667432
  43.5802559  23.2628225  28.4156584  43.7569188  24.1846190  28.2277568
  44.3759393  22.9486644  28.8450963  47.7213578  10.1236490  40.0140517
  48.4623291  10.7243643  39.9344980  47.9531501   9.3814128  39.4558560
  42.8654916  15.3092857  38.2918747  42.7508431  14.4078114  38.5925846
  42.0099434  15.5556554  37.9403563  49.9446754  23.2510597  39.8906247
  49.5010608  22.4646976  39.5727152  50.6063967  23.4389748  39.2250138
  44.7033875  24.7806399  34.4166926  45.2541300  24.6523462  33.6443920
  43.8645351  25.0801288  34.0661819  52.0427992  23.5313397  37.9187649
  52.0246467  24.3522278  37.4267918  52.9647912  23.4067472  38.1437790
  48.5001046  21.0457527  38.7611157  49.0329383  20.2845815  38.5310465
  47.9715127  20.7531179  39.5035312  51.6670741   6.1517593  34.2904799
  51.3235010   7.0419234  34.2143909  52.0349704   5.9619250  33.4274384
  50.7467281   8.5222248  32.2554032  50.2432077   8.4852383  31.4421837
  51.0397888   9.4314991  32.3150689  46.9910167   8.6060978  31.2620214
  47.8563164   8.4103786  30.9026103  47.0587676   8.3771329  32.1889571
  56.6055298  18.8958558  24.7330407  55.8284741  18.5569718  24.2885569
  57.2846779  18.9011182  24.0585372  49.8653759  20.1743519  26.2729969
  49.3375120  19.4396279  25.9603207  49.3641261  20.9518196  26.0269937
  54.8446605  18.3692540  31.3897015  54.1870279  19.0591801  31.4777144
  55.6487004  18.7588972  31.7331002  53.6552063  16.7236912  29.4400957
  54.1683945  17.3566904  29.9422667  54.3053287  16.1238108  29.0744317
  50.9174438  26.7021237  22.1961628  50.2436136  27.0052933  22.8046586
  51.3040260  27.5050317  21.8467085  50.1332894  14.1986368  31.6859298
  49.2155456  14.4201315  31.5280986  50.5493038  14.2732678  30.8271005
  50.9167942  15.5977784  26.8161978  51.6639761  16.1099181  26.5069100
  51.1859532  15.2761836  27.6766371  54.4213860  21.7042914  27.5680100
  53.9676187  20.8633824  27.6245290  53.7907826  22.3404312  27.9054880
  53.3646779  12.6334900  28.7980767  52.6269536  12.1212286  29.1291010
  53.6173553  12.1935281  27.9864044  52.8646799  23.5419411  28.5029918
  53.1569773  24.1024468  27.7842284  53.3745420  23.8347972  29.2583077
  47.7379486  15.7064945  29.8998728  47.7928096  14.7538781  29.8241204
  46.9270688  15.8624384  30.3840026  45.6771846  14.3242005  27.6589106
  44.8639712  14.6236175  28.0654299  46.1730840  13.9297693  28.3763589
  47.8280424  24.3199762  29.5923371  47.7856603  24.5460608  28.6631903
  48.7443123  24.0863136  29.7409172  51.2746058  14.7883829  36.4904000
  51.6295446  15.0155302  37.3498466  51.9218189  15.1202206  35.8681256
  57.0043795  17.9102265  27.1953329  56.8661693  18.1003861  26.2674519
  56.6480014  18.6721648  27.6521380  45.1685921  11.8960360  33.2750341
  45.8085300  11.7549119  32.5773305  44.3363452  11.6094874  32.8988943
  57.0313174  19.9778792  32.2064601  57.4649681  19.8854081  33.0547655
  57.7444755  19.9536293  31.5684617  45.9446225  21.1962791  29.3885334
  46.7386823  20.7013111  29.1867909  45.2337917  20.6680654  29.0253039
  50.7641069  23.5780886  33.7397701  50.8178092  24.1471822  34.5075417
  49.8955851  23.7482771  33.3751739  43.6439463  13.2798442  35.2222153
  44.3162516  13.0715805  34.5734802  42.8169249  13.0820528  34.7827385
  57.8928724  20.0202493  34.7397486  58.0864614  20.9248303  34.9856761
  57.7929342  19.5609912  35.5736071  49.5465035   9.9060383  37.2387814
  48.8992950  10.6050333  37.1452290  50.3166050  10.3396527  37.6064062
  52.9543833  20.1709235  40.3138367  52.8029339  19.9419787  39.3968451
  52.9448512  21.1279837  40.3269712  49.7229169  17.7441148  35.2984633
  50.6521229  17.8952308  35.1253601  49.3020199  17.8325169  34.4433280
  48.5217501  21.7691813  33.0683171  48.3828587  21.4010597  33.9409109
  47.7332097  22.2839452  32.8967129  49.1165653  26.8700909  24.4108707
  49.2917409  26.3988952  25.2254330  48.4298441  27.4966675  24.6389968
  50.0722716  21.1473415  30.4572009  49.7372549  21.1074185  31.3529659
  49.5726662  20.4818131  29.9842419  44.0466960  16.5541045  35.9824590
  43.9086758  15.8221284  36.5836129  44.9571883  16.4649945  35.7008778
  46.6749261  16.2661005  35.4708270  47.3848879  15.6254197  35.4294888
  46.6318569  16.5173900  36.3934450  54.6636039  23.2028358  38.3914849
  54.6048586  22.5187578  37.7245432  55.0655558  23.9447348  37.9395475
  45.3878195  13.2526223  37.2903909  44.8515552  12.8016961  37.9425505
  44.7994903  13.3872131  36.5474373  43.6826738  30.0190272  31.1848568
  43.9223336  30.6508796  31.8627586  42.8395935  29.6678312  31.4713927
  54.6653447  21.1667942  36.6228828  53.7780225  20.8293864  36.7455227
  55.2351998  20.4350973  36.8597594  36.3182594  17.4992034  29.9471880
  37.0053634  17.1853764  29.3592895  36.1630722  18.4033398  29.6739131
  41.1217316  12.3882230  34.3756903  41.0375505  11.7807900  33.6407313
  40.3000022  12.8791249  34.3766400  48.1954600  25.8269394  33.5890072
  48.1224772  26.6324366  34.1009376  47.7531993  26.0261360  32.7638093
  47.9844380  25.0641164  27.0992893  47.2011902  25.6062845  27.1931118
  48.6837125  25.5815144  27.4987134  51.2941030  10.8735794  29.7427099
  51.7909729  10.1205756  29.4228169  50.5228011  10.9100110  29.1770308
  59.1470787  16.5776159  31.3845390  59.1360663  17.4600875  31.0139323
  58.2788167  16.2247710  31.1899927  50.6553284  25.7256228  35.7448230
  51.3681256  26.3603693  35.6724132  50.1643312  25.8220094  34.9288232
  52.3770810  19.6307481  27.3165522  51.4427089  19.7508943  27.1470226
  52.5547479  18.7279948  27.0525532  47.8775999  13.0153177  29.4698783
  47.5073786  12.4624217  30.1579689  48.3735091  12.4111310  28.9173783
  55.7643362  15.4724800  27.8515556  56.2303814  16.3052792  27.7775859
  56.2150862  15.0069782  28.5560815  45.7065197  23.4750672  36.5653801
  46.4074657  24.1087155  36.7183195  45.2360312  23.8165403  35.8049440
  53.8319593  21.8168622  24.8501708  54.1079437  21.7025216  25.7595582
  52.9624092  21.4186106  24.8113881  53.7360025   7.8405387  31.8906457
  52.8223104   8.0709614  32.0588664  54.1653126   7.9243831  32.7420490
  53.5066483  16.0295279  34.3906351  52.8537933  16.2771187  33.7358804
  53.8846863  15.2159417  34.0568829  50.4673657  26.0654972  28.4934522
  50.6496051  25.2476628  28.9562274  51.2906643  26.2822665  28.0559412
  50.8015822  24.9923158  25.7549570  51.3303589  24.4815612  25.1419732
  51.0644042  24.6765688  26.6195103  49.5554056  16.7715090  40.8772389
  48.8794693  16.6709220  41.5474764  50.3781690  16.6154304  41.3408386
  41.3032915  23.0087027  33.4984904  41.8886352  22.2630715  33.6312808
  41.1057754  23.3190984  34.3821568  44.1571570  26.0438274  28.5147346
  43.4881946  26.5284402  28.0311386  44.0184440  26.2907495  29.4290725
  35.8950570  15.5792627  32.2189347  35.9334669  15.0456218  33.0126465
  35.3890863  15.0527833  31.6000324  48.2976839  28.0782018  35.1130005
  48.8495147  28.2413639  35.8779090  48.6383032  28.6686456  34.4410029
  43.2741332  10.4257168  35.7151889  43.3382659  11.2871998  35.3029287
  43.2108452   9.8131169  34.9824248  42.7493605  12.4980300  39.3624923
  43.3765644  12.1157377  39.9762448  41.8921524  12.2794502  39.7280616
  53.1487713  22.9043275  40.9678659  53.6927617  23.5173234  40.4733614
  52.5674558  23.4622854  41.4845672  51.4345226  26.0263993  32.0993687
  51.3096366  25.2253733  31.5904632  52.0924317  26.5210187  31.6107657
  43.0553394  12.3812726  31.2770827  42.3339980  12.9948693  31.1378300
  43.8446650  12.9170491  31.1987473  53.4980135  23.8273013  33.7273237
  52.5510470  23.7078365  33.6551564  53.8462908  22.9395511  33.8099498
  45.8579708   9.7167152  37.5511479  46.3814110   9.9629449  38.3137788
  45.6392041  10.5487187  37.1314616  50.5026568  23.6225730  29.9277589
  50.3551530  22.6942437  30.1085159  51.3280061  23.6445820  29.4434664
  54.1060690  24.4454288  31.0142462  55.0307237  24.2397150  30.8766913
  53.9375993  24.1970689  31.9231803  47.0632253  10.6580847  35.2361149
  46.7229073   9.8588660  35.6381829  46.3571259  10.9582558  34.6637982
  47.7148725   7.7430160  33.6888472  48.5374794   7.2690638  33.5667363
  47.9586788   8.5220644  34.1887159  45.2387304  14.4349280  31.4980451
  45.0931884  14.7489584  32.3904732  44.7612507  15.0534181  30.9451349
  47.0983686  11.4251828  31.5461340  47.0845255  10.5292922  31.2093638
  47.8156115  11.4322492  32.1799626  48.9509817  11.8589169  33.5914468
  48.6927595  12.7806239  33.5898798  48.4194858  11.4619603  34.2814932
  53.8956006  24.9639956  26.3704553  54.0692883  24.3986378  25.6178406
  54.3884897  25.7640851  26.1884043  39.7132966  16.9754625  34.4368112
  39.1686434  17.7514433  34.5688386  40.5912316  17.3225429  34.2787233
  59.7495397  17.7276379  27.9894853  60.1926543  16.9783704  27.5913976
  58.8721907  17.7186515  27.6068585  54.8831178  24.2806720  23.4701451
  55.5782083  24.9013413  23.6888766  55.2254329  23.4302071  23.7453829
  40.4998988  16.1024521  37.3298269  39.7580724  16.2507156  37.9162899
  40.1791732  16.3632787  36.4665018  56.7822602  21.7306426  24.9988782
  57.3073926  22.0693698  24.2738102  56.6944954  20.7953441  24.8151917
  48.4442650  25.6440499  37.1278659  48.7529777  25.3989646  38.0001358
  49.2418132  25.8487138  36.6397529  48.4663262  27.7978409  29.3584035
  48.0268253  27.3054788  30.0516892  49.2171379  27.2551377  29.1176111
  40.9455601  23.9889950  29.3608664  41.7713621  23.6893722  28.9807307
  40.5949653  23.2197572  29.8098452  45.9137134  23.3416418  31.4306337
  45.2917144  22.6787123  31.1308565  46.5842001  23.3677550  30.7479985
  39.1464206  21.9076276  30.3197597  38.3096115  21.4798451  30.1381598
  39.1187852  22.1008720  31.2568388  45.9861662  11.8198206  41.0238843
  46.0349817  12.6960329  40.6416613  46.5284176  11.2775599  40.4510486
  56.4716508  22.3639329  40.3039980  55.6812051  22.3463468  39.7644480
  56.2349862  22.9027623  41.0589017  56.5914383  19.2131796  37.6172709
  56.6412388  19.0481803  38.5588232  56.4828306  18.3459055  37.2270590
  45.4750641  21.8920341  24.9064798  45.6238762  22.5755806  24.2531470
  46.2817085  21.8725431  25.4214253  53.8818145  15.1962724  38.9332015
  54.7828008  15.0569189  38.6416013  53.9566120  15.3617179  39.8730193
  48.2160950  12.5729578  37.7785202  47.3464260  12.8663145  37.5067790
  48.4520431  13.1570023  38.4992465  58.0932580  21.6328737  37.8614730
  57.8017388  21.9958718  38.6978191  57.4804711  20.9195746  37.6828062
  59.2928262  19.1981617  30.3817301  60.1275153  19.6371421  30.5454861
  59.4287391  18.7220270  29.5625546  56.3419768  16.7561352  36.3294788
  56.8173889  16.9488998  35.5213640  55.4185333  16.8120538  36.0838172
  50.9199984   8.7909195  35.2950622  51.4381928   9.5270222  34.9697111
  50.5655117   9.0973189  36.1297381  51.1712578   5.2109478  30.8151519
  51.4514332   4.5432667  31.4411945  51.9563185   5.4038574  30.3026183
  48.9746047  24.3868472  22.3776545  48.4020014  25.0058659  21.9247017
  49.5478841  24.9367834  22.9116467  55.0421437  13.6327112  34.5623094
  55.9938860  13.7325210  34.5835318  54.8724887  12.8405381  35.0721178
  53.0635816  10.7182695  34.7482495  52.4685748  10.9987708  34.0528983
  52.7785513  11.2076596  35.5199236  52.1943307  24.6705622  23.5085127
  53.1273980  24.6051184  23.7118003  52.1066520  25.5061889  23.0499660
  54.8231323  23.9871492  20.4689075  54.7444955  23.6531356  21.3624833
  55.6440990  24.4793260  20.4680547  57.5209515  16.8533232  33.6765394
  57.4885835  15.9149232  33.8625077  58.1310138  16.9317268  32.9431218
  57.6704003  13.6444275  33.7223677  57.1543052  12.8602732  33.5353606
  58.5543952  13.3162992  33.8870196  55.3314730   7.3885291  29.6819489
  55.1339551   7.0800379  30.5662821  55.9414436   8.1146930  29.8117419
  63.3386064  17.9149238  32.8171430  64.0689453  17.6534527  33.3779134
  62.7293010  17.1777960  32.8573498  61.4201362  16.0557101  33.4145882
  60.6934525  15.9213066  32.8062373  61.0048648  16.3633930  34.2202600
  49.2431538  19.7747031  41.1793255  50.1634547  19.9525630  41.3733301
  49.2081121  18.8303076  41.0272954  42.2393610  17.6848065  33.8216036
  42.4579620  18.6165173  33.8404070  42.6519384  17.3256040  34.6070840
  47.1121476  13.2581271  43.2118785  47.0118203  14.2075628  43.1430876
  46.8943018  12.9299510  42.3394855  38.3301963  18.5888536  32.0739651
  37.6365434  18.1742489  31.5609605  39.0774954  18.6309072  31.4773070
  52.9170750   8.7799780  29.1416005  53.4170528   8.8916315  28.3330324
  53.5606358   8.4760833  29.7816814  46.9752746  16.6878410  42.0283846
  46.4919828  17.4878770  42.2347735  47.0613685  16.6986355  41.0751290
  40.2438705  18.5206790  29.9505666  40.2209394  18.6194477  28.9987549
  40.5539342  19.3671940  30.2722832  42.9026083  20.5782945  34.0652280
  43.8569337  20.5466887  33.9982212  42.7038607  20.1173568  34.8802506
  43.4925465  19.1484061  36.6323078  44.3118354  19.6428139  36.6557915
  43.7662273  18.2316029  36.6040645  56.6006598  11.5641334  29.7105372
  57.3766988  12.0537786  29.9829989  55.8754732  11.9899388  30.1677242
  59.0379156  12.2768953  30.7679313  59.6323647  12.0364689  30.0572621
  59.1105740  11.5576084  31.3952849  41.2576312  26.1202564  31.0822478
  41.1230780  25.3602965  30.5160476  40.8408374  26.8443464  30.6151267
  53.2233085  17.0549349  26.2101323  53.1668287  17.5117900  25.3708956
  53.7761428  16.2940034  26.0324166  57.0337891  12.8439081  27.0351443
  56.7774826  12.4435717  27.8659651  56.4090759  13.5582875  26.9101582
  61.3450229  15.5835154  29.5422734  60.7849787  15.6528343  30.3154296
  60.7393733  15.4076139  28.8222231  44.4145438  27.0171881  31.2940921
  44.2977822  27.9617314  31.1919611  43.5937884  26.7145443  31.6826720
  54.3021973  21.7422017  22.1397513  55.1367576  21.3103215  21.9574988
  54.1406315  21.5704031  23.0674408  53.9567865  18.2454130  23.5053853
  53.9016669  18.0798402  22.5642297  53.3313920  18.9530163  23.6616042
  38.7460380  13.4822195  37.3315275  39.3919243  12.9721149  37.8202500
  38.5377531  14.2190876  37.9058700  51.2713772  20.5503042  42.8307415
  52.1404932  20.7243694  42.4694050  50.7920523  21.3697459  42.7083145
  45.4399952  27.6700143  34.5096849  46.3427199  27.7023753  34.8263344
  45.2137322  26.7400594  34.5243185  47.1953554  26.4231130  31.1706928
  46.2449185  26.4232991  31.0571300  47.4986040  25.6763864  30.6542962
  43.0857871  10.6289812  41.4290289  43.9489332  10.2726617  41.6393614
  42.5123281  10.2903707  42.1165693  62.9306248  32.2591668  32.2352690
  63.5684658  32.1398415  31.5316030  62.8127091  33.2072512  32.2940642
  59.7395954  32.2119096  32.1714215  59.4014465  32.0960161  31.2834750
  60.6085722  31.8110261  32.1515221  55.5982770  34.0654573  28.1611106
  55.0347635  33.9744510  27.3927393  55.4835165  33.2454477  28.6413598
  60.2215737  33.3653948  38.1300420  60.2104378  32.9706746  37.2580924
  60.3836376  32.6320020  38.7234192  53.1447202  35.5605764  30.9995326
  53.9368493  35.2196589  30.5841625  53.3843852  35.6700739  31.9197479
  61.1782328  37.7325540  23.4725571  60.5270308  38.3179621  23.0859584
  61.9726691  38.2631735  23.5320608  55.1037955  34.8214677  23.8712705
  55.8768831  34.2743664  23.7325581  55.4563354  35.6858927  24.0827166
  56.9422998  36.1491060  37.0779604  56.6512864  37.0536691  36.9626271
  57.5779982  36.1907587  37.7923674  57.8679205  33.5267908  33.6680964
  58.4642777  33.3023931  32.9537927  57.9254176  32.7852654  34.2706412
  57.4404233  30.9807344  21.5031155  57.6929754  30.4588865  20.7414618
  56.5028792  30.8173489  21.6057838  62.4847516  29.9843122  29.3105898
  63.2710605  29.5662545  28.9596315  62.7486220  30.8889214  29.4787546
  62.6557593  35.4215972  24.0094555  62.0203426  35.4950599  24.7215460
  62.3255000  36.0109571  23.3313634  67.8855943  29.9218355  30.2138877
  68.6181115  29.3517572  30.4476706  67.1295299  29.5339956  30.6545382
  57.1600522  32.8835449  23.7055530  57.0436780  32.2080353  24.3736614
  57.2702782  32.3967823  22.8887683  59.5032063  32.3445597  27.4102219
  59.1390270  31.8176218  28.1215141  60.3599179  31.9544066  27.2368704
  65.4081364  23.6339929  34.6733485  65.0764688  24.5035340  34.4494700
  64.8126977  23.3176213  35.3527516  59.1437550  27.3735496  22.4063568
  59.3111952  28.2415733  22.7734039  58.9534719  27.5362778  21.4824857
  61.9012883  35.8352475  34.0729398  61.6013606  36.7377514  33.9645205
  61.5563943  35.5684658  34.9250551  55.3525365  32.2866272  30.1066102
  54.4275861  32.1542486  30.3143794  55.6009778  33.0660491  30.6036045
  65.3010027  28.3535015  31.7526835  64.3926904  28.2850424  31.4585596
  65.2497623  28.8306960  32.5808661  59.1226771  29.8293154  23.3910234
  59.0026396  30.2750205  24.2295715  58.4279359  30.1778471  22.8323773
  52.7134176  31.9299546  30.9409891  52.8426557  32.1834025  31.8549303
  52.0331627  32.5227254  30.6214546  56.8833663  42.5996796  27.0400366
  56.8057693  43.5504621  27.1188846  56.2795307  42.2542668  27.6975292
  59.3750893  29.7724661  39.6961733  58.5984227  30.3318581  39.6864597
  60.0141456  30.2581444  40.2176603  67.1671673  26.5551454  33.5304709
  66.5246054  26.8483987  32.8844504  66.6626602  26.4404374  34.3357906
  64.8211837  30.3014627  24.2190568  65.7329693  30.5342014  24.0438266
  64.3121484  30.8851671  23.6565647  57.6297265  32.5810114  39.2579700
  58.3711949  33.1195158  38.9814523  56.9234250  33.2076403  39.4151251
  63.1052605  34.7239255  37.8551861  63.5135961  34.2821665  37.1106493
  62.3829866  34.1491882  38.1086054  59.4583675  29.6611862  35.2285418
  60.3044870  30.0851275  35.3720067  59.3982312  29.0045486  35.9223981
  63.4281419  35.2840445  31.6104150  62.7990282  35.4486160  30.9080218
  63.0407081  35.6982055  32.3815114  67.3070651  36.2194883  28.9648514
  66.6221689  36.5993785  28.4145547  67.3914501  36.8290210  29.6980461
  62.6083120  27.3216230  36.8866592  62.3644052  28.0758290  36.3500867
  62.8843051  27.7001578  37.7213839  64.5621583  33.8654842  35.5643857
  64.7738478  34.5086602  34.8878238  64.5151331  33.0317159  35.0965787
  62.1647812  26.4772663  32.4680429  61.3032291  26.7753917  32.7597167
  62.1910246  26.6943062  31.5361462  58.9809381  35.0214854  28.8754235
  59.4447727  35.3002556  28.0858857  58.7166179  34.1198298  28.6927326
  55.8733462  34.5686335  31.8133998  56.4434819  34.9973603  31.1751483
  56.4641574  34.2868920  32.5118184  57.9178267  31.1438006  25.6843800
  58.6202311  31.5959050  26.1517726  57.5858896  30.5021825  26.3123693
  56.3658629  29.7349763  40.0595010  55.7357289  30.4166043  40.2930406
  56.2594717  29.6232844  39.1148148  51.6603601  29.4021559  30.9860934
  50.8702655  29.6579087  30.5101044  52.1514849  30.2169896  31.0912974
  65.6767411  36.7426798  33.7366215  66.4984854  36.3406985  33.4548896
  65.6729814  36.6395032  34.6882330  53.6118347  29.7666138  27.9444410
  52.8149510  29.8784832  28.4627906  53.3843939  30.1052790  27.0785301
  59.4424014  36.2910841  35.8926925  59.5068447  36.7531248  36.7285097
  58.7334938  35.6608206  36.0209235  49.9441304  29.6552049  33.4175924
  50.1949343  30.5399059  33.6833500  50.4800853  29.4756651  32.6451016
  73.7673404  33.0865546  30.0851186  73.0137112  32.5172944  29.9295190
  73.9020945  33.0528211  31.0321821  59.1572032  37.9578948  25.7605905
  59.0217707  38.8030484  26.1890753  59.6981844  38.1598226  24.9971839
  55.6439371  24.0370528  42.4220261  55.2506317  23.4836727  43.0967905
  56.4605512  24.3481107  42.8126778  52.6101429  35.4754387  26.3333830
  53.1225950  36.2697637  26.4839395  53.2624142  34.7780677  26.2667432
  54.4196314  38.5920143  28.4156584  54.5962942  39.5138108  28.2277568
  55.2153147  38.2778562  28.8450963  58.5607332  25.4528407  40.0140517
  59.3017046  26.0535561  39.9344980  58.7925255  24.7106045  39.4558560
  53.7048670  30.6384775  38.2918747  53.5902186  29.7370032  38.5925846
  52.8493188  30.8848471  37.9403563  60.7840508  38.5802515  39.8906247
  60.3404362  37.7938894  39.5727152  61.4457722  38.7681666  39.2250138
  55.5427629  40.1098317  34.4166926  56.0935055  39.9815380  33.6443920
  54.7039105  40.4093206  34.0661819  62.8821746  38.8605315  37.9187649
  62.8640222  39.6814196  37.4267918  63.8041666  38.7359390  38.1437790
  59.3394800  36.3749444  38.7611157  59.8723137  35.6137733  38.5310465
  58.8108882  36.0823096  39.5035312  62.5064495  21.4809510  34.2904799
  62.1628765  22.3711152  34.2143909  62.8743458  21.2911168  33.4274384
  50.5750346  33.8043041  27.1093401  51.4125568  34.2140049  26.8927109
  50.7528614  32.8642483  27.0793595  62.4714778  31.4718121  22.7977234
  61.9561402  32.2422726  23.0365621  62.1992087  30.7983258  23.4210295
  60.0561889  26.3167822  27.8562472  59.2003486  25.9274673  27.6768111
  60.4688841  26.3959783  26.9962258  61.5861036  23.8514166  32.2554032
  61.0825831  23.8144301  31.4421837  61.8791643  24.7606908  32.3150689
  57.8303922  23.9352895  31.2620214  58.6956918  23.7395704  30.9026103
  57.8981431  23.7063247  32.1889571  67.4449052  34.2250476  24.7330407
  66.6678495  33.8861636  24.2885569  68.1240533  34.2303099  24.0585372
  62.2601081  29.3445214  24.6237015  61.9551217  29.6591363  25.4747158
  63.2131523  29.4226633  24.6664348  60.7047513  35.5035437  26.2729969
  60.1768875  34.7688196  25.9603207  60.2035016  36.2810113  26.0269937
  65.6840359  33.6984457  31.3897015  65.0264034  34.3883719  31.4777144
  66.4880758  34.0880889  31.7331002  55.4366241  26.1655103  28.6336581
  56.0109993  25.9430285  27.9009774  56.0237223  26.2343798  29.3865182
  64.4945818  32.0528830  29.4400957  65.0077700  32.6858822  29.9422667
  65.1447042  31.4530026  29.0744317  55.7635828  28.1959564  22.6532466
  54.9273140  28.5334251  22.9741741  55.6240598  28.0608544  21.7159603
  57.7388908  23.0396352  27.3611650  57.0853321  22.7245369  26.7368265
  57.6969383  22.4172093  28.0871473  58.8500113  33.3215647  19.2764942
  57.9427175  33.0904901  19.4756091  59.3471145  32.5253266  19.4638924
  61.7568192  42.0313154  22.1961628  61.0829891  42.3344851  22.8046586
  62.1434014  42.8342235  21.8467085  60.9726649  29.5278286  31.6859298
  60.0549210  29.7493233  31.5280986  61.3886792  29.6024596  30.8271005
  61.7561697  30.9269701  26.8161978  62.5033516  31.4391099  26.5069100
  62.0253286  30.6053754  27.6766371  60.0288347  33.4228242  23.7988932
  59.1199566  33.1387275  23.8961402  60.0583431  33.8427321  22.9392239
  65.2607614  37.0334832  27.5680100  64.8069941  36.1925741  27.6245290
  64.6301581  37.6696230  27.9054880  64.2040534  27.9626818  28.7980767
  63.4663291  27.4504204  29.1291010  64.4567307  27.5227199  27.9864044
  63.7040553  38.8711328  28.5029918  63.9963528  39.4316385  27.7842284
  64.2139174  39.1639889  29.2583077  64.3052161  20.7403070  29.3922536
  64.6111038  19.8800433  29.1048452  65.0304766  21.3320690  29.1921530
  50.5976517  31.1433756  27.7804134  50.4000917  30.5503117  27.0555201
  50.0423181  30.8385966  28.4980073  58.5773241  31.0356863  29.8998728
  58.6321851  30.0830699  29.8241204  57.7664443  31.1916302  30.3840026
  59.7264435  34.9636986  21.1377011  59.2883865  34.2472845  20.6782648
  60.4674875  35.1913101  20.5762102  56.5165601  29.6533922  27.6589106
  55.7033466  29.9528093  28.0654299  57.0124595  29.2589611  28.3763589
  58.6674179  39.6491679  29.5923371  58.6250357  39.8752526  28.6631903
  59.5836877  39.4155054  29.7409172  62.1139812  30.1175747  36.4904000
  62.4689200  30.3447220  37.3498466  62.7611944  30.4494124  35.8681256
  67.8437549  33.2394183  27.1953329  67.7055448  33.4295779  26.2674519
  67.4873768  34.0013566  27.6521380  56.0079675  27.2252278  33.2750341
  56.6479055  27.0841037  32.5773305  55.1757206  26.9386791  32.8988943
  67.8706929  35.3070710  32.2064601  68.3043436  35.2145999  33.0547655
  68.5838510  35.2828210  31.5684617  56.7839979  36.5254708  29.3885334
  57.5780578  36.0305028  29.1867909  56.0731672  35.9972571  29.0253039
  61.6034824  38.9072804  33.7397701  61.6571846  39.4763740  34.5075417
  60.7349605  39.0774689  33.3751739  53.0922743  30.6697790  25.4645087
  52.1620331  30.6082246  25.6815049  53.1880215  30.1473743  24.6681728
  53.0108292  27.1952603  28.0523328  53.2715109  28.1097936  27.9432489
  53.8325464  26.7277045  28.2019941  54.4833217  28.6090360  35.2222153
  55.1556271  28.4007722  34.5734802  53.6563004  28.4112446  34.7827385
  68.7322479  35.3494410  34.7397486  68.9258369  36.2540221  34.9856761
  68.6323097  34.8901829  35.5736071  60.3858789  25.2352301  37.2387814
  59.7386704  25.9342251  37.1452290  61.1559805  25.6688445  37.6064062
  63.7937587  35.5001153  40.3138367  63.6423094  35.2711705  39.3968451
  63.7842267  36.4571755  40.3269712  60.5622924  33.0733066  35.2984633
  61.4914984  33.2244226  35.1253601  60.1413954  33.1617087  34.4433280
  59.3611255  37.0983730  33.0683171  59.2222341  36.7302515  33.9409109
  58.5725852  37.6131370  32.8967129  59.9559407  42.1992827  24.4108707
  60.1311163  41.7280870  25.2254330  59.2692195  42.8258593  24.6389968
  60.9116471  36.4765333  30.4572009  60.5766303  36.4366103  31.3529659
  60.4120416  35.8110049  29.9842419  54.8860715  31.8832963  35.9824590
  54.7480512  31.1513202  36.5836129  55.7965638  31.7941863  35.7008778
  63.8475662  33.8221367  20.7309068  63.2304833  33.0968196  20.6342121
  63.3792151  34.5830728  20.3876143  57.5143015  31.5952922  35.4708270
  58.2242634  30.9546115  35.4294888  57.4712323  31.8465817  36.3934450
  65.5029794  38.5320276  38.3914849  65.4442340  37.8479496  37.7245432
  65.9049312  39.2739266  37.9395475  56.2271949  28.5818140  37.2903909
  55.6909306  28.1308879  37.9425505  55.6388658  28.7164049  36.5474373
  54.5220493  45.3482190  31.1848568  54.7617091  45.9800714  31.8627586
  53.6789689  44.9970230  31.4713927  55.6374208  28.0406792  19.8530373
  54.7603674  27.9195592  19.4892619  56.1131961  27.2492870  19.6009261
  65.5047201  36.4959860  36.6228828  64.6173980  36.1585781  36.7455227
  66.0745752  35.7642891  36.8597594  47.1576348  32.8283951  29.9471880
  47.8447388  32.5145681  29.3592895  47.0024477  33.7325316  29.6739131
  51.9611070  27.7174148  34.3756903  51.8769259  27.1099817  33.6407313
  51.1393777  28.2083166  34.3766400  59.0348355  41.1561312  33.5890072
  58.9618526  41.9616283  34.1009376  58.5925748  41.3553278  32.7638093
  58.8238134  40.3933082  27.0992893  58.0405656  40.9354762  27.1931118
  59.5230879  40.9107062  27.4987134  62.1334784  26.2027711  29.7427099
  62.6303484  25.4497674  29.4228169  61.3621766  26.2392028  29.1770308
  69.9864542  31.9068077  31.3845390  69.9754418  32.7892792  31.0139323
  69.1181921  31.5539628  31.1899927  61.4947038  41.0548146  35.7448230
  62.2075010  41.6895611  35.6724132  61.0037067  41.1512012  34.9288232
  63.2164565  34.9599399  27.3165522  62.2820844  35.0800861  27.1470226
  63.3941233  34.0571865  27.0525532  58.7169753  28.3445094  29.4698783
  58.3467541  27.7916135  30.1579689  59.2128845  27.7403228  28.9173783
  66.6037116  30.8016718  27.8515556  67.0697568  31.6344710  27.7775859
  67.0544617  30.3361700  28.5560815  56.5458952  38.8042589  36.5653801
  57.2468411  39.4379072  36.7183195  56.0754067  39.1457321  35.8049440
  64.6713347  37.1460539  24.8501708  64.9473191  37.0317134  25.7595582
  63.8017846  36.7478024  24.8113881  64.5753779  23.1697305  31.8906457
  63.6616859  23.4001532  32.0588664  65.0046880  23.2535749  32.7420490
  64.3460238  31.3587197  34.3906351  63.6931688  31.6063104  33.7358804
  64.7240617  30.5451335  34.0568829  61.3067411  41.3946890  28.4934522
  61.4889806  40.5768546  28.9562274  62.1300397  41.6114582  28.0559412
  61.6409577  40.3215075  25.7549570  62.1697343  39.8107530  25.1419732
  61.9037796  40.0057605  26.6195103  60.3947811  32.1007008  40.8772389
  59.7188448  32.0001137  41.5474764  61.2175444  31.9446222  41.3408386
  52.1426670  38.3378945  33.4984904  52.7280106  37.5922632  33.6312808
  51.9451508  38.6482901  34.3821568  54.9965325  41.3730192  28.5147346
  54.3275700  41.8576320  28.0311386  54.8578195  41.6199412  29.4290725
  46.7344324  30.9084545  32.2189347  46.7728424  30.3748135  33.0126465
  46.2284617  30.3819750  31.6000324  59.1370593  43.4073935  35.1130005
  59.6888901  43.5705557  35.8779090  59.4776787  43.9978373  34.4410029
  54.1135087  25.7549085  35.7151889  54.1776413  26.6163916  35.3029287
  54.0502207  25.1423087  34.9824248  53.5887359  27.8272218  39.3624923
  54.2159398  27.4449295  39.9762448  52.7315278  27.6086420  39.7280616
  63.9881468  38.2335193  40.9678659  64.5321372  38.8465151  40.4733614
  63.4068313  38.7914771  41.4845672  50.3652902  29.6348647  25.2943278
  50.6606343  28.7259325  25.2410332  49.4640938  29.6136386  24.9724281
  62.2738981  41.3555911  32.0993687  62.1490120  40.5545651  31.5904632
  62.9318072  41.8502104  31.6107657  53.8947149  27.7104643  31.2770827
  53.1733735  28.3240611  31.1378300  54.6840405  28.2462408  31.1987473
  64.3373889  39.1564931  33.7273237  63.3904225  39.0370282  33.6551564
  64.6856662  38.2687429  33.8099498  56.6973462  25.0459070  37.5511479
  57.2207864  25.2921367  38.3137788  56.4785796  25.8779105  37.1314616
  52.0940744  27.3162745  25.4182603  51.7653450  26.4360123  25.2357709
  52.4480114  27.2610413  26.3058993  61.3420322  38.9517647  29.9277589
  61.1945285  38.0234355  30.1085159  62.1673816  38.9737738  29.4434664
  55.2082567  27.6035714  25.7858081  55.5478639  28.1321636  25.0636690
  55.6554687  27.9416120  26.5616648  64.9454444  39.7746206  31.0142462
  65.8700992  39.5689067  30.8766913  64.7769748  39.5262607  31.9231803
  57.9026008  25.9872765  35.2361149  57.5622828  25.1880578  35.6381829
  57.1965014  26.2874476  34.6637982  58.5542479  23.0722077  33.6888472
  59.3768549  22.5982556  33.5667363  58.7980543  23.8512561  34.1887159
  57.1950714  26.1010336  23.9851374  57.9159076  26.4791589  23.4815091
  56.5716018  26.8199213  24.0886352  61.3381837  26.8055485  24.9209706
  61.5545451  27.6880123  24.6198534  60.8575904  26.4141698  24.1915348
  56.0781058  29.7641198  31.4980451  55.9325639  30.0781501  32.3904732
  55.6006262  30.3826098  30.9451349  57.9377441  26.7543746  31.5461340
  57.9239010  25.8584839  31.2093638  58.6549869  26.7614410  32.1799626
  59.7903572  27.1881086  33.5914468  59.5321350  28.1098157  33.5898798
  59.2588612  26.7911521  34.2814932  64.7349760  40.2931873  26.3704553
  64.9086638  39.7278296  25.6178406  65.2278652  41.0932768  26.1884043
  50.5526720  32.3046543  34.4368112  50.0080188  33.0806350  34.5688386
  51.4306070  32.6517347  34.2787233  57.3414337  25.6358126  26.8148911
  57.4630248  24.7074773  27.0139798  57.0516379  25.6496812  25.9027226
  60.2105527  23.3213037  29.9515630  60.2327224  23.3852370  28.9967610
  60.6273586  22.4817545  30.1456137  70.5889152  33.0568296  27.9894853
  71.0320298  32.3075622  27.5913976  69.7115662  33.0478433  27.6068585
  65.7224933  39.6098638  23.4701451  66.4175838  40.2305331  23.6888766
  66.0648083  38.7593989  23.7453829  51.3392742  31.4316439  37.3298269
  50.5974478  31.5799074  37.9162899  51.0185486  31.6924704  36.4665018
  67.6216356  37.0598343  24.9988782  68.1467680  37.3985616  24.2738102
  67.5338709  36.1245359  24.8151917  59.2836405  40.9732417  37.1278659
  59.5923531  40.7281564  38.0001358  60.0811887  41.1779055  36.6397529
  59.3057017  43.1270327  29.3584035  58.8662007  42.6346705  30.0516892
  60.0565134  42.5843294  29.1176111  51.7849356  39.3181868  29.3608664
  52.6107376  39.0185639  28.9807307  51.4343408  38.5489490  29.8098452
  56.7530889  38.6708336  31.4306337  56.1310898  38.0079041  31.1308565
  57.4235756  38.6969468  30.7479985  49.9857961  37.2368194  30.3197597
  49.1489869  36.8090368  30.1381598  49.9581606  37.4300637  31.2568388
  56.8255416  27.1490124  41.0238843  56.8743572  28.0252247  40.6416613
  57.3677931  26.6067517  40.4510486  67.3110262  37.6931247  40.3039980
  66.5205806  37.6755386  39.7644480  67.0743617  38.2319541  41.0589017
  67.4308137  34.5423713  37.6172709  67.4806142  34.3773721  38.5588232
  67.3222061  33.6750972  37.2270590  56.3144396  37.2212259  24.9064798
  56.4632516  37.9047723  24.2531470  57.1210839  37.2017349  25.4214253
  64.7211900  30.5254641  38.9332015  65.6221762  30.3861106  38.6416013
  64.7959874  30.6909096  39.8730193  59.0554705  27.9021496  37.7785202
  58.1858014  28.1955062  37.5067790  59.2914185  28.4861941  38.4992465
  68.9326334  36.9620655  37.8614730  68.6411142  37.3250635  38.6978191
  68.3198465  36.2487663  37.6828062  70.1322016  34.5273535  30.3817301
  70.9668908  34.9663339  30.5454861  70.2681145  34.0512188  29.5625546
  67.1813522  32.0853270  36.3294788  67.6567644  32.2780916  35.5213640
  66.2579088  32.1412455  36.0838172  54.0697029  33.2477437  25.9125867
  53.8243071  32.3439767  26.1106077  54.2392943  33.2494587  24.9705345
  61.7593739  24.1201113  35.2950622  62.2775683  24.8562140  34.9697111
  61.4048872  24.4265106  36.1297381  53.3392676  28.9805794  23.4112028
  52.6461921  29.0550149  22.7552064  53.0944428  28.2166138  23.9333545
  62.0106333  20.5401396  30.8151519  62.2908087  19.8724585  31.4411945
  62.7956940  20.7330491  30.3026183  59.8139801  39.7160390  22.3776545
  59.2413768  40.3350577  21.9247017  60.3872595  40.2659751  22.9116467
  65.8815191  28.9619030  34.5623094  66.8332614  29.0617127  34.5835318
  65.7118642  28.1697298  35.0721178  63.9029571  26.0474613  34.7482495
  63.3079503  26.3279626  34.0528983  63.6179267  26.5368514  35.5199236
  63.0337061  39.9997540  23.5085127  63.9667734  39.9343101  23.7118003
  62.9460274  40.8353807  23.0499660  65.6625078  39.3163410  20.4689075
  65.5838709  38.9823274  21.3624833  66.4834745  39.8085178  20.4680547
  68.3603269  32.1825149  33.6765394  68.3279589  31.2441150  33.8625077
  68.9703893  32.2609186  32.9431218  60.1986600  31.0521202  19.7192598
  61.1445705  30.9227410  19.7881016  59.8200845  30.3135864  20.1962026
  68.5097758  28.9736193  33.7223677  67.9936806  28.1894649  33.5353606
  69.3937706  28.6454909  33.8870196  66.1708484  22.7177208  29.6819489
  65.9733306  22.4092297  30.5662821  66.7808190  23.4438847  29.8117419
  74.1779819  33.2441156  32.8171430  74.9083207  32.9826444  33.3779134
  73.5686764  32.5069878  32.8573498  72.2595116  31.3849019  33.4145882
  71.5328280  31.2504984  32.8062373  71.8442403  31.6925847  34.2202600
  60.0825292  35.1038948  41.1793255  61.0028302  35.2817547  41.3733301
  60.0474875  34.1594994  41.0272954  58.3829517  28.9771179  19.6547483
  57.4760972  28.6804291  19.7310196  58.6605498  28.6800997  18.7881769
  49.3007457  30.2977542  30.1046529  48.9810242  29.4442850  29.8120903
  48.7540886  30.5126120  30.8604497  53.0787365  33.0139983  33.8216036
  53.2973375  33.9457091  33.8404070  53.4913139  32.6547957  34.6070840
  59.9991583  23.5208068  25.8091724  59.1892311  23.1755153  26.1846970
  60.6876000  23.2115612  26.3979336  61.9282131  22.5986115  27.4316021
  62.4813170  23.0181569  28.0906044  62.1652217  21.6721863  27.4738977
  57.9515230  28.5873189  43.2118785  57.8511957  29.5367546  43.1430876
  57.7336772  28.2591428  42.3394855  57.1528302  25.8358114  19.7959462
  58.0147466  26.1613012  20.0555279  57.3378646  25.0489610  19.2832528
  49.1695717  33.9180454  32.0739651  48.4759189  33.5034406  31.5609605
  49.9168708  33.9600990  31.4773070  65.3060938  24.7086640  26.9394685
  64.7259607  25.3671444  26.5572737  65.0396871  23.8863985  26.5282102
  63.7564505  24.1091698  29.1416005  64.2564283  24.2208233  28.3330324
  64.4000112  23.8052751  29.7816814  57.8146500  32.0170328  42.0283846
  57.3313582  32.8170688  42.2347735  57.9007439  32.0278273  41.0751290
  51.0832460  33.8498707  29.9505666  51.0603148  33.9486395  28.9987549
  51.3933096  34.6963858  30.2722832  53.7419838  35.9074862  34.0652280
  54.6963091  35.8758805  33.9982212  53.5432361  35.4465486  34.8802506
  54.3319220  34.4775978  36.6323078  55.1512109  34.9720057  36.6557915
  54.6056028  33.5607947  36.6040645  64.0885816  26.8686731  25.9951033
  63.2011671  27.1536381  25.7771228  64.5039805  26.7080494  25.1478310
  67.4400352  26.8933252  29.7105372  68.2160742  27.3829704  29.9829989
  66.7148486  27.3191306  30.1677242  69.8772911  27.6060871  30.7679313
  70.4717402  27.3656607  30.0572621  69.9499495  26.8868002  31.3952849
  52.0970067  41.4494482  31.0822478  51.9624535  40.6894883  30.5160476
  51.6802129  42.1735382  30.6151267  63.2329030  36.6331405  20.0899053
  63.9364880  36.8381408  20.7056709  62.5091678  37.2008167  20.3548137
  64.0626840  32.3841267  26.2101323  64.0062041  32.8409818  25.3708956
  64.6155182  31.6231951  26.0324166  67.8731646  28.1730999  27.0351443
  67.6168580  27.7727634  27.8659651  67.2484514  28.8874792  26.9101582
  72.1843984  30.9127072  29.5422734  71.6243542  30.9820261  30.3154296
  71.5787487  30.7368056  28.8222231  55.2539192  42.3463799  31.2940921
  55.1371577  43.2909231  31.1919611  54.4331639  42.0437360  31.6826720
  65.1415727  37.0713935  22.1397513  65.9761331  36.6395133  21.9574988
  64.9800070  36.8995948  23.0674408  64.7961619  33.5746048  23.5053853
  64.7410423  33.4090319  22.5642297  64.1707674  34.2822081  23.6616042
  49.5854134  28.8114112  37.3315275  50.2312998  28.3013066  37.8202500
  49.3771285  29.5482794  37.9058700  62.1107526  35.8794960  42.8307415
  62.9798686  36.0535612  42.4694050  61.6314278  36.6989377  42.7083145
  58.1057745  23.0754157  23.0839171  58.0936415  24.0195997  23.2407442
  58.9981167  22.8924302  22.7898632  56.2793707  42.9992061  34.5096849
  57.1820953  43.0315671  34.8263344  56.0531077  42.0692512  34.5243185
  58.0347309  41.7523047  31.1706928  57.0842940  41.7524909  31.0571300
  58.3379795  41.0055782  30.6542962  61.9209864  19.6696934  27.3385108
  61.1542260  19.1155420  27.4841790  62.3320569  19.7418802  28.1999259
  53.9251625  25.9581729  41.4290289  54.7883087  25.6018534  41.6393614
  53.3517036  25.6195624  42.1165693  73.7700002  47.5883586  32.2352690
  74.4078412  47.4690333  31.5316030  73.6520845  48.5364430  32.2940642
  70.5789708  47.5411014  32.1714215  70.2408220  47.4252079  31.2834750
  71.4479477  47.1402179  32.1515221  66.4376524  49.3946490  28.1611106
  65.8741389  49.3036427  27.3927393  66.3228919  48.5746395  28.6413598
  71.0609491  48.6945866  38.1300420  71.0498132  48.2998664  37.2580924
  71.2230131  47.9611938  38.7234192  63.9840956  50.8897682  30.9995326
  64.7762248  50.5488506  30.5841625  64.2237606  50.9992657  31.9197479
  72.0176083  53.0617458  23.4725571  71.3664063  53.6471538  23.0859584
  72.8120446  53.5923653  23.5320608  65.9431710  50.1506595  23.8712705
  66.7162586  49.6035582  23.7325581  66.2957109  51.0150844  24.0827166
  67.7816753  51.4782977  37.0779604  67.4906619  52.3828608  36.9626271
  68.4173737  51.5199505  37.7923674  68.7072959  48.8559826  33.6680964
  69.3036532  48.6315848  32.9537927  68.7647931  48.1144571  34.2706412
  68.2797988  46.3099261  21.5031155  68.5323508  45.7880782  20.7414618
  67.3422547  46.1465407  21.6057838  73.3241271  45.3135040  29.3105898
  74.1104360  44.8954463  28.9596315  73.5879975  46.2181132  29.4787546
  73.4951348  50.7507890  24.0094555  72.8597181  50.8242516  24.7215460
  73.1648754  51.3401489  23.3313634  78.7249698  45.2510273  30.2138877
  79.4574870  44.6809490  30.4476706  77.9689053  44.8631873  30.6545382
  67.9994277  48.2127367  23.7055530  67.8830535  47.5372271  24.3736614
  68.1096536  47.7259741  22.8887683  70.3425817  47.6737514  27.4102219
  69.9784025  47.1468135  28.1215141  71.1992933  47.2835983  27.2368704
  76.2475118  38.9631847  34.6733485  75.9158443  39.8327258  34.4494700
  75.6520731  38.6468131  35.3527516  69.9831304  42.7027414  22.4063568
  70.1505707  43.5707650  22.7734039  69.7928474  42.8654696  21.4824857
  72.7406638  51.1644393  34.0729398  72.4407361  52.0669432  33.9645205
  72.3957697  50.8976576  34.9250551  66.1919119  47.6158190  30.1066102
  65.2669616  47.4834404  30.3143794  66.4403532  48.3952409  30.6036045
  76.1403781  43.6826933  31.7526835  75.2320659  43.6142341  31.4585596
  76.0891377  44.1598878  32.5808661  69.9620525  45.1585071  23.3910234
  69.8420151  45.6042122  24.2295715  69.2673114  45.5070389  22.8323773
  63.5527930  47.2591463  30.9409891  63.6820311  47.5125942  31.8549303
  62.8725381  47.8519171  30.6214546  67.7227417  57.9288713  27.0400366
  67.6451447  58.8796538  27.1188846  67.1189061  57.5834586  27.6975292
  70.2144647  45.1016579  39.6961733  69.4377981  45.6610499  39.6864597
  70.8535210  45.5873362  40.2176603  78.0065428  41.8843371  33.5304709
  77.3639808  42.1775905  32.8844504  77.5020356  41.7696292  34.3357906
  75.6605591  45.6306545  24.2190568  76.5723448  45.8633931  24.0438266
  75.1515239  46.2143589  23.6565647  68.4691019  47.9102032  39.2579700
  69.2105704  48.4487076  38.9814523  67.7628005  48.5368321  39.4151251
  73.9446359  50.0531172  37.8551861  74.3529715  49.6113583  37.1106493
  73.2223621  49.4783800  38.1086054  70.2977429  44.9903779  35.2285418
  71.1438624  45.4143193  35.3720067  70.2376067  44.3337404  35.9223981
  74.2675174  50.6132363  31.6104150  73.6384036  50.7778077  30.9080218
  73.8800836  51.0273973  32.3815114  78.1464406  51.5486801  28.9648514
  77.4615444  51.9285702  28.4145547  78.2308255  52.1582128  29.6980461
  73.4476875  42.6508148  36.8866592  73.2037806  43.4050208  36.3500867
  73.7236805  43.0293495  37.7213839  75.4015337  49.1946760  35.5643857
  75.6132233  49.8378520  34.8878238  75.3545086  48.3609077  35.0965787
  73.0041566  41.8064581  32.4680429  72.1426045  42.1045834  32.7597167
  73.0304001  42.0234980  31.5361462  69.8203136  50.3506771  28.8754235
  70.2841481  50.6294474  28.0858857  69.5559934  49.4490216  28.6927326
  66.7127217  49.8978253  31.8133998  67.2828574  50.3265521  31.1751483
  67.3035329  49.6160837  32.5118184  68.7572022  46.4729924  25.6843800
  69.4596065  46.9250967  26.1517726  68.4252650  45.8313742  26.3123693
  67.2052383  45.0641680  40.0595010  66.5751044  45.7457961  40.2930406
  67.0988471  44.9524762  39.1148148  62.4997356  44.7313476  30.9860934
  61.7096410  44.9871005  30.5101044  62.9908603  45.5461814  31.0912974
  76.5161165  52.0718715  33.7366215  77.3378609  51.6698903  33.4548896
  76.5123568  51.9686950  34.6882330  64.4512101  45.0958055  27.9444410
  63.6543264  45.2076750  28.4627906  64.2237693  45.4344708  27.0785301
  70.2817769  51.6202759  35.8926925  70.3462201  52.0823166  36.7285097
  69.5728693  50.9900124  36.0209235  60.7835059  44.9843967  33.4175924
  61.0343097  45.8690977  33.6833500  61.3194607  44.8048568  32.6451016
  84.6067158  48.4157464  30.0851186  83.8530867  47.8464862  29.9295190
  84.7414699  48.3820128  31.0321821  69.9965786  53.2870866  25.7605905
  69.8611461  54.1322402  26.1890753  70.5375599  53.4890144  24.9971839
  66.4833126  39.3662446  42.4220261  66.0900072  38.8128645  43.0967905
  67.2999266  39.6773024  42.8126778  63.4495184  50.8046304  26.3333830
  63.9619704  51.5989554  26.4839395  64.1017897  50.1072595  26.2667432
  65.2590068  53.9212060  28.4156584  65.4356697  54.8430025  28.2277568
  66.0546902  53.6070480  28.8450963  69.4001087  40.7820325  40.0140517
  70.1410800  41.3827478  39.9344980  69.6319010  40.0397963  39.4558560
  64.5442425  45.9676692  38.2918747  64.4295940  45.0661950  38.5925846
  63.6886943  46.2140389  37.9403563  71.6234263  53.9094433  39.8906247
  71.1798117  53.1230811  39.5727152  72.2851476  54.0973583  39.2250138
  66.3821384  55.4390234  34.4166926  66.9328809  55.3107298  33.6443920
  65.5432860  55.7385123  34.0661819  73.7215501  54.1897233  37.9187649
  73.7033976  55.0106114  37.4267918  74.6435421  54.0651308  38.1437790
  70.1788555  51.7041362  38.7611157  70.7116892  50.9429650  38.5310465
  69.6502636  51.4115014  39.5035312  73.3458250  36.8101428  34.2904799
  73.0022519  37.7003070  34.2143909  73.7137213  36.6203086  33.4274384
  61.4144101  49.1334959  27.1093401  62.2519323  49.5431967  26.8927109
  61.5922368  48.1934401  27.0793595  73.3108533  46.8010039  22.7977234
  72.7955156  47.5714644  23.0365621  73.0385841  46.1275175  23.4210295
  70.8955644  41.6459740  27.8562472  70.0397240  41.2566590  27.6768111
  71.3082595  41.7251701  26.9962258  72.4254790  39.1806083  32.2554032
  71.9219586  39.1436218  31.4421837  72.7185397  40.0898826  32.3150689
  68.6697676  39.2644813  31.2620214  69.5350673  39.0687622  30.9026103
  68.7375185  39.0355165  32.1889571  78.2842807  49.5542394  24.7330407
  77.5072250  49.2153553  24.2885569  78.9634288  49.5595017  24.0585372
  73.0994836  44.6737131  24.6237015  72.7944971  44.9883280  25.4747158
  74.0525278  44.7518551  24.6664348  71.5441268  50.8327355  26.2729969
  71.0162629  50.0980114  25.9603207  71.0428770  51.6102031  26.0269937
  76.5234114  49.0276375  31.3897015  75.8657788  49.7175636  31.4777144
  77.3274513  49.4172807  31.7331002  66.2759995  41.4947021  28.6336581
  66.8503747  41.2722202  27.9009774  66.8630978  41.5635715  29.3865182
  75.3339572  47.3820748  29.4400957  75.8471454  48.0150740  29.9422667
  75.9840796  46.7821943  29.0744317  66.6029582  43.5251482  22.6532466
  65.7666895  43.8626168  22.9741741  66.4634352  43.3900462  21.7159603
  68.5782663  38.3688270  27.3611650  67.9247075  38.0537287  26.7368265
  68.5363137  37.7464010  28.0871473  69.6893868  48.6507565  19.2764942
  68.7820930  48.4196818  19.4756091  70.1864900  47.8545184  19.4638924
  72.5961947  57.3605072  22.1961628  71.9223645  57.6636769  22.8046586
  72.9827769  58.1634152  21.8467085  71.8120403  44.8570203  31.6859298
  70.8942965  45.0785150  31.5280986  72.2280547  44.9316514  30.8271005
  72.5955451  46.2561619  26.8161978  73.3427270  46.7683016  26.5069100
  72.8647041  45.9345672  27.6766371  70.8682101  48.7520160  23.7988932
  69.9593321  48.4679193  23.8961402  70.8977185  49.1719238  22.9392239
  76.1001369  52.3626749  27.5680100  75.6463696  51.5217659  27.6245290
  75.4695335  52.9988148  27.9054880  75.0434288  43.2918735  28.7980767
  74.3057045  42.7796121  29.1291010  75.2961062  42.8519117  27.9864044
  74.5434308  54.2003246  28.5029918  74.8357282  54.7608303  27.7842284
  75.0532928  54.4931807  29.2583077  75.1445916  36.0694987  29.3922536
  75.4504792  35.2092351  29.1048452  75.8698520  36.6612607  29.1921530
  61.4370272  46.4725674  27.7804134  61.2394671  45.8795035  27.0555201
  60.8816936  46.1677884  28.4980073  69.4166995  46.3648780  29.8998728
  69.4715605  45.4122617  29.8241204  68.6058197  46.5208219  30.3840026
  70.5658189  50.2928903  21.1377011  70.1277619  49.5764762  20.6782648
  71.3068630  50.5205018  20.5762102  67.3559355  44.9825840  27.6589106
  66.5427221  45.2820011  28.0654299  67.8518349  44.5881529  28.3763589
  69.5067933  54.9783597  29.5923371  69.4644112  55.2044443  28.6631903
  70.4230632  54.7446972  29.7409172  72.9533567  45.4467665  36.4904000
  73.3082955  45.6739138  37.3498466  73.6005698  45.7786041  35.8681256
  78.6831304  48.5686100  27.1953329  78.5449202  48.7587696  26.2674519
  78.3267523  49.3305483  27.6521380  66.8473430  42.5544196  33.2750341
  67.4872809  42.4132955  32.5773305  66.0150961  42.2678709  32.8988943
  78.7100683  50.6362627  32.2064601  79.1437190  50.5437917  33.0547655
  79.4232264  50.6120128  31.5684617  67.6233734  51.8546626  29.3885334
  68.4174332  51.3596946  29.1867909  66.9125426  51.3264489  29.0253039
  72.4428578  54.2364722  33.7397701  72.4965601  54.8055658  34.5075417
  71.5743360  54.4066607  33.3751739  63.9316497  45.9989708  25.4645087
  63.0014085  45.9374163  25.6815049  64.0273969  45.4765660  24.6681728
  63.8502046  42.5244521  28.0523328  64.1108864  43.4389854  27.9432489
  64.6719219  42.0568963  28.2019941  65.3226972  43.9382278  35.2222153
  65.9950025  43.7299640  34.5734802  64.4956758  43.7404364  34.7827385
  79.5716233  50.6786328  34.7397486  79.7652123  51.5832139  34.9856761
  79.4716851  50.2193747  35.5736071  71.2252544  40.5644219  37.2387814
  70.5780459  41.2634168  37.1452290  71.9953559  40.9980363  37.6064062
  74.6331342  50.8293071  40.3138367  74.4816848  50.6003623  39.3968451
  74.6236021  51.7863672  40.3269712  71.4016678  48.4024984  35.2984633
  72.3308738  48.5536143  35.1253601  70.9807708  48.4909004  34.4433280
  70.2005010  52.4275648  33.0683171  70.0616096  52.0594432  33.9409109
  69.4119606  52.9423287  32.8967129  70.7953162  57.5284744  24.4108707
  70.9704918  57.0572788  25.2254330  70.1085950  58.1550511  24.6389968
  71.7510225  51.8057251  30.4572009  71.4160058  51.7658021  31.3529659
  71.2514171  51.1401967  29.9842419  65.7254469  47.2124881  35.9824590
  65.5874267  46.4805120  36.5836129  66.6359392  47.1233781  35.7008778
  74.6869417  49.1513285  20.7309068  74.0698587  48.4260113  20.6342121
  74.2185905  49.9122645  20.3876143  68.3536770  46.9244840  35.4708270
  69.0636388  46.2838032  35.4294888  68.3106078  47.1757735  36.3934450
  76.3423548  53.8612193  38.3914849  76.2836094  53.1771414  37.7245432
  76.7443067  54.6031183  37.9395475  67.0665704  43.9110058  37.2903909
  66.5303061  43.4600796  37.9425505  66.4782412  44.0455967  36.5474373
  65.3614247  60.6774107  31.1848568  65.6010845  61.3092631  31.8627586
  64.5183444  60.3262147  31.4713927  66.4767963  43.3698709  19.8530373
  65.5997429  43.2487510  19.4892619  66.9525716  42.5784788  19.6009261
  76.3440956  51.8251777  36.6228828  75.4567734  51.4877699  36.7455227
  76.9139507  51.0934809  36.8597594  57.9970103  48.1575869  29.9471880
  58.6841143  47.8437599  29.3592895  57.8418231  49.0617234  29.6739131
  62.8004825  43.0466066  34.3756903  62.7163014  42.4391735  33.6407313
  61.9787531  43.5375084  34.3766400  69.8742109  56.4853230  33.5890072
  69.8012280  57.2908201  34.1009376  69.4319502  56.6845195  32.7638093
  69.6631889  55.7225000  27.0992893  68.8799411  56.2646680  27.1931118
  70.3624634  56.2398979  27.4987134  72.9728539  41.5319629  29.7427099
  73.4697238  40.7789591  29.4228169  72.2015520  41.5683946  29.1770308
  80.8258296  47.2359995  31.3845390  80.8148172  48.1184710  31.0139323
  79.9575676  46.8831546  31.1899927  72.3340793  56.3840064  35.7448230
  73.0468765  57.0187529  35.6724132  71.8430821  56.4803930  34.9288232
  74.0558319  50.2891316  27.3165522  73.1214598  50.4092779  27.1470226
  74.2334988  49.3863783  27.0525532  69.5563507  43.6737012  29.4698783
  69.1861295  43.1208053  30.1579689  70.0522600  43.0695146  28.9173783
  77.4430871  46.1308636  27.8515556  77.9091323  46.9636627  27.7775859
  77.8938371  45.6653617  28.5560815  67.3852706  54.1334507  36.5653801
  68.0862166  54.7670990  36.7183195  66.9147821  54.4749239  35.8049440
  75.5107102  52.4752457  24.8501708  75.7866946  52.3609052  25.7595582
  74.6411601  52.0769942  24.8113881  75.4147534  38.4989223  31.8906457
  74.5010613  38.7293449  32.0588664  75.8440635  38.5827667  32.7420490
  75.1853992  46.6879115  34.3906351  74.5325442  46.9355022  33.7358804
  75.5634372  45.8743253  34.0568829  72.1461166  56.7238808  28.4934522
  72.3283560  55.9060464  28.9562274  72.9694152  56.9406500  28.0559412
  72.4803331  55.6506993  25.7549570  73.0091098  55.1399447  25.1419732
  72.7431551  55.3349523  26.6195103  71.2341565  47.4298926  40.8772389
  70.5582202  47.3293055  41.5474764  72.0569199  47.2738139  41.3408386
  62.9820424  53.6670862  33.4984904  63.5673861  52.9214550  33.6312808
  62.7845263  53.9774819  34.3821568  65.8359079  56.7022110  28.5147346
  65.1669455  57.1868237  28.0311386  65.6971949  56.9491330  29.4290725
  57.5738079  46.2376462  32.2189347  57.6122178  45.7040053  33.0126465
  57.0678372  45.7111668  31.6000324  69.9764348  58.7365853  35.1130005
  70.5282656  58.8997475  35.8779090  70.3170541  59.3270291  34.4410029
  64.9528841  41.0841003  35.7151889  65.0170168  41.9455834  35.3029287
  64.8895961  40.4715005  34.9824248  64.4281114  43.1564135  39.3624923
  65.0553152  42.7741213  39.9762448  63.5709033  42.9378337  39.7280616
  74.8275222  53.5627111  40.9678659  75.3715126  54.1757069  40.4733614
  74.2462067  54.1206689  41.4845672  61.2046656  44.9640565  25.2943278
  61.5000098  44.0551243  25.2410332  60.3034692  44.9428304  24.9724281
  73.1132735  56.6847829  32.0993687  72.9883875  55.8837568  31.5904632
  73.7711826  57.1794022  31.6107657  64.7340903  43.0396561  31.2770827
  64.0127489  43.6532529  31.1378300  65.5234159  43.5754326  31.1987473
  75.1767644  54.4856849  33.7273237  74.2297979  54.3662200  33.6551564
  75.5250417  53.5979347  33.8099498  67.5367217  40.3750988  37.5511479
  68.0601619  40.6213284  38.3137788  67.3179550  41.2071022  37.1314616
  62.9334498  42.6454662  25.4182603  62.6047204  41.7652041  25.2357709
  63.2873869  42.5902331  26.3058993  72.1814077  54.2809565  29.9277589
  72.0339039  53.3526272  30.1085159  73.0067570  54.3029656  29.4434664
  66.0476321  42.9327632  25.7858081  66.3872394  43.4613553  25.0636690
  66.4948442  43.2708038  26.5616648  75.7848199  55.1038124  31.0142462
  76.7094746  54.8980985  30.8766913  75.6163502  54.8554525  31.9231803
  68.7419762  41.3164683  35.2361149  68.4016582  40.5172496  35.6381829
  68.0358768  41.6166394  34.6637982  69.3936234  38.4013995  33.6888472
  70.2162303  37.9274473  33.5667363  69.6374297  39.1804479  34.1887159
  68.0344468  41.4302254  23.9851374  68.7552831  41.8083506  23.4815091
  67.4109772  42.1491130  24.0886352  72.1775591  42.1347403  24.9209706
  72.3939206  43.0172040  24.6198534  71.6969658  41.7433616  24.1915348
  66.9174813  45.0933116  31.4980451  66.7719393  45.4073419  32.3904732
  66.4400016  45.7118016  30.9451349  68.7771195  42.0835664  31.5461340
  68.7632764  41.1876757  31.2093638  69.4943624  42.0906328  32.1799626
  70.6297326  42.5173004  33.5914468  70.3715104  43.4390075  33.5898798
  70.0982367  42.1203439  34.2814932  75.5743515  55.6223791  26.3704553
  75.7480392  55.0570214  25.6178406  76.0672406  56.4224686  26.1884043
  61.3920475  47.6338460  34.4368112  60.8473943  48.4098268  34.5688386
  62.2699825  47.9809265  34.2787233  68.1808091  40.9650044  26.8148911
  68.3024003  40.0366690  27.0139798  67.8910134  40.9788730  25.9027226
  71.0499282  38.6504955  29.9515630  71.0720979  38.7144288  28.9967610
  71.4667341  37.8109463  30.1456137  81.4282906  48.3860214  27.9894853
  81.8714052  47.6367539  27.5913976  80.5509416  48.3770350  27.6068585
  76.5618687  54.9390556  23.4701451  77.2569592  55.5597248  23.6888766
  76.9041838  54.0885907  23.7453829  62.1786497  46.7608356  37.3298269
  61.4368233  46.9090992  37.9162899  61.8579241  47.0216622  36.4665018
  78.4610111  52.3890261  24.9988782  78.9861435  52.7277534  24.2738102
  78.3732463  51.4537276  24.8151917  70.1230159  56.3024335  37.1278659
  70.4317286  56.0573481  38.0001358  70.9205641  56.5070973  36.6397529
  70.1450771  58.4562244  29.3584035  69.7055762  57.9638623  30.0516892
  70.8958888  57.9135212  29.1176111  62.6243110  54.6473785  29.3608664
  63.4501130  54.3477557  28.9807307  62.2737162  53.8781408  29.8098452
  67.5924643  54.0000253  31.4306337  66.9704653  53.3370958  31.1308565
  68.2629510  54.0261385  30.7479985  60.8251715  52.5660112  30.3197597
  59.9883624  52.1382286  30.1381598  60.7975361  52.7592555  31.2568388
  67.6649171  42.4782041  41.0238843  67.7137326  43.3544164  40.6416613
  68.2071685  41.9359434  40.4510486  78.1504017  53.0223165  40.3039980
  77.3599560  53.0047304  39.7644480  77.9137371  53.5611458  41.0589017
  78.2701892  49.8715631  37.6172709  78.3199897  49.7065639  38.5588232
  78.1615815  49.0042890  37.2270590  67.1538150  52.5504177  24.9064798
  67.3026271  53.2339641  24.2531470  67.9604594  52.5309267  25.4214253
  75.5605654  45.8546559  38.9332015  76.4615517  45.7153024  38.6416013
  75.6353629  46.0201014  39.8730193  69.8948459  43.2313414  37.7785202
  69.0251769  43.5246980  37.5067790  70.1307940  43.8153859  38.4992465
  79.7720088  52.2912573  37.8614730  79.4804897  52.6542553  38.6978191
  79.1592220  51.5779581  37.6828062  80.9715771  49.8565452  30.3817301
  81.8062662  50.2955256  30.5454861  81.1074900  49.3804106  29.5625546
  78.0207277  47.4145187  36.3294788  78.4961398  47.6072834  35.5213640
  77.0972842  47.4704373  36.0838172  64.9090783  48.5769354  25.9125867
  64.6636825  47.6731684  26.1106077  65.0786698  48.5786505  24.9705345
  72.5987493  39.4493031  35.2950622  73.1169437  40.1854058  34.9697111
  72.2442626  39.7557024  36.1297381  64.1786431  44.3097712  23.4112028
  63.4855676  44.3842067  22.7552064  63.9338183  43.5458056  23.9333545
  72.8500087  35.8693313  30.8151519  73.1301841  35.2016502  31.4411945
  73.6350694  36.0622409  30.3026183  70.6533556  55.0452307  22.3776545
  70.0807523  55.6642494  21.9247017  71.2266350  55.5951669  22.9116467
  76.7208946  44.2910947  34.5623094  77.6726369  44.3909045  34.5835318
  76.5512396  43.4989216  35.0721178  74.7423325  41.3766531  34.7482495
  74.1473257  41.6571543  34.0528983  74.4573022  41.8660431  35.5199236
  73.8730816  55.3289457  23.5085127  74.8061489  55.2635019  23.7118003
  73.7854028  56.1645724  23.0499660  76.5018832  54.6455328  20.4689075
  76.4232464  54.3115191  21.3624833  77.3228499  55.1377096  20.4680547
  79.1997024  47.5117067  33.6765394  79.1673344  46.5733068  33.8625077
  79.8097647  47.5901104  32.9431218  71.0380354  46.3813120  19.7192598
  71.9839459  46.2519328  19.7881016  70.6594599  45.6427782  20.1962026
  79.3491512  44.3028110  33.7223677  78.8330561  43.5186567  33.5353606
  80.2331461  43.9746827  33.8870196  77.0102239  38.0469126  29.6819489
  76.8127060  37.7384214  30.5662821  77.6201944  38.7730765  29.8117419
  85.0173573  48.5733074  32.8171430  85.7476962  48.3118362  33.3779134
  84.4080519  47.8361796  32.8573498  83.0988870  46.7140936  33.4145882
  82.3722034  46.5796901  32.8062373  82.6836157  47.0217765  34.2202600
  70.9219047  50.4330866  41.1793255  71.8422056  50.6109465  41.3733301
  70.8868630  49.4886911  41.0272954  69.2223272  44.3063096  19.6547483
  68.3154727  44.0096209  19.7310196  69.4999253  44.0092914  18.7881769
  60.1401212  45.6269460  30.1046529  59.8203996  44.7734768  29.8120903
  59.5934640  45.8418038  30.8604497  63.9181119  48.3431901  33.8216036
  64.1367129  49.2749009  33.8404070  64.3306893  47.9839875  34.6070840
  70.8385337  38.8499986  25.8091724  70.0286066  38.5047071  26.1846970
  71.5269754  38.5407530  26.3979336  72.7675886  37.9278033  27.4316021
  73.3206924  38.3473486  28.0906044  73.0045972  37.0013781  27.4738977
  68.7908985  43.9165107  43.2118785  68.6905712  44.8659463  43.1430876
  68.5730527  43.5883345  42.3394855  67.9922056  41.1650032  19.7959462
  68.8541220  41.4904930  20.0555279  68.1772400  40.3781527  19.2832528
  60.0089472  49.2472371  32.0739651  59.3152943  48.8326324  31.5609605
  60.7562463  49.2892908  31.4773070  76.1454693  40.0378558  26.9394685
  75.5653362  40.6963362  26.5572737  75.8790625  39.2155903  26.5282102
  74.5958259  39.4383616  29.1416005  75.0958037  39.5500150  28.3330324
  75.2393867  39.1344669  29.7816814  68.6540255  47.3462245  42.0283846
  68.1707337  48.1462605  42.2347735  68.7401194  47.3570190  41.0751290
  61.9226214  49.1790625  29.9505666  61.8996903  49.2778312  28.9987549
  62.2326851  50.0255776  30.2722832  64.5813592  51.2366780  34.0652280
  65.5356846  51.2050722  33.9982212  64.3826116  50.7757404  34.8802506
  65.1712974  49.8067896  36.6323078  65.9905863  50.3011975  36.6557915
  65.4449782  48.8899864  36.6040645  74.9279571  42.1978648  25.9951033
  74.0405426  42.4828299  25.7771228  75.3433560  42.0372412  25.1478310
  78.2794107  42.2225169  29.7105372  79.0554497  42.7121622  29.9829989
  77.5542241  42.6483224  30.1677242  80.7166665  42.9352789  30.7679313
  81.3111156  42.6948525  30.0572621  80.7893249  42.2159919  31.3952849
  62.9363821  56.7786400  31.0822478  62.8018289  56.0186800  30.5160476
  62.5195883  57.5027299  30.6151267  74.0722784  51.9623323  20.0899053
  74.7758634  52.1673326  20.7056709  73.3485433  52.5300085  20.3548137
  74.9020594  47.7133184  26.2101323  74.8455796  48.1701736  25.3708956
  75.4548937  46.9523869  26.0324166  78.7125400  43.5022916  27.0351443
  78.4562335  43.1019552  27.8659651  78.0878268  44.2166710  26.9101582
  83.0237738  46.2418989  29.5422734  82.4637296  46.3112179  30.3154296
  82.4181242  46.0659974  28.8222231  66.0932947  57.6755717  31.2940921
  65.9765331  58.6201149  31.1919611  65.2725393  57.3729278  31.6826720
  75.9809482  52.4005852  22.1397513  76.8155085  51.9687051  21.9574988
  75.8193824  52.2287866  23.0674408  75.6355374  48.9037966  23.5053853
  75.5804177  48.7382237  22.5642297  75.0101429  49.6113999  23.6616042
  60.4247889  44.1406030  37.3315275  61.0706752  43.6304984  37.8202500
  60.2165040  44.8774712  37.9058700  72.9501281  51.2086877  42.8307415
  73.8192441  51.3827530  42.4694050  72.4708032  52.0281294  42.7083145
  68.9451499  38.4046075  23.0839171  68.9330169  39.3487915  23.2407442
  69.8374921  38.2216220  22.7898632  67.1187461  58.3283978  34.5096849
  68.0214708  58.3607589  34.8263344  66.8924831  57.3984429  34.5243185
  68.8741063  57.0814965  31.1706928  67.9236694  57.0816827  31.0571300
  69.1773549  56.3347700  30.6542962  72.7603619  34.9988851  27.3385108
  71.9936014  34.4447338  27.4841790  73.1714324  35.0710720  28.1999259
  64.7645380  41.2873647  41.4290289  65.6276841  40.9310452  41.6393614
  64.1910790  40.9487542  42.1165693  84.6093757  62.9175503  32.2352690
  85.2472167  62.7982251  31.5316030  84.4914600  63.8656347  32.2940642
  81.4183463  62.8702932  32.1714215  81.0801974  62.7543996  31.2834750
  82.2873231  62.4694097  32.1515221  77.2770279  64.7238408  28.1611106
  76.7135144  64.6328345  27.3927393  77.1622674  63.9038312  28.6413598
  81.9003246  64.0237783  38.1300420  81.8891887  63.6290581  37.2580924
  82.0623885  63.2903856  38.7234192  74.8234711  66.2189600  30.9995326
  75.6156002  65.8780424  30.5841625  75.0631361  66.3284575  31.9197479
  82.8569837  68.3909376  23.4725571  82.2057817  68.9763456  23.0859584
  83.6514200  68.9215571  23.5320608  76.7825464  65.4798513  23.8712705
  77.5556340  64.9327500  23.7325581  77.1350863  66.3442762  24.0827166
  78.6210507  66.8074895  37.0779604  78.3300373  67.7120526  36.9626271
  79.2567491  66.8491423  37.7923674  79.5466714  64.1851744  33.6680964
  80.1430286  63.9607766  32.9537927  79.6041685  63.4436489  34.2706412
  79.1191742  61.6391179  21.5031155  79.3717263  61.1172700  20.7414618
  78.1816301  61.4757324  21.6057838  84.1635025  60.6426957  29.3105898
  84.9498114  60.2246380  28.9596315  84.4273729  61.5473049  29.4787546
  84.3345102  66.0799808  24.0094555  83.6990935  66.1534434  24.7215460
  84.0042509  66.6693406  23.3313634  89.5643452  60.5802190  30.2138877
  90.2968624  60.0101407  30.4476706  88.8082808  60.1923791  30.6545382
  78.8388031  63.5419285  23.7055530  78.7224289  62.8664188  24.3736614
  78.9490291  63.0551659  22.8887683  81.1819572  63.0029432  27.4102219
  80.8177779  62.4760053  28.1215141  82.0386688  62.6127901  27.2368704
  87.0868873  54.2923765  34.6733485  86.7552197  55.1619176  34.4494700
  86.4914486  53.9760049  35.3527516  80.8225059  58.0319332  22.4063568
  80.9899461  58.8999568  22.7734039  80.6322228  58.1946613  21.4824857
  83.5800392  66.4936311  34.0729398  83.2801115  67.3961349  33.9645205
  83.2351452  66.2268494  34.9250551  77.0312874  62.9450107  30.1066102
  76.1063370  62.8126321  30.3143794  77.2797287  63.7244327  30.6036045
  86.9797536  59.0118851  31.7526835  86.0714413  58.9434259  31.4585596
  86.9285132  59.4890796  32.5808661  80.8014280  60.4876989  23.3910234
  80.6813905  60.9334040  24.2295715  80.1066868  60.8362307  22.8323773
  74.3921685  62.5883381  30.9409891  74.5214066  62.8417860  31.8549303
  73.7119136  63.1811089  30.6214546  78.5621172  73.2580631  27.0400366
  78.4845202  74.2088456  27.1188846  77.9582815  72.9126503  27.6975292
  81.0538402  60.4308496  39.6961733  80.2771736  60.9902416  39.6864597
  81.6928965  60.9165279  40.2176603  88.8459182  57.2135289  33.5304709
  88.2033563  57.5067822  32.8844504  88.3414111  57.0988209  34.3357906
  86.4999346  60.9598462  24.2190568  87.4117202  61.1925849  24.0438266
  85.9908993  61.5435507  23.6565647  79.3084774  63.2393950  39.2579700
  80.0499458  63.7778994  38.9814523  78.6021759  63.8660238  39.4151251
  84.7840114  65.3823090  37.8551861  85.1923470  64.9405501  37.1106493
  84.0617375  64.8075718  38.1086054  81.1371184  60.3195697  35.2285418
  81.9832379  60.7435110  35.3720067  81.0769821  59.6629321  35.9223981
  85.1068928  65.9424281  31.6104150  84.4777791  66.1069995  30.9080218
  84.7194590  66.3565890  32.3815114  88.9858160  66.8778719  28.9648514
  88.3009198  67.2577620  28.4145547  89.0702009  67.4874045  29.6980461
  84.2870629  57.9800065  36.8866592  84.0431561  58.7342126  36.3500867
  84.5630560  58.3585413  37.7213839  86.2409092  64.5238678  35.5643857
  86.4525987  65.1670438  34.8878238  86.1938840  63.6900994  35.0965787
  83.8435321  57.1356498  32.4680429  82.9819800  57.4337752  32.7597167
  83.8697755  57.3526897  31.5361462  80.6596890  65.6798689  28.8754235
  81.1235236  65.9586392  28.0858857  80.3953688  64.7782133  28.6927326
  77.5520971  65.2270170  31.8133998  78.1222328  65.6557439  31.1751483
  78.1429083  64.9452755  32.5118184  79.5965776  61.8021841  25.6843800
  80.2989820  62.2542885  26.1517726  79.2646405  61.1605660  26.3123693
  78.0446138  60.3933598  40.0595010  77.4144798  61.0749879  40.2930406
  77.9382226  60.2816679  39.1148148  73.3391110  60.0605394  30.9860934
  72.5490164  60.3162922  30.5101044  73.8302358  60.8753732  31.0912974
  87.3554920  67.4010633  33.7366215  88.1772363  66.9990820  33.4548896
  87.3517323  67.2978867  34.6882330  75.2905856  60.4249973  27.9444410
  74.4937019  60.5368667  28.4627906  75.0631448  60.7636625  27.0785301
  81.1211523  66.9494676  35.8926925  81.1855956  67.4115084  36.7285097
  80.4122447  66.3192041  36.0209235  71.6228813  60.3135884  33.4175924
  71.8736852  61.1982894  33.6833500  72.1588362  60.1340486  32.6451016
  95.4460913  63.7449382  30.0851186  94.6924621  63.1756780  29.9295190
  95.5808454  63.7112046  31.0321821  80.8359541  68.6162784  25.7605905
  80.7005216  69.4614320  26.1890753  81.3769353  68.8182061  24.9971839
  74.2888938  66.1338222  26.3333830  74.8013459  66.9281472  26.4839395
  74.9411651  65.4364512  26.2667432  76.0983823  69.2503978  28.4156584
  76.2750451  70.1721943  28.2277568  76.8940656  68.9362397  28.8450963
  80.2394841  56.1112243  40.0140517  80.9804555  56.7119396  39.9344980
  80.4712764  55.3689881  39.4558560  75.3836179  61.2968610  38.2918747
  75.2689695  60.3953867  38.5925846  74.5280697  61.5432307  37.9403563
  82.4628017  69.2386350  39.8906247  82.0191871  68.4522729  39.5727152
  83.1245231  69.4265501  39.2250138  77.2215138  70.7682152  34.4166926
  77.7722564  70.6399215  33.6443920  76.3826614  71.0677041  34.0661819
  84.5609255  69.5189150  37.9187649  84.5427731  70.3398031  37.4267918
  85.4829175  69.3943226  38.1437790  81.0182309  67.0333280  38.7611157
  81.5510646  66.2721568  38.5310465  80.4896391  66.7406932  39.5035312
  84.1852004  52.1393346  34.2904799  83.8416274  53.0294987  34.2143909
  84.5530967  51.9495003  33.4274384  72.2537855  64.4626876  27.1093401
  73.0913077  64.8723885  26.8927109  72.4316123  63.5226318  27.0793595
  84.1502287  62.1301957  22.7977234  83.6348911  62.9006561  23.0365621
  83.8779596  61.4567093  23.4210295  81.7349398  56.9751658  27.8562472
  80.8790994  56.5858508  27.6768111  82.1476350  57.0543618  26.9962258
  83.2648545  54.5098001  32.2554032  82.7613340  54.4728136  31.4421837
  83.5579152  55.4190744  32.3150689  79.5091431  54.5936731  31.2620214
  80.3744427  54.3979539  30.9026103  79.5768940  54.3647082  32.1889571
  89.1236561  64.8834311  24.7330407  88.3466004  64.5445471  24.2885569
  89.8028042  64.8886935  24.0585372  83.9388590  60.0029049  24.6237015
  83.6338726  60.3175198  25.4747158  84.8919032  60.0810469  24.6664348
  82.3835022  66.1619272  26.2729969  81.8556384  65.4272032  25.9603207
  81.8822525  66.9393949  26.0269937  87.3627868  64.3568293  31.3897015
  86.7051543  65.0467554  31.4777144  88.1668267  64.7464725  31.7331002
  77.1153750  56.8238939  28.6336581  77.6897502  56.6014120  27.9009774
  77.7024732  56.8927633  29.3865182  86.1733327  62.7112665  29.4400957
  86.6865209  63.3442657  29.9422667  86.8234551  62.1113861  29.0744317
  77.4423337  58.8543400  22.6532466  76.6060649  59.1918086  22.9741741
  77.3028106  58.7192379  21.7159603  79.4176417  53.6980187  27.3611650
  78.7640830  53.3829205  26.7368265  79.3756892  53.0755928  28.0871473
  80.5287622  63.9799483  19.2764942  79.6214684  63.7488736  19.4756091
  81.0258654  63.1837102  19.4638924  83.4355701  72.6896990  22.1961628
  82.7617400  72.9928686  22.8046586  83.8221523  73.4926070  21.8467085
  82.6514158  60.1862121  31.6859298  81.7336719  60.4077068  31.5280986
  83.0674301  60.2608431  30.8271005  83.4349206  61.5853537  26.8161978
  84.1821025  62.0974934  26.5069100  83.7040795  61.2637589  27.6766371
  81.7075856  64.0812077  23.7988932  80.7987075  63.7971110  23.8961402
  81.7370940  64.5011156  22.9392239  86.9395123  67.6918667  27.5680100
  86.4857450  66.8509577  27.6245290  86.3089090  68.3280065  27.9054880
  85.8828043  58.6210653  28.7980767  85.1450800  58.1088039  29.1291010
  86.1354816  58.1811035  27.9864044  85.3828062  69.5295164  28.5029918
  85.6751037  70.0900221  27.7842284  85.8926683  69.8223725  29.2583077
  85.9839670  51.3986905  29.3922536  86.2898547  50.5384268  29.1048452
  86.7092275  51.9904525  29.1921530  72.2764026  61.8017592  27.7804134
  72.0788426  61.2086952  27.0555201  71.7210690  61.4969802  28.4980073
  80.2560750  61.6940698  29.8998728  80.3109360  60.7414534  29.8241204
  79.4451952  61.8500137  30.3840026  81.4051944  65.6220821  21.1377011
  80.9671373  64.9056680  20.6782648  82.1462384  65.8496936  20.5762102
  78.1953110  60.3117758  27.6589106  77.3820975  60.6111928  28.0654299
  78.6912104  59.9173447  28.3763589  80.3461688  70.3075515  29.5923371
  80.3037866  70.5336361  28.6631903  81.2624386  70.0738889  29.7409172
  83.7927321  60.7759582  36.4904000  84.1476709  61.0031055  37.3498466
  84.4399453  61.1077959  35.8681256  89.5225058  63.8978018  27.1953329
  89.3842957  64.0879614  26.2674519  89.1661277  64.6597401  27.6521380
  77.6867184  57.8836113  33.2750341  78.3266564  57.7424872  32.5773305
  76.8544715  57.5970627  32.8988943  89.5494438  65.9654545  32.2064601
  89.9830945  65.8729834  33.0547655  90.2626019  65.9412046  31.5684617
  78.4627488  67.1838544  29.3885334  79.2568087  66.6888864  29.1867909
  77.7519181  66.6556407  29.0253039  83.2822333  69.5656639  33.7397701
  83.3359355  70.1347576  34.5075417  82.4137114  69.7358524  33.3751739
  74.7710252  61.3281625  25.4645087  73.8407840  61.2666081  25.6815049
  74.8667724  60.8057578  24.6681728  74.6895801  57.8536438  28.0523328
  74.9502618  58.7681771  27.9432489  75.5112973  57.3860881  28.2019941
  76.1620726  59.2674195  35.2222153  76.8343780  59.0591558  34.5734802
  75.3350513  59.0696281  34.7827385  90.4109988  66.0078246  34.7397486
  90.6045878  66.9124056  34.9856761  90.3110606  65.5485665  35.5736071
  82.0646298  55.8936136  37.2387814  81.4174213  56.5926086  37.1452290
  82.8347314  56.3272280  37.6064062  85.4725096  66.1584989  40.3138367
  85.3210603  65.9295540  39.3968451  85.4629776  67.1155590  40.3269712
  82.2410433  63.7316901  35.2984633  83.1702493  63.8828061  35.1253601
  81.8201463  63.8200922  34.4433280  81.0398764  67.7567566  33.0683171
  80.9009850  67.3886350  33.9409109  80.2513361  68.2715205  32.8967129
  81.6346916  72.8576662  24.4108707  81.8098672  72.3864705  25.2254330
  80.9479704  73.4842428  24.6389968  82.5903980  67.1349168  30.4572009
  82.2553812  67.0949938  31.3529659  82.0907925  66.4693884  29.9842419
  76.5648223  62.5416798  35.9824590  76.4268021  61.8097037  36.5836129
  77.4753147  62.4525698  35.7008778  85.5263171  64.4805203  20.7309068
  84.9092342  63.7552031  20.6342121  85.0579660  65.2414563  20.3876143
  79.1930524  62.2536758  35.4708270  79.9030143  61.6129950  35.4294888
  79.1499832  62.5049653  36.3934450  87.1817303  69.1904111  38.3914849
  87.1229849  68.5063331  37.7245432  87.5836821  69.9323101  37.9395475
  77.9059458  59.2401976  37.2903909  77.3696815  58.7892714  37.9425505
  77.3176167  59.3747884  36.5474373  76.2008002  76.0066025  31.1848568
  76.4404600  76.6384549  31.8627586  75.3577198  75.6554065  31.4713927
  77.3161717  58.6990627  19.8530373  76.4391183  58.5779428  19.4892619
  77.7919470  57.9076705  19.6009261  87.1834710  67.1543695  36.6228828
  86.2961489  66.8169617  36.7455227  87.7533261  66.4226726  36.8597594
  68.8363857  63.4867787  29.9471880  69.5234897  63.1729517  29.3592895
  68.6811986  64.3909151  29.6739131  73.6398579  58.3757983  34.3756903
  73.5556768  57.7683653  33.6407313  72.8181286  58.8667002  34.3766400
  80.7135863  71.8145147  33.5890072  80.6406035  72.6200119  34.1009376
  80.2713257  72.0137113  32.7638093  80.5025643  71.0516917  27.0992893
  79.7193165  71.5938598  27.1931118  81.2018388  71.5690897  27.4987134
  83.8122293  56.8611547  29.7427099  84.3090993  56.1081509  29.4228169
  83.0409275  56.8975863  29.1770308  91.6652051  62.5651912  31.3845390
  91.6541927  63.4476628  31.0139323  90.7969430  62.2123463  31.1899927
  83.1734547  71.7131981  35.7448230  83.8862519  72.3479446  35.6724132
  82.6824576  71.8095847  34.9288232  84.8952074  65.6183234  27.3165522
  83.9608353  65.7384697  27.1470226  85.0728742  64.7155701  27.0525532
  80.3957262  59.0028930  29.4698783  80.0255050  58.4499970  30.1579689
  80.8916354  58.3987063  28.9173783  88.2824625  61.4600553  27.8515556
  88.7485077  62.2928545  27.7775859  88.7332126  60.9945535  28.5560815
  78.2246461  69.4626425  36.5653801  78.9255920  70.0962908  36.7183195
  77.7541576  69.8041156  35.8049440  86.3500856  67.8044375  24.8501708
  86.6260700  67.6900969  25.7595582  85.4805355  67.4061859  24.8113881
  86.2541288  53.8281140  31.8906457  85.3404368  54.0585367  32.0588664
  86.6834389  53.9119584  32.7420490  86.0247747  62.0171032  34.3906351
  85.3719197  62.2646940  33.7358804  86.4028126  61.2035170  34.0568829
  82.9854920  72.0530725  28.4934522  83.1677315  71.2352381  28.9562274
  83.8087906  72.2698418  28.0559412  83.3197086  70.9798911  25.7549570
  83.8484852  70.4691365  25.1419732  83.5825305  70.6641441  26.6195103
  82.0735320  62.7590843  40.8772389  81.3975957  62.6584973  41.5474764
  82.8962953  62.6030057  41.3408386  73.8214179  68.9962780  33.4984904
  74.4067615  68.2506468  33.6312808  73.6239017  69.3066737  34.3821568
  76.6752834  72.0314027  28.5147346  76.0063209  72.5160155  28.0311386
  76.5365704  72.2783248  29.4290725  68.4131833  61.5668380  32.2189347
  68.4515933  61.0331971  33.0126465  67.9072126  61.0403586  31.6000324
  80.8158102  74.0657771  35.1130005  81.3676410  74.2289392  35.8779090
  81.1564296  74.6562209  34.4410029  75.7922596  56.4132921  35.7151889
  75.8563922  57.2747751  35.3029287  75.7289716  55.8006922  34.9824248
  75.2674868  58.4856053  39.3624923  75.8946907  58.1033130  39.9762448
  74.4102787  58.2670255  39.7280616  85.6668977  68.8919028  40.9678659
  86.2108881  69.5048987  40.4733614  85.0855822  69.4498607  41.4845672
  72.0440411  60.2932482  25.2943278  72.3393852  59.3843161  25.2410332
  71.1428447  60.2720222  24.9724281  83.9526490  72.0139746  32.0993687
  83.8277629  71.2129486  31.5904632  84.6105581  72.5085940  31.6107657
  75.5734658  58.3688479  31.2770827  74.8521244  58.9824447  31.1378300
  76.3627914  58.9046244  31.1987473  86.0161398  69.8148766  33.7273237
  85.0691734  69.6954118  33.6551564  86.3644171  68.9271264  33.8099498
  78.3760971  55.7042905  37.5511479  78.8995373  55.9505202  38.3137788
  78.1573305  56.5362940  37.1314616  73.7728253  57.9746580  25.4182603
  73.4440959  57.0943959  25.2357709  74.1267623  57.9194249  26.3058993
  83.0207831  69.6101483  29.9277589  82.8732794  68.6818190  30.1085159
  83.8461325  69.6321573  29.4434664  76.8870076  58.2619550  25.7858081
  77.2266148  58.7905471  25.0636690  77.3342196  58.5999956  26.5616648
  86.6241953  70.4330041  31.0142462  87.5488501  70.2272903  30.8766913
  86.4557257  70.1846443  31.9231803  79.5813516  56.6456600  35.2361149
  79.2410337  55.8464413  35.6381829  78.8752523  56.9458311  34.6637982
  80.2329988  53.7305913  33.6888472  81.0556058  53.2566391  33.5667363
  80.4768052  54.5096397  34.1887159  78.8738223  56.7594171  23.9851374
  79.5946585  57.1375424  23.4815091  78.2503527  57.4783048  24.0886352
  83.0169346  57.4639320  24.9209706  83.2332960  58.3463958  24.6198534
  82.5363413  57.0725534  24.1915348  77.7568567  60.4225033  31.4980451
  77.6113148  60.7365337  32.3904732  77.2793771  61.0409934  30.9451349
  79.6164950  57.4127581  31.5461340  79.6026519  56.5168675  31.2093638
  80.3337378  57.4198245  32.1799626  81.4691081  57.8464922  33.5914468
  81.2108858  58.7681992  33.5898798  80.9376121  57.4495356  34.2814932
  86.4137269  70.9515709  26.3704553  86.5874147  70.3862131  25.6178406
  86.9066161  71.7516604  26.1884043  72.2314229  62.9630378  34.4368112
  71.6867697  63.7390186  34.5688386  73.1093579  63.3101182  34.2787233
  79.0201846  56.2941962  26.8148911  79.1417757  55.3658608  27.0139798
  78.7303888  56.3080648  25.9027226  81.8893036  53.9796872  29.9515630
  81.9114733  54.0436205  28.9967610  82.3061095  53.1401381  30.1456137
  92.2676661  63.7152132  27.9894853  92.7107807  62.9659457  27.5913976
  91.3903171  63.7062268  27.6068585  87.4012442  70.2682473  23.4701451
  88.0963347  70.8889166  23.6888766  87.7435592  69.4177824  23.7453829
  73.0180251  62.0900274  37.3298269  72.2761987  62.2382910  37.9162899
  72.6972995  62.3508540  36.4665018  89.3003865  67.7182179  24.9988782
  89.8255189  68.0569451  24.2738102  89.2126218  66.7829194  24.8151917
  80.9623914  71.6316252  37.1278659  81.2711040  71.3865399  38.0001358
  81.7599396  71.8362891  36.6397529  80.9844526  73.7854162  29.3584035
  80.5449516  73.2930541  30.0516892  81.7352643  73.2427130  29.1176111
  73.4636865  69.9765703  29.3608664  74.2894885  69.6769475  28.9807307
  73.1130917  69.2073325  29.8098452  78.4318398  69.3292171  31.4306337
  77.8098407  68.6662876  31.1308565  79.1023265  69.3553303  30.7479985
  71.6645470  67.8952029  30.3197597  70.8277378  67.4674204  30.1381598
  71.6369115  68.0884473  31.2568388  78.5042925  57.8073959  41.0238843
  78.5531081  58.6836082  40.6416613  79.0465440  57.2651352  40.4510486
  88.9897771  68.3515082  40.3039980  88.1993315  68.3339221  39.7644480
  88.7531126  68.8903376  41.0589017  89.1095646  65.2007549  37.6172709
  89.1593651  65.0357556  38.5588232  89.0009569  64.3334808  37.2270590
  77.9931905  67.8796094  24.9064798  78.1420025  68.5631559  24.2531470
  78.7998348  67.8601184  25.4214253  86.3999409  61.1838477  38.9332015
  87.3009271  61.0444942  38.6416013  86.4747383  61.3492932  39.8730193
  80.7342214  58.5605332  37.7785202  79.8645523  58.8538898  37.5067790
  80.9701694  59.1445777  38.4992465  90.6113843  67.6204490  37.8614730
  90.3198651  67.9834471  38.6978191  89.9985974  66.9071499  37.6828062
  91.8109525  65.1857370  30.3817301  92.6456417  65.6247174  30.5454861
  91.9468654  64.7096023  29.5625546  88.8601031  62.7437105  36.3294788
  89.3355153  62.9364751  35.5213640  87.9366597  62.7996291  36.0838172
  75.7484538  63.9061272  25.9125867  75.5030580  63.0023602  26.1106077
  75.9180452  63.9078423  24.9705345  83.4381248  54.7784948  35.2950622
  83.9563192  55.5145975  34.9697111  83.0836380  55.0848942  36.1297381
  75.0180185  59.6389630  23.4112028  74.3249430  59.7133985  22.7552064
  74.7731937  58.8749973  23.9333545  83.6893842  51.1985231  30.8151519
  83.9695596  50.5308420  31.4411945  84.4744449  51.3914327  30.3026183
  81.4927310  70.3744225  22.3776545  80.9201277  70.9934412  21.9247017
  82.0660104  70.9243587  22.9116467  87.5602700  59.6202865  34.5623094
  88.5120123  59.7200963  34.5835318  87.3906151  58.8281134  35.0721178
  85.5817080  56.7058448  34.7482495  84.9867012  56.9863461  34.0528983
  85.2966776  57.1952349  35.5199236  84.7124570  70.6581375  23.5085127
  85.6455243  70.5926937  23.7118003  84.6247783  71.4937642  23.0499660
  87.3412587  69.9747245  20.4689075  87.2626218  69.6407109  21.3624833
  88.1622254  70.4669013  20.4680547  90.0390778  62.8408985  33.6765394
  90.0067098  61.9024985  33.8625077  90.6491402  62.9193021  32.9431218
  81.8774109  61.7105038  19.7192598  82.8233214  61.5811246  19.7881016
  81.4988354  60.9719700  20.1962026  90.1885266  59.6320028  33.7223677
  89.6724315  58.8478485  33.5353606  91.0725215  59.3038745  33.8870196
  87.8495993  53.3761044  29.6819489  87.6520815  53.0676132  30.5662821
  88.4595699  54.1022683  29.8117419  95.8567328  63.9024992  32.8171430
  96.5870716  63.6410280  33.3779134  95.2474273  63.1653713  32.8573498
  93.9382625  62.0432854  33.4145882  93.2115789  61.9088819  32.8062373
  93.5229912  62.3509683  34.2202600  81.7612801  65.7622784  41.1793255
  82.6815811  65.9401383  41.3733301  81.7262384  64.8178829  41.0272954
  80.0617026  59.6355014  19.6547483  79.1548481  59.3388127  19.7310196
  80.3393007  59.3384832  18.7881769  70.9794966  60.9561377  30.1046529
  70.6597751  60.1026686  29.8120903  70.4328395  61.1709956  30.8604497
  74.7574874  63.6723818  33.8216036  74.9760884  64.6040926  33.8404070
  75.1700648  63.3131793  34.6070840  81.6779092  54.1791904  25.8091724
  80.8679820  53.8338989  26.1846970  82.3663509  53.8699447  26.3979336
  83.6069640  53.2569951  27.4316021  84.1600679  53.6765404  28.0906044
  83.8439726  52.3305699  27.4738977  79.6302739  59.2457024  43.2118785
  79.5299466  60.1951381  43.1430876  79.4124281  58.9175263  42.3394855
  78.8315811  56.4941949  19.7959462  79.6934975  56.8196848  20.0555279
  79.0166155  55.7073445  19.2832528  70.8483226  64.5764289  32.0739651
  70.1546698  64.1618242  31.5609605  71.5956217  64.6184825  31.4773070
  86.9848447  55.3670476  26.9394685  86.4047116  56.0255280  26.5572737
  86.7184380  54.5447820  26.5282102  85.4352013  54.7675533  29.1416005
  85.9351792  54.8792068  28.3330324  86.0787621  54.4636586  29.7816814
  79.4934009  62.6754163  42.0283846  79.0101091  63.4754523  42.2347735
  79.5794948  62.6862108  41.0751290  72.7619969  64.5082543  29.9505666
  72.7390657  64.6070230  28.9987549  73.0720605  65.3547694  30.2722832
  75.4207347  66.5658698  34.0652280  76.3750600  66.5342640  33.9982212
  75.2219870  66.1049321  34.8802506  76.0106729  65.1359814  36.6323078
  76.8299618  65.6303892  36.6557915  76.2843537  64.2191782  36.6040645
  85.7673325  57.5270566  25.9951033  84.8799180  57.8120217  25.7771228
  86.1827314  57.3664329  25.1478310  89.1187861  57.5517087  29.7105372
  89.8948251  58.0413540  29.9829989  88.3935995  57.9775141  30.1677242
  91.5560420  58.2644706  30.7679313  92.1504911  58.0240442  30.0572621
  91.6287004  57.5451837  31.3952849  73.7757576  72.1078317  31.0822478
  73.6412044  71.3478718  30.5160476  73.3589638  72.8319217  30.6151267
  84.9116539  67.2915241  20.0899053  85.6152389  67.4965243  20.7056709
  84.1879187  67.8592003  20.3548137  85.7414349  63.0425102  26.2101323
  85.6849550  63.4993653  25.3708956  86.2942691  62.2815787  26.0324166
  89.5519155  58.8314834  27.0351443  89.2956089  58.4311470  27.8659651
  88.9272023  59.5458628  26.9101582  93.8631493  61.5710907  29.5422734
  93.3031051  61.6404096  30.3154296  93.2574996  61.3951892  28.8222231
  76.9326701  73.0047634  31.2940921  76.8159086  73.9493067  31.1919611
  76.1119148  72.7021196  31.6826720  86.8203236  67.7297770  22.1397513
  87.6548840  67.2978968  21.9574988  86.6587579  67.5579784  23.0674408
  86.4749128  64.2329883  23.5053853  86.4197932  64.0674155  22.5642297
  85.8495183  64.9405916  23.6616042  71.2641643  59.4697948  37.3315275
  71.9100507  58.9596902  37.8202500  71.0558794  60.2066629  37.9058700
  83.7895035  66.5378795  42.8307415  84.6586195  66.7119447  42.4694050
  83.3101787  67.3573212  42.7083145  79.7845254  53.7337992  23.0839171
  79.7723923  54.6779832  23.2407442  80.6768676  53.5508138  22.7898632
  77.9581216  73.6575896  34.5096849  78.8608462  73.6899506  34.8263344
  77.7318586  72.7276347  34.5243185  79.7134818  72.4106883  31.1706928
  78.7630449  72.4108744  31.0571300  80.0167304  71.6639617  30.6542962
  83.5997373  50.3280769  27.3385108  82.8329769  49.7739256  27.4841790
  84.0108078  50.4002638  28.1999259  95.4487511  78.2467421  32.2352690
  96.0865921  78.1274168  31.5316030  95.3308354  79.1948265  32.2940642
  92.2577217  78.1994849  32.1714215  91.9195729  78.0835914  31.2834750
  93.1266986  77.7986014  32.1515221  88.1164033  80.0530326  28.1611106
  87.5528898  79.9620263  27.3927393  88.0016428  79.2330230  28.6413598
  92.7397000  79.3529701  38.1300420  92.7285641  78.9582499  37.2580924
  92.9017640  78.6195774  38.7234192  85.6628465  81.5481517  30.9995326
  86.4549757  81.2072342  30.5841625  85.9025115  81.6576492  31.9197479
  93.6963592  83.7201293  23.4725571  93.0451572  84.3055374  23.0859584
  94.4907955  84.2507488  23.5320608  87.6219219  80.8090430  23.8712705
  88.3950095  80.2619418  23.7325581  87.9744618  81.6734680  24.0827166
  90.3860468  79.5143661  33.6680964  90.9824041  79.2899684  32.9537927
  90.4435440  78.7728407  34.2706412  89.9585497  76.9683097  21.5031155
  90.2111017  76.4464618  20.7414618  89.0210056  76.8049242  21.6057838
  95.0028780  75.9718875  29.3105898  95.7891869  75.5538298  28.9596315
  95.2667484  76.8764967  29.4787546  95.1738857  81.4091725  24.0094555
  94.5384690  81.4826352  24.7215460  94.8436263  81.9985324  23.3313634
 100.4037207  75.9094108  30.2138877 101.1362379  75.3393325  30.4476706
  99.6476562  75.5215709  30.6545382  89.6781786  78.8711203  23.7055530
  89.5618044  78.1956106  24.3736614  89.7884045  78.3843576  22.8887683
  92.0213326  78.3321350  27.4102219  91.6571534  77.8051971  28.1215141
  92.8780442  77.9419819  27.2368704  97.9262627  69.6215682  34.6733485
  97.5945952  70.4911093  34.4494700  97.3308240  69.3051966  35.3527516
  91.6618813  73.3611249  22.4063568  91.8293216  74.2291486  22.7734039
  91.4715982  73.5238531  21.4824857  94.4194147  81.8228228  34.0729398
  94.1194870  82.7253267  33.9645205  94.0745206  81.5560411  34.9250551
  87.8706628  78.2742025  30.1066102  86.9457125  78.1418239  30.3143794
  88.1191041  79.0536244  30.6036045  97.8191290  74.3410768  31.7526835
  96.9108168  74.2726177  31.4585596  97.7678886  74.8182713  32.5808661
  91.6408034  75.8168907  23.3910234  91.5207659  76.2625958  24.2295715
  90.9460623  76.1654224  22.8323773  85.2315439  77.9175299  30.9409891
  85.3607820  78.1709778  31.8549303  84.5512890  78.5103007  30.6214546
  89.4014926  88.5872549  27.0400366  89.3238956  89.5380374  27.1188846
  88.7976570  88.2418421  27.6975292  91.8932156  75.7600414  39.6961733
  91.1165490  76.3194334  39.6864597  92.5322719  76.2457197  40.2176603
  99.6852937  72.5427207  33.5304709  99.0427317  72.8359740  32.8844504
  99.1807865  72.4280127  34.3357906  97.3393100  76.2890380  24.2190568
  98.2510957  76.5217767  24.0438266  96.8302748  76.8727424  23.6565647
  90.1478528  78.5685867  39.2579700  90.8893213  79.1070911  38.9814523
  89.4415514  79.1952156  39.4151251  91.9764938  75.6487615  35.2285418
  92.8226133  76.0727028  35.3720067  91.9163576  74.9921239  35.9223981
  95.9462683  81.2716198  31.6104150  95.3171545  81.4361913  30.9080218
  95.5588345  81.6857808  32.3815114  99.8251915  82.2070636  28.9648514
  99.1402953  82.5869538  28.4145547  99.9095764  82.8165963  29.6980461
  95.1264383  73.3091983  36.8866592  94.8825315  74.0634043  36.3500867
  95.4024314  73.6877331  37.7213839  97.0802846  79.8530595  35.5643857
  97.2919742  80.4962355  34.8878238  97.0332595  79.0192912  35.0965787
  94.6829075  72.4648416  32.4680429  93.8213554  72.7629670  32.7597167
  94.7091510  72.6818815  31.5361462  91.4990645  81.0090607  28.8754235
  91.9628990  81.2878310  28.0858857  91.2347443  80.1074051  28.6927326
  88.3914726  80.5562088  31.8133998  88.9616083  80.9849356  31.1751483
  88.9822838  80.2744673  32.5118184  90.4359531  77.1313759  25.6843800
  91.1383574  77.5834803  26.1517726  90.1040159  76.4897578  26.3123693
  88.8839892  75.7225516  40.0595010  88.2538553  76.4041796  40.2930406
  88.7775980  75.6108597  39.1148148  84.1784865  75.3897312  30.9860934
  83.3883919  75.6454840  30.5101044  84.6696112  76.2045649  31.0912974
  98.1948674  82.7302551  33.7366215  99.0166118  82.3282738  33.4548896
  98.1911077  82.6270785  34.6882330  86.1299610  75.7541891  27.9444410
  85.3330773  75.8660585  28.4627906  85.9025202  76.0928543  27.0785301
  91.9605278  82.2786594  35.8926925  92.0249710  82.7407001  36.7285097
  91.2516202  81.6483959  36.0209235  82.4622568  75.6427802  33.4175924
  82.7130606  76.5274812  33.6833500  82.9982116  75.4632404  32.6451016
 106.2854667  79.0741299  30.0851186 105.5318376  78.5048697  29.9295190
 106.4202208  79.0403964  31.0321821  91.6753295  83.9454702  25.7605905
  91.5398970  84.7906237  26.1890753  92.2163108  84.1473979  24.9971839
  88.1620635  70.0246281  42.4220261  87.7687581  69.4712480  43.0967905
  88.9786775  70.3356860  42.8126778  85.1282693  81.4630140  26.3333830
  85.6407213  82.2573390  26.4839395  85.7805406  80.7656430  26.2667432
  86.9377577  84.5795896  28.4156584  87.1144206  85.5013861  28.2277568
  87.7334411  84.2654315  28.8450963  91.0788596  71.4404160  40.0140517
  91.8198309  72.0411314  39.9344980  91.3106519  70.6981798  39.4558560
  86.2229934  76.6260528  38.2918747  86.1083449  75.7245785  38.5925846
  85.3674452  76.8724224  37.9403563  91.8576064  82.3625197  38.7611157
  92.3904401  81.6013486  38.5310465  91.3290145  82.0698849  39.5035312
  95.0245759  67.4685263  34.2904799  94.6810028  68.3586905  34.2143909
  95.3924721  67.2786921  33.4274384  83.0931609  79.7918794  27.1093401
  83.9306831  80.2015802  26.8927109  83.2709877  78.8518236  27.0793595
  94.9896042  77.4593875  22.7977234  94.4742665  78.2298479  23.0365621
  94.7173350  76.7859011  23.4210295  92.5743153  72.3043575  27.8562472
  91.7184749  71.9150426  27.6768111  92.9870104  72.3835536  26.9962258
  94.1042299  69.8389919  32.2554032  93.6007095  69.8020054  31.4421837
  94.3972906  70.7482661  32.3150689  90.3485185  69.9228648  31.2620214
  91.2138182  69.7271457  30.9026103  90.4162694  69.6939000  32.1889571
  99.9630316  80.2126229  24.7330407  99.1859759  79.8737389  24.2885569
 100.6421797  80.2178852  24.0585372  94.7782345  75.3320967  24.6237015
  94.4732480  75.6467116  25.4747158  95.7312787  75.4102387  24.6664348
  93.2228777  81.4911190  26.2729969  92.6950138  80.7563950  25.9603207
  92.7216279  82.2685866  26.0269937  98.2021623  79.6860210  31.3897015
  97.5445297  80.3759472  31.4777144  99.0062022  80.0756642  31.7331002
  87.9547504  72.1530856  28.6336581  88.5291256  71.9306038  27.9009774
  88.5418487  72.2219551  29.3865182  97.0127081  78.0404583  29.4400957
  97.5258963  78.6734575  29.9422667  97.6628305  77.4405779  29.0744317
  88.2817091  74.1835317  22.6532466  87.4454404  74.5210004  22.9741741
  88.1421861  74.0484297  21.7159603  90.2570172  69.0272105  27.3611650
  89.6034584  68.7121122  26.7368265  90.2150646  68.4047846  28.0871473
  91.3681377  79.3091400  19.2764942  90.4608439  79.0780654  19.4756091
  91.8652409  78.5129019  19.4638924  94.2749456  88.0188907  22.1961628
  93.6011154  88.3220604  22.8046586  94.6615278  88.8217988  21.8467085
  93.4907912  75.5154039  31.6859298  92.5730474  75.7368986  31.5280986
  93.9068056  75.5900349  30.8271005  94.2742960  76.9145454  26.8161978
  95.0214779  77.4266852  26.5069100  94.5434550  76.5929507  27.6766371
  92.5469610  79.4103995  23.7988932  91.6380829  79.1263028  23.8961402
  92.5764694  79.8303074  22.9392239  97.7788878  83.0210585  27.5680100
  97.3251205  82.1801494  27.6245290  97.1482844  83.6571983  27.9054880
  96.7221797  73.9502571  28.7980767  95.9844554  73.4379957  29.1291010
  96.9748571  73.5102952  27.9864044  96.2221817  84.8587081  28.5029918
  96.5144791  85.4192138  27.7842284  96.7320437  85.1515642  29.2583077
  96.8233425  66.7278823  29.3922536  97.1292301  65.8676186  29.1048452
  97.5486029  67.3196443  29.1921530  83.1157781  77.1309509  27.7804134
  82.9182180  76.5378870  27.0555201  82.5604445  76.8261719  28.4980073
  91.0954504  77.0232616  29.8998728  91.1503114  76.0706452  29.8241204
  90.2845706  77.1792055  30.3840026  92.2445698  80.9512739  21.1377011
  91.8065128  80.2348598  20.6782648  92.9856139  81.1788854  20.5762102
  89.0346864  75.6409675  27.6589106  88.2214730  75.9403846  28.0654299
  89.5305858  75.2465364  28.3763589  91.1855442  85.6367432  29.5923371
  91.1431621  85.8628279  28.6631903  92.1018141  85.4030807  29.7409172
  94.6321076  76.1051500  36.4904000  94.9870464  76.3322973  37.3498466
  95.2793207  76.4369877  35.8681256 100.3618813  79.2269936  27.1953329
 100.2236711  79.4171532  26.2674519 100.0055032  79.9889319  27.6521380
  88.5260939  73.2128031  33.2750341  89.1660318  73.0716790  32.5773305
  87.6938470  72.9262544  32.8988943  89.3021243  82.5130461  29.3885334
  90.0961841  82.0180781  29.1867909  88.5912935  81.9848324  29.0253039
  94.1216087  84.8948557  33.7397701  94.1753110  85.4639493  34.5075417
  93.2530869  85.0650442  33.3751739  85.6104006  76.6573543  25.4645087
  84.6801594  76.5957999  25.6815049  85.7061478  76.1349496  24.6681728
  85.5289555  73.1828356  28.0523328  85.7896373  74.0973689  27.9432489
  86.3506728  72.7152798  28.2019941  87.0014481  74.5966113  35.2222153
  87.6737534  74.3883475  34.5734802  86.1744267  74.3988199  34.7827385
  92.9040053  71.2228054  37.2387814  92.2567968  71.9218004  37.1452290
  93.6741068  71.6564198  37.6064062  93.0804187  79.0608819  35.2984633
  94.0096247  79.2119979  35.1253601  92.6595217  79.1492840  34.4433280
  91.8792519  83.0859483  33.0683171  91.7403605  82.7178268  33.9409109
  91.0907115  83.6007123  32.8967129  92.4740671  88.1868580  24.4108707
  92.6492427  87.7156623  25.2254330  91.7873459  88.8134346  24.6389968
  93.4297734  82.4641086  30.4572009  93.0947567  82.4241856  31.3529659
  92.9301680  81.7985802  29.9842419  87.4041978  77.8708716  35.9824590
  87.2661776  77.1388955  36.5836129  88.3146901  77.7817616  35.7008778
  96.3656926  79.8097120  20.7309068  95.7486096  79.0843949  20.6342121
  95.8973414  80.5706481  20.3876143  90.0324279  77.5828675  35.4708270
  90.7423897  76.9421868  35.4294888  89.9893587  77.8341570  36.3934450
  88.7453213  74.5693893  37.2903909  88.2090570  74.1184632  37.9425505
  88.1569921  74.7039802  36.5474373  87.0401756  91.3357943  31.1848568
  87.2798354  91.9676467  31.8627586  86.1970953  90.9845983  31.4713927
  88.1555472  74.0282545  19.8530373  87.2784938  73.9071345  19.4892619
  88.6313225  73.2368623  19.6009261  79.6757612  78.8159704  29.9471880
  80.3628652  78.5021434  29.3592895  79.5205740  79.7201069  29.6739131
  84.4792334  73.7049901  34.3756903  84.3950523  73.0975571  33.6407313
  83.6575040  74.1958919  34.3766400  91.5529618  87.1437065  33.5890072
  91.4799789  87.9492037  34.1009376  91.1107011  87.3429031  32.7638093
  91.3419398  86.3808835  27.0992893  90.5586919  86.9230515  27.1931118
  92.0412143  86.8982815  27.4987134  94.6516048  72.1903465  29.7427099
  95.1484747  71.4373427  29.4228169  93.8803029  72.2267781  29.1770308
  94.0128302  87.0423899  35.7448230  94.7256274  87.6771364  35.6724132
  93.5218330  87.1387765  34.9288232  95.7345828  80.9475152  27.3165522
  94.8002107  81.0676614  27.1470226  95.9122497  80.0447618  27.0525532
  91.2351016  74.3320847  29.4698783  90.8648804  73.7791888  30.1579689
  91.7310109  73.7278981  28.9173783  99.1218380  76.7892471  27.8515556
  99.5878832  77.6220463  27.7775859  99.5725880  76.3237453  28.5560815
  97.1894611  83.1336292  24.8501708  97.4654455  83.0192887  25.7595582
  96.3199110  82.7353777  24.8113881  97.0935043  69.1573058  31.8906457
  96.1798122  69.3877285  32.0588664  97.5228144  69.2411502  32.7420490
  96.8641501  77.3462950  34.3906351  96.2112951  77.5938857  33.7358804
  97.2421881  76.5327088  34.0568829  93.8248675  87.3822643  28.4934522
  94.0071069  86.5644299  28.9562274  94.6481661  87.5990335  28.0559412
  94.1590840  86.3090828  25.7549570  94.6878607  85.7983283  25.1419732
  94.4219060  85.9933358  26.6195103  92.9129074  78.0882761  40.8772389
  92.2369711  77.9876890  41.5474764  93.7356708  77.9321975  41.3408386
  87.5146588  87.3605945  28.5147346  86.8456964  87.8452073  28.0311386
  87.3759458  87.6075165  29.4290725  79.2525588  76.8960298  32.2189347
  79.2909687  76.3623888  33.0126465  78.7465881  76.3695503  31.6000324
  86.6316350  71.7424838  35.7151889  86.6957677  72.6039669  35.3029287
  86.5683470  71.1298840  34.9824248  86.1068623  73.8147971  39.3624923
  86.7340661  73.4325048  39.9762448  85.2496542  73.5962173  39.7280616
  82.8834165  75.6224400  25.2943278  83.1787606  74.7135078  25.2410332
  81.9822201  75.6012139  24.9724281  94.7920244  87.3431664  32.0993687
  94.6671384  86.5421404  31.5904632  95.4499335  87.8377857  31.6107657
  86.4128412  73.6980396  31.2770827  85.6914998  74.3116364  31.1378300
  87.2021668  74.2338161  31.1987473  96.8555153  85.1440684  33.7273237
  95.9085488  85.0246035  33.6551564  97.2037926  84.2563182  33.8099498
  89.2154726  71.0334823  37.5511479  89.7389128  71.2797120  38.3137788
  88.9967059  71.8654858  37.1314616  84.6122007  73.3038498  25.4182603
  84.2834713  72.4235876  25.2357709  84.9661378  73.2486166  26.3058993
  93.8601586  84.9393400  29.9277589  93.7126548  84.0110108  30.1085159
  94.6855079  84.9613491  29.4434664  87.7263830  73.5911467  25.7858081
  88.0659903  74.1197389  25.0636690  88.1735951  73.9291873  26.5616648
  97.4635708  85.7621959  31.0142462  98.3882255  85.5564820  30.8766913
  97.2951011  85.5138360  31.9231803  90.4207271  71.9748518  35.2361149
  90.0804091  71.1756331  35.6381829  89.7146277  72.2750229  34.6637982
  91.0723743  69.0597831  33.6888472  91.8949812  68.5858309  33.5667363
  91.3161806  69.8388314  34.1887159  89.7131977  72.0886089  23.9851374
  90.4340340  72.4667342  23.4815091  89.0897281  72.8074966  24.0886352
  93.8563100  72.7931238  24.9209706  94.0726715  73.6755876  24.6198534
  93.3757167  72.4017451  24.1915348  88.5962322  75.7516951  31.4980451
  88.4506902  76.0657254  32.3904732  88.1187525  76.3701851  30.9451349
  90.4558704  72.7419499  31.5461340  90.4420273  71.8460592  31.2093638
  91.1731133  72.7490163  32.1799626  92.3084835  73.1756839  33.5914468
  92.0502613  74.0973910  33.5898798  91.7769876  72.7787274  34.2814932
  97.2531024  86.2807626  26.3704553  97.4267901  85.7154049  25.6178406
  97.7459915  87.0808521  26.1884043  83.0707984  78.2922296  34.4368112
  82.5261452  79.0682104  34.5688386  83.9487334  78.6393100  34.2787233
  89.8595600  71.6233879  26.8148911  89.9811512  70.6950526  27.0139798
  89.5697643  71.6372565  25.9027226  92.7286791  69.3088790  29.9515630
  92.7508488  69.3728123  28.9967610  93.1454850  68.4693299  30.1456137
 103.1070415  79.0444049  27.9894853 103.5501561  78.2951375  27.5913976
 102.2296925  79.0354186  27.6068585  98.2406196  85.5974391  23.4701451
  98.9357101  86.2181084  23.6888766  98.5829347  84.7469742  23.7453829
  83.8574006  77.4192192  37.3298269  83.1155742  77.5674827  37.9162899
  83.5366750  77.6800457  36.4665018 100.1397620  83.0474096  24.9988782
 100.6648944  83.3861369  24.2738102 100.0519972  82.1121112  24.8151917
  91.8238280  89.1146080  29.3584035  91.3843271  88.6222458  30.0516892
  92.5746397  88.5719047  29.1176111  84.3030619  85.3057621  29.3608664
  85.1288639  85.0061392  28.9807307  83.9524671  84.5365243  29.8098452
  89.2712152  84.6584089  31.4306337  88.6492162  83.9954794  31.1308565
  89.9417019  84.6845221  30.7479985  82.5039224  83.2243947  30.3197597
  81.6671133  82.7966121  30.1381598  82.4762870  83.4176390  31.2568388
  89.3436680  73.1365877  41.0238843  89.3924835  74.0128000  40.6416613
  89.8859194  72.5943270  40.4510486  88.8325659  83.2088012  24.9064798
  88.9813780  83.8923477  24.2531470  89.6392103  83.1893102  25.4214253
  97.2393163  76.5130394  38.9332015  98.1403026  76.3736859  38.6416013
  97.3141138  76.6784849  39.8730193  91.5735968  73.8897249  37.7785202
  90.7039278  74.1830815  37.5067790  91.8095449  74.4737694  38.4992465
  86.5878292  79.2353190  25.9125867  86.3424334  78.3315520  26.1106077
  86.7574207  79.2370340  24.9705345  94.2775002  70.1076866  35.2950622
  94.7956946  70.8437893  34.9697111  93.9230135  70.4140859  36.1297381
  85.8573940  74.9681547  23.4112028  85.1643185  75.0425902  22.7552064
  85.6125692  74.2041891  23.9333545  94.5287596  66.5277149  30.8151519
  94.8089350  65.8600338  31.4411945  95.3138203  66.7206244  30.3026183
  92.3321065  85.7036143  22.3776545  91.7595032  86.3226330  21.9247017
  92.9053859  86.2535504  22.9116467  98.3996455  74.9494783  34.5623094
  99.3513878  75.0492880  34.5835318  98.2299905  74.1573051  35.0721178
  96.4210834  72.0350366  34.7482495  95.8260766  72.3155379  34.0528983
  96.1360531  72.5244267  35.5199236  95.5518325  85.9873293  23.5085127
  96.4848998  85.9218854  23.7118003  95.4641537  86.8229560  23.0499660
  98.1806341  85.3039163  20.4689075  98.1019973  84.9699027  21.3624833
  99.0016008  85.7960931  20.4680547  92.7167863  77.0396955  19.7192598
  93.6626968  76.9103163  19.7881016  92.3382108  76.3011617  20.1962026
  98.6889748  68.7052961  29.6819489  98.4914569  68.3968050  30.5662821
  99.2989453  69.4314600  29.8117419  92.6006556  81.0914701  41.1793255
  93.5209565  81.2693300  41.3733301  92.5656139  80.1470747  41.0272954
  90.9010781  74.9646932  19.6547483  89.9942236  74.6680044  19.7310196
  91.1786762  74.6676750  18.7881769  81.8188721  76.2853295  30.1046529
  81.4991505  75.4318603  29.8120903  81.2722149  76.5001873  30.8604497
  85.5968628  79.0015736  33.8216036  85.8154638  79.9332844  33.8404070
  86.0094402  78.6423711  34.6070840  92.5172846  69.5083821  25.8091724
  91.7073575  69.1630906  26.1846970  93.2057263  69.1991365  26.3979336
  94.4463395  68.5861868  27.4316021  94.9994433  69.0057322  28.0906044
  94.6833481  67.6597616  27.4738977  90.4696494  74.5748942  43.2118785
  90.3693221  75.5243299  43.1430876  90.2518036  74.2467181  42.3394855
  89.6709565  71.8233867  19.7959462  90.5328729  72.1488765  20.0555279
  89.8559909  71.0365363  19.2832528  81.6876981  79.9056207  32.0739651
  80.9940452  79.4910159  31.5609605  82.4349972  79.9476743  31.4773070
  97.8242202  70.6962393  26.9394685  97.2440871  71.3547197  26.5572737
  97.5578134  69.8739738  26.5282102  96.2745768  70.0967451  29.1416005
  96.7745546  70.2083986  28.3330324  96.9181376  69.7928504  29.7816814
  90.3327764  78.0046081  42.0283846  89.8494846  78.8046441  42.2347735
  90.4188703  78.0154026  41.0751290  83.6013723  79.8374460  29.9505666
  83.5784412  79.9362148  28.9987549  83.9114360  80.6839611  30.2722832
  86.8500483  80.4651731  36.6323078  87.6693372  80.9595810  36.6557915
  87.1237291  79.5483700  36.6040645  96.6067080  72.8562484  25.9951033
  95.7192935  73.1412134  25.7771228  97.0221069  72.6956247  25.1478310
  99.9581616  72.8809005  29.7105372 100.7342006  73.3705457  29.9829989
  99.2329750  73.3067059  30.1677242 102.3954174  73.5936624  30.7679313
 102.9898665  73.3532360  30.0572621 102.4680758  72.8743755  31.3952849
  84.6151330  87.4370235  31.0822478  84.4805798  86.6770636  30.5160476
  84.1983392  88.1611135  30.6151267  95.7510293  82.6207158  20.0899053
  96.4546143  82.8257161  20.7056709  95.0272942  83.1883920  20.3548137
  96.5808103  78.3717020  26.2101323  96.5243305  78.8285571  25.3708956
  97.1336446  77.6107704  26.0324166 100.3912909  74.1606752  27.0351443
 100.1349844  73.7603387  27.8659651  99.7665777  74.8750546  26.9101582
 104.7025247  76.9002825  29.5422734 104.1424805  76.9696014  30.3154296
 104.0968751  76.7243809  28.8222231  87.7720456  88.3339552  31.2940921
  87.6552840  89.2784984  31.1919611  86.9512902  88.0313113  31.6826720
  97.6596990  83.0589688  22.1397513  98.4942594  82.6270886  21.9574988
  97.4981333  82.8871701  23.0674408  97.3142883  79.5621801  23.5053853
  97.2591686  79.3966072  22.5642297  96.6888938  80.2697834  23.6616042
  82.1035398  74.7989865  37.3315275  82.7494261  74.2888819  37.8202500
  81.8952549  75.5358547  37.9058700  94.6288790  81.8670713  42.8307415
  95.4979949  82.0411365  42.4694050  94.1495541  82.6865130  42.7083145
  90.6239008  69.0629910  23.0839171  90.6117678  70.0071750  23.2407442
  91.5162430  68.8800055  22.7898632  90.5528572  87.7398800  31.1706928
  89.6024203  87.7400662  31.0571300  90.8561058  86.9931535  30.6542962
  94.4391128  65.6572687  27.3385108  93.6723523  65.1031173  27.4841790
  94.8501833  65.7294555  28.1999259  86.4432889  71.9457482  41.4290289
  87.3064350  71.5894287  41.6393614  85.8698299  71.6071377  42.1165693
 106.2881266  93.5759339  32.2352690 106.9259676  93.4566086  31.5316030
 106.1702108  94.5240183  32.2940642 103.0970972  93.5286767  32.1714215
 102.7589483  93.4127832  31.2834750 103.9660740  93.1277932  32.1515221
  98.9557788  95.3822243  28.1611106  98.3922653  95.2912180  27.3927393
  98.8410183  94.5622148  28.6413598 103.5790755  94.6821619  38.1300420
 103.5679396  94.2874417  37.2580924 103.7411394  93.9487691  38.7234192
  96.5022220  96.8773435  30.9995326  97.2943511  96.5364260  30.5841625
  96.7418870  96.9868410  31.9197479 104.5357346  99.0493211  23.4725571
 103.8845326  99.6347291  23.0859584 105.3301709  99.5799406  23.5320608
  98.4612973  96.1382348  23.8712705  99.2343849  95.5911335  23.7325581
  98.8138372  97.0026597  24.0827166 100.2998016  97.4658730  37.0779604
 100.0087882  98.3704361  36.9626271 100.9355000  97.5075258  37.7923674
 101.2254223  94.8435579  33.6680964 101.8217795  94.6191601  32.9537927
 101.2829194  94.1020324  34.2706412 100.7979251  92.2975014  21.5031155
 101.0504772  91.7756536  20.7414618  99.8603810  92.1341160  21.6057838
 105.8422534  91.3010793  29.3105898 106.6285623  90.8830216  28.9596315
 106.1061238  92.2056885  29.4787546 106.0132611  96.7383643  24.0094555
 105.3778444  96.8118269  24.7215460 105.6830018  97.3277242  23.3313634
 111.2430961  91.2386026  30.2138877 111.9756133  90.6685243  30.4476706
 110.4870317  90.8507626  30.6545382 100.5175540  94.2003120  23.7055530
 100.4011798  93.5248024  24.3736614 100.6277800  93.7135494  22.8887683
 102.8607081  93.6613267  27.4102219 102.4965288  93.1343888  28.1215141
 103.7174197  93.2711736  27.2368704 108.7656382  84.9507600  34.6733485
 108.4339706  85.8203011  34.4494700 108.1701995  84.6343884  35.3527516
 102.5012568  88.6903167  22.4063568 102.6686970  89.5583403  22.7734039
 102.3109737  88.8530449  21.4824857 105.2587901  97.1520146  34.0729398
 104.9588624  98.0545185  33.9645205 104.9138961  96.8852329  34.9250551
  98.7100383  93.6033943  30.1066102  97.7850879  93.4710157  30.3143794
  98.9584796  94.3828162  30.6036045 108.6585045  89.6702686  31.7526835
 107.7501922  89.6018095  31.4585596 108.6072641  90.1474631  32.5808661
 102.4801789  91.1460824  23.3910234 102.3601414  91.5917875  24.2295715
 101.7854377  91.4946142  22.8323773  96.0709194  93.2467216  30.9409891
  96.2001575  93.5001695  31.8549303  95.3906645  93.8394924  30.6214546
 100.2408681 103.9164466  27.0400366 100.1632711 104.8672291  27.1188846
  99.6370324 103.5710339  27.6975292 110.5246691  87.8719124  33.5304709
 109.8821072  88.1651658  32.8844504 110.0201620  87.7572045  34.3357906
 108.1786855  91.6182298  24.2190568 109.0904711  91.8509684  24.0438266
 107.6696502  92.2019342  23.6565647 106.4627623  96.0406925  37.8551861
 106.8710979  95.5989336  37.1106493 105.7404884  95.4659553  38.1086054
 102.8158693  90.9779532  35.2285418 103.6619888  91.4018946  35.3720067
 102.7557330  90.3213157  35.9223981 106.7856437  96.6008116  31.6104150
 106.1565300  96.7653830  30.9080218 106.3982099  97.0149726  32.3815114
 110.6645669  97.5362554  28.9648514 109.9796707  97.9161455  28.4145547
 110.7489518  98.1457881  29.6980461 105.9658138  88.6383901  36.8866592
 105.7219070  89.3925961  36.3500867 106.2418068  89.0169248  37.7213839
 107.9196601  95.1822513  35.5643857 108.1313496  95.8254273  34.8878238
 107.8726349  94.3484830  35.0965787 105.5222830  87.7940334  32.4680429
 104.6607309  88.0921587  32.7597167 105.5485264  88.0110733  31.5361462
 102.3384399  96.3382524  28.8754235 102.8022745  96.6170227  28.0858857
 102.0741197  95.4365969  28.6927326  99.2308480  95.8854006  31.8133998
  99.8009837  96.3141274  31.1751483  99.8216592  95.6036590  32.5118184
 101.2753285  92.4605677  25.6843800 101.9777329  92.9126720  26.1517726
 100.9433914  91.8189495  26.3123693  95.0178619  90.7189229  30.9860934
  94.2277673  90.9746758  30.5101044  95.5089867  91.5337567  31.0912974
 109.0342429  98.0594468  33.7366215 109.8559872  97.6574656  33.4548896
 109.0304832  97.9562703  34.6882330  96.9693365  91.0833808  27.9444410
  96.1724528  91.1952503  28.4627906  96.7418957  91.4220461  27.0785301
 102.7999032  97.6078512  35.8926925 102.8643465  98.0698919  36.7285097
 102.0909956  96.9775877  36.0209235  93.3016322  90.9719720  33.4175924
  93.5524361  91.8566730  33.6833500  93.8375871  90.7924321  32.6451016
 117.1248422  94.4033217  30.0851186 116.3712130  93.8340615  29.9295190
 117.2595963  94.3695881  31.0321821 102.5147050  99.2746619  25.7605905
 102.3792725 100.1198155  26.1890753 103.0556862  99.4765897  24.9971839
  95.9676447  96.7922057  26.3333830  96.4800968  97.5865307  26.4839395
  96.6199160  96.0948348  26.2667432  97.7771332  99.9087814  28.4156584
  97.9537960 100.8305778  28.2277568  98.5728165  99.5946233  28.8450963
 104.1415526  99.8970186  39.8906247 103.6979380  99.1106564  39.5727152
 104.8032740 100.0849336  39.2250138  98.9002647 101.4265987  34.4166926
  99.4510072 101.2983051  33.6443920  98.0614123 101.7260876  34.0661819
 106.2396764 100.1772986  37.9187649 106.2215240 100.9981867  37.4267918
 107.1616684 100.0527061  38.1437790 102.6969818  97.6917115  38.7611157
 103.2298155  96.9305403  38.5310465 102.1683900  97.3990767  39.5035312
  93.9325364  95.1210712  27.1093401  94.7700586  95.5307720  26.8927109
  94.1103632  94.1810154  27.0793595 105.8289796  92.7885792  22.7977234
 105.3136420  93.5590397  23.0365621 105.5567105  92.1150928  23.4210295
 103.4136907  87.6335493  27.8562472 102.5578503  87.2442343  27.6768111
 103.8263859  87.7127454  26.9962258 104.9436054  85.1681836  32.2554032
 104.4400849  85.1311971  31.4421837 105.2366661  86.0774579  32.3150689
 101.1878940  85.2520566  31.2620214 102.0531936  85.0563375  30.9026103
 101.2556449  85.0230918  32.1889571 110.8024070  95.5418147  24.7330407
 110.0253513  95.2029306  24.2885569 111.4815551  95.5470770  24.0585372
 105.6176099  90.6612884  24.6237015 105.3126235  90.9759033  25.4747158
 106.5706541  90.7394304  24.6664348 104.0622531  96.8203108  26.2729969
 103.5343893  96.0855867  25.9603207 103.5610034  97.5977784  26.0269937
 109.0415377  95.0152128  31.3897015 108.3839052  95.7051389  31.4777144
 109.8455776  95.4048560  31.7331002  98.7941259  87.4822774  28.6336581
  99.3685011  87.2597955  27.9009774  99.3812241  87.5511468  29.3865182
 107.8520836  93.3696501  29.4400957 108.3652718  94.0026493  29.9422667
 108.5022060  92.7697696  29.0744317  99.1210846  89.5127235  22.6532466
  98.2848158  89.8501921  22.9741741  98.9815615  89.3776215  21.7159603
 101.0963926  84.3564023  27.3611650 100.4428339  84.0413040  26.7368265
 101.0544401  83.7339763  28.0871473 102.2075131  94.6383318  19.2764942
 101.3002193  94.4072571  19.4756091 102.7046163  93.8420937  19.4638924
 105.1143210 103.3480825  22.1961628 104.4404909 103.6512522  22.8046586
 105.5009032 104.1509905  21.8467085 104.3301667  90.8445956  31.6859298
 103.4124228  91.0660903  31.5280986 104.7461810  90.9192267  30.8271005
 105.1136715  92.2437372  26.8161978 105.8608533  92.7558769  26.5069100
 105.3828304  91.9221425  27.6766371 103.3863365  94.7395913  23.7988932
 102.4774584  94.4554946  23.8961402 103.4158449  95.1594991  22.9392239
 108.6182632  98.3502502  27.5680100 108.1644959  97.5093412  27.6245290
 107.9876599  98.9863901  27.9054880 107.5615552  89.2794488  28.7980767
 106.8238309  88.7671874  29.1291010 107.8142325  88.8394870  27.9864044
 107.0615571 100.1878999  28.5029918 107.3538546 100.7484056  27.7842284
 107.5714192 100.4807560  29.2583077 107.6627179  82.0570740  29.3922536
 107.9686056  81.1968104  29.1048452 108.3879784  82.6488360  29.1921530
  93.9551535  92.4601427  27.7804134  93.7575935  91.8670788  27.0555201
  93.3998199  92.1553637  28.4980073 101.9348259  92.3524533  29.8998728
 101.9896869  91.3998370  29.8241204 101.1239461  92.5083972  30.3840026
 103.0839453  96.2804656  21.1377011 102.6458882  95.5640515  20.6782648
 103.8249893  96.5080771  20.5762102  99.8740619  90.9701593  27.6589106
  99.0608484  91.2695764  28.0654299 100.3699613  90.5757282  28.3763589
 102.0249197 100.9659350  29.5923371 101.9825375 101.1920196  28.6631903
 102.9411895 100.7322725  29.7409172 105.4714830  91.4343418  36.4904000
 105.8264218  91.6614891  37.3498466 106.1186962  91.7661794  35.8681256
 111.2012567  94.5561853  27.1953329 111.0630466  94.7463449  26.2674519
 110.8448786  95.3181236  27.6521380  99.3654693  88.5419949  33.2750341
 100.0054073  88.4008708  32.5773305  98.5332224  88.2554462  32.8988943
 111.2281947  96.6238380  32.2064601 111.6618454  96.5313670  33.0547655
 111.9413528  96.5995881  31.5684617 100.1414997  97.8422379  29.3885334
 100.9355596  97.3472699  29.1867909  99.4306690  97.3140242  29.0253039
 104.9609842 100.2240475  33.7397701 105.0146864 100.7931411  34.5075417
 104.0924623 100.3942360  33.3751739  96.4497761  91.9865461  25.4645087
  95.5195349  91.9249916  25.6815049  96.5455233  91.4641414  24.6681728
  96.3683310  88.5120274  28.0523328  96.6290127  89.4265607  27.9432489
  97.1900482  88.0444716  28.2019941  97.8408235  89.9258031  35.2222153
  98.5131289  89.7175393  34.5734802  97.0138022  89.7280117  34.7827385
 112.0897496  96.6662081  34.7397486 112.2833387  97.5707892  34.9856761
 111.9898115  96.2069500  35.5736071 107.1512605  96.8168824  40.3138367
 106.9998112  96.5879376  39.3968451 107.1417285  97.7739425  40.3269712
 103.9197942  94.3900737  35.2984633 104.8490002  94.5411896  35.1253601
 103.4988972  94.4784757  34.4433280 102.7186273  98.4151401  33.0683171
 102.5797359  98.0470185  33.9409109 101.9300870  98.9299040  32.8967129
 103.3134425 103.5160497  24.4108707 103.4886181 103.0448541  25.2254330
 102.6267213 104.1426264  24.6389968 104.2691488  97.7933004  30.4572009
 103.9341321  97.7533774  31.3529659 103.7695434  97.1277720  29.9842419
  98.2435732  93.2000634  35.9824590  98.1055530  92.4680873  36.5836129
  99.1540656  93.1109534  35.7008778 107.2050680  95.1389038  20.7309068
 106.5879851  94.4135866  20.6342121 106.7367169  95.8998398  20.3876143
 100.8718033  92.9120593  35.4708270 101.5817652  92.2713785  35.4294888
 100.8287341  93.1633488  36.3934450 108.8604812  99.8487946  38.3914849
 108.8017358  99.1647167  37.7245432 109.2624330 100.5906936  37.9395475
  97.8795511 106.6649860  31.1848568  98.1192109 107.2968384  31.8627586
  97.0364707 106.3137900  31.4713927  98.9949226  89.3574462  19.8530373
  98.1178692  89.2363263  19.4892619  99.4706979  88.5660541  19.6009261
 108.8622219  97.8127530  36.6228828 107.9748998  97.4753452  36.7455227
 109.4320770  97.0810562  36.8597594  95.3186088  89.0341819  34.3756903
  95.2344277  88.4267488  33.6407313  94.4968795  89.5250837  34.3766400
 102.3923372 102.4728983  33.5890072 102.3193544 103.2783954  34.1009376
 101.9500766 102.6720949  32.7638093 102.1813152 101.7100753  27.0992893
 101.3980674 102.2522433  27.1931118 102.8805897 102.2274732  27.4987134
 105.4909802  87.5195382  29.7427099 105.9878502  86.7665345  29.4228169
 104.7196784  87.5559699  29.1770308 113.3439560  93.2235748  31.3845390
 113.3329436  94.1060463  31.0139323 112.4756939  92.8707299  31.1899927
 104.8522056 102.3715817  35.7448230 105.5650028 103.0063282  35.6724132
 104.3612085 102.4679683  34.9288232 106.5739583  96.2767069  27.3165522
 105.6395862  96.3968532  27.1470226 106.7516251  95.3739536  27.0525532
 102.0744771  89.6612765  29.4698783 101.7042558  89.1083806  30.1579689
 102.5703863  89.0570899  28.9173783 109.9612134  92.1184389  27.8515556
 110.4272586  92.9512380  27.7775859 110.4119635  91.6529370  28.5560815
  99.9033970 100.1210260  36.5653801 100.6043429 100.7546743  36.7183195
  99.4329085 100.4624992  35.8049440 108.0288365  98.4628210  24.8501708
 108.3048209  98.3484805  25.7595582 107.1592864  98.0645695  24.8113881
 107.9328797  84.4864976  31.8906457 107.0191877  84.7169203  32.0588664
 108.3621898  84.5703420  32.7420490 107.7035255  92.6754868  34.3906351
 107.0506706  92.9230775  33.7358804 108.0815635  91.8619006  34.0568829
 104.6642429 102.7114561  28.4934522 104.8464824 101.8936217  28.9562274
 105.4875415 102.9282253  28.0559412 104.9984595 101.6382746  25.7549570
 105.5272361 101.1275201  25.1419732 105.2612814 101.3225276  26.6195103
 103.7522829  93.4174679  40.8772389 103.0763466  93.3168808  41.5474764
 104.5750462  93.2613892  41.3408386  95.5001688  99.6546615  33.4984904
  96.0855124  98.9090303  33.6312808  95.3026526  99.9650572  34.3821568
  98.3540343 102.6897863  28.5147346  97.6850718 103.1743990  28.0311386
  98.2153213 102.9367083  29.4290725  90.0919342  92.2252215  32.2189347
  90.1303442  91.6915806  33.0126465  89.5859635  91.6987421  31.6000324
 102.4945611 104.7241606  35.1130005 103.0463919 104.8873228  35.8779090
 102.8351805 105.3146044  34.4410029  97.4710105  87.0716756  35.7151889
  97.5351431  87.9331587  35.3029287  97.4077225  86.4590758  34.9824248
 107.3456486  99.5502864  40.9678659 107.8896390 100.1632822  40.4733614
 106.7643331 100.1082442  41.4845672  93.7227920  90.9516318  25.2943278
  94.0181361  90.0426996  25.2410332  92.8215956  90.9304057  24.9724281
 105.6313999 102.6723582  32.0993687 105.5065138 101.8713322  31.5904632
 106.2893090 103.1669775  31.6107657  97.2522167  89.0272314  31.2770827
  96.5308753  89.6408282  31.1378300  98.0415423  89.5630079  31.1987473
 107.6948907 100.4732602  33.7273237 106.7479243 100.3537953  33.6551564
 108.0431680  99.5855100  33.8099498  95.4515761  88.6330415  25.4182603
  95.1228468  87.7527794  25.2357709  95.8055132  88.5778084  26.3058993
 104.6995340 100.2685318  29.9277589 104.5520303  99.3402025  30.1085159
 105.5248834 100.2905409  29.4434664  98.5657585  88.9203385  25.7858081
  98.9053657  89.4489306  25.0636690  99.0129705  89.2583791  26.5616648
 108.3029462 101.0913877  31.0142462 109.2276010 100.8856738  30.8766913
 108.1344766 100.8430278  31.9231803 101.2601025  87.3040436  35.2361149
 100.9197846  86.5048249  35.6381829 100.5540032  87.6042147  34.6637982
 101.9117497  84.3889748  33.6888472 102.7343567  83.9150226  33.5667363
 102.1555561  85.1680232  34.1887159 100.5525732  87.4178007  23.9851374
 101.2734094  87.7959259  23.4815091  99.9291036  88.1366883  24.0886352
 104.6956855  88.1223156  24.9209706 104.9120469  89.0047793  24.6198534
 104.2150922  87.7309369  24.1915348  99.4356076  91.0808869  31.4980451
  99.2900657  91.3949172  32.3904732  98.9581280  91.6993769  30.9451349
 101.2952459  88.0711417  31.5461340 101.2814028  87.1752510  31.2093638
 102.0124887  88.0782081  32.1799626 103.1478590  88.5048757  33.5914468
 102.8896367  89.4265828  33.5898798 102.6163630  88.1079192  34.2814932
 108.0924778 101.6099544  26.3704553 108.2661656 101.0445967  25.6178406
 108.5853670 102.4100439  26.1884043 100.6989355  86.9525797  26.8148911
 100.8205266  86.0242443  27.0139798 100.4091397  86.9664483  25.9027226
 103.5680545  84.6380708  29.9515630 103.5902242  84.7020041  28.9967610
 103.9848604  83.7985216  30.1456137 113.9464170  94.3735967  27.9894853
 114.3895316  93.6243292  27.5913976 113.0690680  94.3646103  27.6068585
 109.0799951 100.9266309  23.4701451 109.7750856 101.5473001  23.6888766
 109.4223101 100.0761660  23.7453829 110.9791374  98.3766014  24.9988782
 111.5042698  98.7153287  24.2738102 110.8913727  97.4413029  24.8151917
 102.6411423 102.2900088  37.1278659 102.9498549 102.0449234  38.0001358
 103.4386905 102.4946726  36.6397529 102.6632035 104.4437997  29.3584035
 102.2237025 103.9514376  30.0516892 103.4140152 103.9010965  29.1176111
  95.1424374 100.6349538  29.3608664  95.9682394 100.3353310  28.9807307
  94.7918426  99.8657161  29.8098452 100.1105907  99.9876006  31.4306337
  99.4885916  99.3246711  31.1308565 100.7810774 100.0137138  30.7479985
  93.3432979  98.5535865  30.3197597  92.5064887  98.1258039  30.1381598
  93.3156624  98.7468308  31.2568388 110.6685280  99.0098918  40.3039980
 109.8780824  98.9923057  39.7644480 110.4318635  99.5487211  41.0589017
 110.7883155  95.8591384  37.6172709 110.8381160  95.6941392  38.5588232
 110.6797078  94.9918643  37.2270590  99.6719414  98.5379930  24.9064798
  99.8207534  99.2215394  24.2531470 100.4785857  98.5185020  25.4214253
 108.0786918  91.8422312  38.9332015 108.9796780  91.7028777  38.6416013
 108.1534892  92.0076767  39.8730193 112.2901352  98.2788326  37.8614730
 111.9986160  98.6418306  38.6978191 111.6773483  97.5655334  37.6828062
 113.4897034  95.8441205  30.3817301 114.3243926  96.2831009  30.5454861
 113.6256163  95.3679859  29.5625546 110.5388540  93.4020940  36.3294788
 111.0142662  93.5948587  35.5213640 109.6154106  93.4580126  36.0838172
  97.4272047  94.5645107  25.9125867  97.1818089  93.6607437  26.1106077
  97.5967961  94.5662258  24.9705345  96.6967694  90.2973465  23.4112028
  96.0036939  90.3717820  22.7552064  96.4519446  89.5333809  23.9333545
 105.3681351  81.8569066  30.8151519 105.6483105  81.1892255  31.4411945
 106.1531958  82.0498162  30.3026183 103.1714819 101.0328060  22.3776545
 102.5988786 101.6518247  21.9247017 103.7447613 101.5827422  22.9116467
 109.2390209  90.2786700  34.5623094 110.1907632  90.3784798  34.5835318
 109.0693660  89.4864969  35.0721178 107.2604589  87.3642284  34.7482495
 106.6654521  87.6447296  34.0528983 106.9754285  87.8536184  35.5199236
 106.3912079 101.3165210  23.5085127 107.3242752 101.2510772  23.7118003
 106.3035292 102.1521477  23.0499660 109.0200096 100.6331081  20.4689075
 108.9413727 100.2990944  21.3624833 109.8409763 101.1252849  20.4680547
 111.7178287  93.4992820  33.6765394 111.6854607  92.5608821  33.8625077
 112.3278911  93.5776857  32.9431218 103.5561618  92.3688873  19.7192598
 104.5020723  92.2395081  19.7881016 103.1775863  91.6303535  20.1962026
 111.8672775  90.2903863  33.7223677 111.3511824  89.5062320  33.5353606
 112.7512724  89.9622580  33.8870196 109.5283502  84.0344879  29.6819489
 109.3308324  83.7259967  30.5662821 110.1383208  84.7606518  29.8117419
 117.5354837  94.5608827  32.8171430 118.2658225  94.2994115  33.3779134
 116.9261782  93.8237549  32.8573498 115.6170134  92.7016689  33.4145882
 114.8903298  92.5672654  32.8062373 115.2017421  93.0093518  34.2202600
 103.4400310  96.4206619  41.1793255 104.3603320  96.5985218  41.3733301
 103.4049893  95.4762664  41.0272954 101.7404535  90.2938849  19.6547483
 100.8335990  89.9971962  19.7310196 102.0180516  89.9968667  18.7881769
  92.6582475  91.6145213  30.1046529  92.3385260  90.7610521  29.8120903
  92.1115904  91.8293791  30.8604497  96.4362383  94.3307654  33.8216036
  96.6548393  95.2624762  33.8404070  96.8488157  93.9715628  34.6070840
 103.3566601  84.8375739  25.8091724 102.5467329  84.4922824  26.1846970
 104.0451018  84.5283283  26.3979336 105.2857149  83.9153786  27.4316021
 105.8388188  84.3349239  28.0906044 105.5227235  82.9889534  27.4738977
 100.5103320  87.1525785  19.7959462 101.3722484  87.4780683  20.0555279
 100.6953664  86.3657280  19.2832528  92.5270735  95.2348124  32.0739651
  91.8334207  94.8202077  31.5609605  93.2743726  95.2768661  31.4773070
 108.6635956  86.0254311  26.9394685 108.0834625  86.6839115  26.5572737
 108.3971889  85.2031656  26.5282102 107.1139522  85.4259369  29.1416005
 107.6139301  85.5375903  28.3330324 107.7575130  85.1220422  29.7816814
  94.4407478  95.1666378  29.9505666  94.4178166  95.2654065  28.9987549
  94.7508114  96.0131529  30.2722832  97.0994856  97.2242533  34.0652280
  98.0538109  97.1926475  33.9982212  96.9007379  96.7633157  34.8802506
 107.4460834  88.1854401  25.9951033 106.5586689  88.4704052  25.7771228
 107.8614823  88.0248165  25.1478310 110.7975370  88.2100922  29.7105372
 111.5735760  88.6997375  29.9829989 110.0723504  88.6358977  30.1677242
 113.2347929  88.9228542  30.7679313 113.8292420  88.6824278  30.0572621
 113.3074513  88.2035672  31.3952849  95.4545085 102.7662153  31.0822478
  95.3199553 102.0062553  30.5160476  95.0377147 103.4903052  30.6151267
 106.5904048  97.9499076  20.0899053 107.2939898  98.1549079  20.7056709
 105.8666696  98.5175838  20.3548137 107.4201858  93.7008937  26.2101323
 107.3637059  94.1577489  25.3708956 107.9730200  92.9399622  26.0324166
 111.2306664  89.4898669  27.0351443 110.9743598  89.0895305  27.8659651
 110.6059532  90.2042463  26.9101582 115.5419002  92.2294742  29.5422734
 114.9818560  92.2987932  30.3154296 114.9362505  92.0535727  28.8222231
  98.6114210 103.6631470  31.2940921  98.4946595 104.6076902  31.1919611
  97.7906657 103.3605031  31.6826720 108.4990745  98.3881605  22.1397513
 109.3336349  97.9562804  21.9574988 108.3375088  98.2163619  23.0674408
 108.1536637  94.8913719  23.5053853 108.0985441  94.7257990  22.5642297
 107.5282692  95.5989752  23.6616042 105.4682544  97.1962630  42.8307415
 106.3373704  97.3703283  42.4694050 104.9889296  98.0157047  42.7083145
 101.4632763  84.3921828  23.0839171 101.4511432  85.3363668  23.2407442
 102.3556185  84.2091973  22.7898632  99.6368725 104.3159731  34.5096849
 100.5395971 104.3483342  34.8263344  99.4106095 103.3860182  34.5243185
 101.3922327 103.0690718  31.1706928 100.4417958 103.0692580  31.0571300
 101.6954813 102.3223453  30.6542962 105.2784882  80.9864604  27.3385108
 104.5117278  80.4323091  27.4841790 105.6895587  81.0586473  28.1999259
 117.1275020 108.9051256  32.2352690 117.7653430 108.7858004  31.5316030
 117.0095863 109.8532100  32.2940642 113.9364726 108.8578685  32.1714215
 113.5983238 108.7419749  31.2834750 114.8054495 108.4569850  32.1515221
 109.7951542 110.7114161  28.1611106 109.2316407 110.6204098  27.3927393
 109.6803937 109.8914065  28.6413598 114.4184509 110.0113536  38.1300420
 114.4073150 109.6166335  37.2580924 114.5805149 109.2779609  38.7234192
 107.3415974 112.2065353  30.9995326 108.1337266 111.8656177  30.5841625
 107.5812624 112.3160328  31.9197479 111.1391770 112.7950648  37.0779604
 110.8481636 113.6996279  36.9626271 111.7748755 112.8367176  37.7923674
 112.0647977 110.1727497  33.6680964 112.6611550 109.9483519  32.9537927
 112.1222949 109.4312242  34.2706412 116.6816289 106.6302710  29.3105898
 117.4679378 106.2122133  28.9596315 116.9454993 107.5348802  29.4787546
 122.0824716 106.5677943  30.2138877 122.8149888 105.9977160  30.4476706
 121.3264071 106.1799544  30.6545382 113.7000835 108.9905185  27.4102219
 113.3359043 108.4635806  28.1215141 114.5567951 108.6003654  27.2368704
 119.6050136 100.2799518  34.6733485 119.2733461 101.1494929  34.4494700
 119.0095749  99.9635802  35.3527516 113.3406322 104.0195085  22.4063568
 113.5080725 104.8875321  22.7734039 113.1503491 104.1822366  21.4824857
 116.0981656 112.4812064  34.0729398 115.7982379 113.3837102  33.9645205
 115.7532715 112.2144247  34.9250551 109.5494137 108.9325860  30.1066102
 108.6244634 108.8002075  30.3143794 109.7978550 109.7120080  30.6036045
 119.4978799 104.9994604  31.7526835 118.5895677 104.9310012  31.4585596
 119.4466395 105.4766549  32.5808661 113.3195543 106.4752742  23.3910234
 113.1995168 106.9209793  24.2295715 112.6248132 106.8238060  22.8323773
 106.9102948 108.5759134  30.9409891 107.0395329 108.8293613  31.8549303
 106.2300399 109.1686842  30.6214546 113.5719665 106.4184249  39.6961733
 112.7952999 106.9778169  39.6864597 114.2110228 106.9041032  40.2176603
 121.3640446 103.2011042  33.5304709 120.7214826 103.4943575  32.8844504
 120.8595374 103.0863962  34.3357906 111.8266037 109.2269703  39.2579700
 112.5680722 109.7654747  38.9814523 111.1203023 109.8535991  39.4151251
 117.3021377 111.3698843  37.8551861 117.7104733 110.9281254  37.1106493
 116.5798639 110.7951471  38.1086054 113.6552447 106.3071450  35.2285418
 114.5013642 106.7310863  35.3720067 113.5951085 105.6505074  35.9223981
 117.6250192 111.9300034  31.6104150 116.9959054 112.0945748  30.9080218
 117.2375854 112.3441643  32.3815114 116.8051892 103.9675818  36.8866592
 116.5612824 104.7217879  36.3500867 117.0811823 104.3461166  37.7213839
 118.7590355 110.5114431  35.5643857 118.9707250 111.1546191  34.8878238
 118.7120103 109.6776747  35.0965787 116.3616584 103.1232251  32.4680429
 115.5001063 103.4213505  32.7597167 116.3879019 103.3402650  31.5361462
 113.1778154 111.6674442  28.8754235 113.6416499 111.9462145  28.0858857
 112.9134952 110.7657886  28.6927326 110.0702235 111.2145923  31.8133998
 110.6403592 111.6433192  31.1751483 110.6610347 110.9328508  32.5118184
 112.1147040 107.7897594  25.6843800 112.8171083 108.2418638  26.1517726
 111.7827668 107.1481413  26.3123693 110.5627401 106.3809351  40.0595010
 109.9326062 107.0625632  40.2930406 110.4563489 106.2692432  39.1148148
 105.8572374 106.0481147  30.9860934 105.0671428 106.3038675  30.5101044
 106.3483621 106.8629485  31.0912974 119.8736183 113.3886386  33.7366215
 120.6953627 112.9866573  33.4548896 119.8698586 113.2854620  34.6882330
 107.8087119 106.4125726  27.9444410 107.0118282 106.5244420  28.4627906
 107.5812711 106.7512378  27.0785301 113.6392787 112.9370429  35.8926925
 113.7037219 113.3990837  36.7285097 112.9303711 112.3067794  36.0209235
 104.1410077 106.3011637  33.4175924 104.3918115 107.1858647  33.6833500
 104.6769625 106.1216239  32.6451016 109.8408144 100.6830117  42.4220261
 109.4475089 100.1296315  43.0967905 110.6574284 100.9940695  42.8126778
 106.8070202 112.1213975  26.3333830 107.3194722 112.9157225  26.4839395
 107.4592915 111.4240265  26.2667432 108.6165086 115.2379731  28.4156584
 108.7931715 116.1597696  28.2277568 109.4121920 114.9238150  28.8450963
 112.7576105 102.0987996  40.0140517 113.4985818 102.6995149  39.9344980
 112.9894028 101.3565634  39.4558560 107.9017443 107.2844363  38.2918747
 107.7870958 106.3829620  38.5925846 107.0461961 107.5308060  37.9403563
 114.9809281 115.2262103  39.8906247 114.5373135 114.4398482  39.5727152
 115.6426494 115.4141254  39.2250138 109.7396402 116.7557905  34.4166926
 110.2903827 116.6274968  33.6443920 108.9007878 117.0552794  34.0661819
 117.0790519 115.5064903  37.9187649 117.0608994 116.3273784  37.4267918
 118.0010439 115.3818979  38.1437790 113.5363573 113.0209033  38.7611157
 114.0691910 112.2597321  38.5310465 113.0077654 112.7282685  39.5035312
 116.7033268  98.1269099  34.2904799 116.3597537  99.0170740  34.2143909
 117.0712230  97.9370756  33.4274384 104.7719118 110.4502629  27.1093401
 105.6094340 110.8599638  26.8927109 104.9497386 109.5102071  27.0793595
 114.2530662 102.9627411  27.8562472 113.3972258 102.5734261  27.6768111
 114.6657613 103.0419371  26.9962258 115.7829808 100.4973754  32.2554032
 115.2794604 100.4603889  31.4421837 116.0760415 101.4066497  32.3150689
 112.0272694 100.5812484  31.2620214 112.8925691 100.3855292  30.9026103
 112.0950203 100.3522835  32.1889571 116.4569854 105.9904802  24.6237015
 116.1519989 106.3050951  25.4747158 117.4100296 106.0686222  24.6664348
 119.8809132 110.3444046  31.3897015 119.2232806 111.0343307  31.4777144
 120.6849531 110.7340478  31.7331002 109.6335013 102.8114692  28.6336581
 110.2078765 102.5889873  27.9009774 110.2205996 102.8803386  29.3865182
 118.6914590 108.6988418  29.4400957 119.2046472 109.3318410  29.9422667
 119.3415814 108.0989614  29.0744317 109.9604600 104.8419153  22.6532466
 109.1241913 105.1793839  22.9741741 109.8209370 104.7068132  21.7159603
 111.9357681  99.6855940  27.3611650 111.2822093  99.3704958  26.7368265
 111.8938155  99.0631681  28.0871473 115.1695421 106.1737874  31.6859298
 114.2517983 106.3952821  31.5280986 115.5855565 106.2484184  30.8271005
 115.9530469 107.5729290  26.8161978 116.7002288 108.0850687  26.5069100
 116.2222059 107.2513342  27.6766371 118.4009306 104.6086406  28.7980767
 117.6632063 104.0963792  29.1291010 118.6536080 104.1686788  27.9864044
 118.5020934  97.3862658  29.3922536 118.8079810  96.5260021  29.1048452
 119.2273538  97.9780278  29.1921530 104.7945290 107.7893345  27.7804134
 104.5969689 107.1962705  27.0555201 104.2391954 107.4845555  28.4980073
 112.7742013 107.6816451  29.8998728 112.8290623 106.7290287  29.8241204
 111.9633215 107.8375890  30.3840026 110.7134373 106.2993511  27.6589106
 109.9002239 106.5987681  28.0654299 111.2093367 105.9049200  28.3763589
 112.8642951 116.2951268  29.5923371 112.8219130 116.5212114  28.6631903
 113.7805650 116.0614642  29.7409172 116.3108585 106.7635335  36.4904000
 116.6657973 106.9906808  37.3498466 116.9580716 107.0953712  35.8681256
 110.2048448 103.8711866  33.2750341 110.8447827 103.7300625  32.5773305
 109.3725978 103.5846380  32.8988943 122.0675701 111.9530298  32.2064601
 122.5012208 111.8605587  33.0547655 122.7807282 111.9287799  31.5684617
 110.9808752 113.1714297  29.3885334 111.7749350 112.6764617  29.1867909
 110.2700444 112.6432160  29.0253039 115.8003596 115.5532392  33.7397701
 115.8540619 116.1223329  34.5075417 114.9318378 115.7234277  33.3751739
 107.2891515 107.3157378  25.4645087 106.3589103 107.2541834  25.6815049
 107.3848987 106.7933331  24.6681728 107.2077064 103.8412191  28.0523328
 107.4683882 104.7557525  27.9432489 108.0294237 103.3736634  28.2019941
 108.6801990 105.2549948  35.2222153 109.3525043 105.0467311  34.5734802
 107.8531776 105.0572034  34.7827385 122.9291251 111.9953999  34.7397486
 123.1227141 112.8999809  34.9856761 122.8291869 111.5361418  35.5736071
 114.5827562 101.8811889  37.2387814 113.9355477 102.5801839  37.1452290
 115.3528577 102.3148033  37.6064062 117.9906360 112.1460742  40.3138367
 117.8391866 111.9171293  39.3968451 117.9811039 113.1031343  40.3269712
 114.7591696 109.7192654  35.2984633 115.6883756 109.8703814  35.1253601
 114.3382726 109.8076675  34.4433280 113.5580028 113.7443319  33.0683171
 113.4191114 113.3762103  33.9409109 112.7694624 114.2590958  32.8967129
 115.1085243 113.1224921  30.4572009 114.7735076 113.0825691  31.3529659
 114.6089189 112.4569637  29.9842419 109.0829487 108.5292551  35.9824590
 108.9449285 107.7972790  36.5836129 109.9934410 108.4401452  35.7008778
 111.7111788 108.2412511  35.4708270 112.4211406 107.6005703  35.4294888
 111.6681096 108.4925406  36.3934450 119.6998566 115.1779864  38.3914849
 119.6411112 114.4939084  37.7245432 120.1018085 115.9198854  37.9395475
 110.4240722 105.2277729  37.2903909 109.8878079 104.7768467  37.9425505
 109.8357430 105.3623637  36.5474373 108.7189265 121.9941778  31.1848568
 108.9585863 122.6260302  31.8627586 107.8758462 121.6429818  31.4713927
 119.7015974 113.1419448  36.6228828 118.8142752 112.8045370  36.7455227
 120.2714525 112.4102479  36.8597594 101.3545121 109.4743540  29.9471880
 102.0416161 109.1605270  29.3592895 101.1993249 110.3784904  29.6739131
 106.1579843 104.3633736  34.3756903 106.0738032 103.7559406  33.6407313
 105.3362549 104.8542755  34.3766400 113.2317127 117.8020900  33.5890072
 113.1587298 118.6075872  34.1009376 112.7894520 118.0012866  32.7638093
 116.3303557 102.8487300  29.7427099 116.8272256 102.0957262  29.4228169
 115.5590538 102.8851617  29.1770308 124.1833314 108.5527665  31.3845390
 124.1723190 109.4352381  31.0139323 123.3150694 108.1999216  31.1899927
 115.6915810 117.7007734  35.7448230 116.4043783 118.3355199  35.6724132
 115.2005839 117.7971600  34.9288232 117.4133337 111.6058987  27.3165522
 116.4789616 111.7260450  27.1470226 117.5910006 110.7031454  27.0525532
 112.9138525 104.9904683  29.4698783 112.5436313 104.4375723  30.1579689
 113.4097618 104.3862816  28.9173783 120.8005889 107.4476306  27.8515556
 121.2666341 108.2804298  27.7775859 121.2513389 106.9821288  28.5560815
 110.7427724 115.4502178  36.5653801 111.4437184 116.0838661  36.7183195
 110.2722839 115.7916909  35.8049440 118.7722551  99.8156893  31.8906457
 117.8585631 100.0461120  32.0588664 119.2015653  99.8995337  32.7420490
 118.5429010 108.0046785  34.3906351 117.8900460 108.2522693  33.7358804
 118.9209390 107.1910923  34.0568829 114.5916583 108.7466596  40.8772389
 113.9157220 108.6460726  41.5474764 115.4144217 108.5905810  41.3408386
 106.3395442 114.9838533  33.4984904 106.9248879 114.2382221  33.6312808
 106.1420281 115.2942490  34.3821568 109.1934097 118.0189780  28.5147346
 108.5244473 118.5035908  28.0311386 109.0546967 118.2659001  29.4290725
 100.9313097 107.5544133  32.2189347 100.9697196 107.0207724  33.0126465
 100.4253390 107.0279339  31.6000324 113.3339366 120.0533524  35.1130005
 113.8857674 120.2165145  35.8779090 113.6745559 120.6437962  34.4410029
 108.3103859 102.4008674  35.7151889 108.3745186 103.2623505  35.3029287
 108.2470979 101.7882675  34.9824248 107.7856132 104.4731806  39.3624923
 108.4128170 104.0908883  39.9762448 106.9284050 104.2546008  39.7280616
 118.1850240 114.8794781  40.9678659 118.7290144 115.4924740  40.4733614
 117.6037085 115.4374360  41.4845672 104.5621674 106.2808235  25.2943278
 104.8575115 105.3718914  25.2410332 103.6609710 106.2595975  24.9724281
 116.4707753 118.0015499  32.0993687 116.3458893 117.2005239  31.5904632
 117.1286844 118.4961693  31.6107657 108.0915921 104.3564232  31.2770827
 107.3702507 104.9700200  31.1378300 108.8809177 104.8921997  31.1987473
 118.5342662 115.8024519  33.7273237 117.5872997 115.6829871  33.6551564
 118.8825435 114.9147017  33.8099498 110.8942235 101.6918658  37.5511479
 111.4176637 101.9380955  38.3137788 110.6754568 102.5238693  37.1314616
 106.2909516 103.9622333  25.4182603 105.9622222 103.0819712  25.2357709
 106.6448887 103.9070002  26.3058993 115.5389095 115.5977236  29.9277589
 115.3914057 114.6693943  30.1085159 116.3642588 115.6197326  29.4434664
 109.4051339 104.2495303  25.7858081 109.7447412 104.7781224  25.0636690
 109.8523460 104.5875709  26.5616648 119.1423217 116.4205794  31.0142462
 120.0669764 116.2148656  30.8766913 118.9738520 116.1722196  31.9231803
 112.0994780 102.6332353  35.2361149 111.7591600 101.8340167  35.6381829
 111.3933786 102.9334064  34.6637982 112.7511252  99.7181666  33.6888472
 113.5737321  99.2442144  33.5667363 112.9949315 100.4972150  34.1887159
 111.3919486 102.7469924  23.9851374 112.1127849 103.1251177  23.4815091
 110.7684790 103.4658801  24.0886352 115.5350609 103.4515073  24.9209706
 115.7514224 104.3339711  24.6198534 115.0544676 103.0601287  24.1915348
 110.2749831 106.4100787  31.4980451 110.1294411 106.7241090  32.3904732
 109.7975034 107.0285687  30.9451349 112.1346213 103.4003335  31.5461340
 112.1207782 102.5044428  31.2093638 112.8518642 103.4073998  32.1799626
 113.9872344 103.8340675  33.5914468 113.7290122 104.7557745  33.5898798
 113.4557385 103.4371109  34.2814932 104.7495493 108.9506131  34.4368112
 104.2048961 109.7265939  34.5688386 105.6274843 109.2976935  34.2787233
 111.5383109 102.2817715  26.8148911 111.6599021 101.3534361  27.0139798
 111.2485152 102.2956401  25.9027226 114.4074300  99.9672625  29.9515630
 114.4295997 100.0311958  28.9967610 114.8242359  99.1277134  30.1456137
 105.5361515 108.0776027  37.3298269 104.7943251 108.2258663  37.9162899
 105.2154259 108.3384293  36.4665018 113.4805177 117.6192005  37.1278659
 113.7892304 117.3741152  38.0001358 114.2780659 117.8238644  36.6397529
 105.9818128 115.9641456  29.3608664 106.8076148 115.6645228  28.9807307
 105.6312180 115.1949078  29.8098452 110.9499661 115.3167924  31.4306337
 110.3279671 114.6538629  31.1308565 111.6204528 115.3429056  30.7479985
 104.1826733 113.8827782  30.3197597 103.3458642 113.4549957  30.1381598
 104.1550379 114.0760226  31.2568388 111.0224189 103.7949712  41.0238843
 111.0712344 104.6711835  40.6416613 111.5646703 103.2527105  40.4510486
 121.5079035 114.3390835  40.3039980 120.7174578 114.3214974  39.7644480
 121.2712389 114.8779129  41.0589017 121.6276910 111.1883302  37.6172709
 121.6774915 111.0233309  38.5588232 121.5190833 110.3210561  37.2270590
 118.9180672 107.1714230  38.9332015 119.8190535 107.0320695  38.6416013
 118.9928647 107.3368685  39.8730193 113.2523477 104.5481085  37.7785202
 112.3826787 104.8414651  37.5067790 113.4882958 105.1321530  38.4992465
 123.1295106 113.6080243  37.8614730 122.8379915 113.9710224  38.6978191
 122.5167238 112.8947252  37.6828062 124.3290789 111.1733123  30.3817301
 125.1637680 111.6122927  30.5454861 124.4649918 110.6971776  29.5625546
 121.3782295 108.7312858  36.3294788 121.8536416 108.9240504  35.5213640
 120.4547860 108.7872044  36.0838172 108.2665801 109.8937025  25.9125867
 108.0211843 108.9899355  26.1106077 108.4361716 109.8954176  24.9705345
 115.9562511 100.7660701  35.2950622 116.4744455 101.5021728  34.9697111
 115.6017644 101.0724695  36.1297381 107.5361449 105.6265383  23.4112028
 106.8430694 105.7009738  22.7552064 107.2913201 104.8625726  23.9333545
 116.2075105  97.1860984  30.8151519 116.4876859  96.5184173  31.4411945
 116.9925712  97.3790080  30.3026183 120.0783964 105.6078618  34.5623094
 121.0301387 105.7076716  34.5835318 119.9087414 104.8156887  35.0721178
 118.0998343 102.6934201  34.7482495 117.5048275 102.9739214  34.0528983
 117.8148040 103.1828102  35.5199236 122.5572041 108.8284738  33.6765394
 122.5248362 107.8900738  33.8625077 123.1672665 108.9068774  32.9431218
 122.7066530 105.6195781  33.7223677 122.1905579 104.8354238  33.5353606
 123.5906478 105.2914498  33.8870196 120.3677257  99.3636797  29.6819489
 120.1702078  99.0551885  30.5662821 120.9776962 100.0898436  29.8117419
 128.3748591 109.8900745  32.8171430 129.1051980 109.6286033  33.3779134
 127.7655537 109.1529466  32.8573498 126.4563888 108.0308607  33.4145882
 125.7297052 107.8964572  32.8062373 126.0411175 108.3385436  34.2202600
 114.2794065 111.7498537  41.1793255 115.1997074 111.9277136  41.3733301
 114.2443648 110.8054582  41.0272954 103.4976230 106.9437130  30.1046529
 103.1779014 106.0902439  29.8120903 102.9509658 107.1585709  30.8604497
 107.2756137 109.6599571  33.8216036 107.4942147 110.5916679  33.8404070
 107.6881911 109.3007546  34.6070840 114.1960355 100.1667657  25.8091724
 113.3861084  99.8214742  26.1846970 114.8844772  99.8575201  26.3979336
 116.1250903  99.2445704  27.4316021 116.6781942  99.6641157  28.0906044
 116.3620990  98.3181452  27.4738977 112.1484003 105.2332777  43.2118785
 112.0480730 106.1827134  43.1430876 111.9305545 104.9051016  42.3394855
 111.3497074 102.4817702  19.7959462 112.2116238 102.8072601  20.0555279
 111.5347418 101.6949198  19.2832528 103.3664490 110.5640042  32.0739651
 102.6727961 110.1493995  31.5609605 104.1137481 110.6060578  31.4773070
 119.5029711 101.3546229  26.9394685 118.9228380 102.0131033  26.5572737
 119.2365643 100.5323573  26.5282102 117.9533277 100.7551286  29.1416005
 118.4533055 100.8667821  28.3330324 118.5968885 100.4512339  29.7816814
 112.0115273 108.6629916  42.0283846 111.5282354 109.4630276  42.2347735
 112.0976212 108.6737861  41.0751290 105.2801232 110.4958296  29.9505666
 105.2571921 110.5945983  28.9987549 105.5901869 111.3423447  30.2722832
 107.9388610 112.5534451  34.0652280 108.8931864 112.5218393  33.9982212
 107.7401134 112.0925075  34.8802506 108.5287992 111.1235567  36.6323078
 109.3480881 111.6179645  36.6557915 108.8024800 110.2067535  36.6040645
 118.2854589 103.5146319  25.9951033 117.3980444 103.7995970  25.7771228
 118.7008578 103.3540082  25.1478310 121.6369125 103.5392840  29.7105372
 122.4129515 104.0289293  29.9829989 120.9117259 103.9650894  30.1677242
 124.0741683 104.2520459  30.7679313 124.6686174 104.0116195  30.0572621
 124.1468267 103.5327590  31.3952849 106.2938839 118.0954070  31.0822478
 106.1593307 117.3354471  30.5160476 105.8770901 118.8194970  30.6151267
 122.0700418 104.8190587  27.0351443 121.8137352 104.4187223  27.8659651
 121.4453286 105.5334381  26.9101582 126.3812756 107.5586660  29.5422734
 125.8212314 107.6279849  30.3154296 125.7756259 107.3827645  28.8222231
 109.4507965 118.9923387  31.2940921 109.3340349 119.9368820  31.1919611
 108.6300411 118.6896949  31.6826720 103.7822907 105.4573701  37.3315275
 104.4281770 104.9472655  37.8202500 103.5740058 106.1942382  37.9058700
 116.3076299 112.5254548  42.8307415 117.1767458 112.6995200  42.4694050
 115.8283050 113.3448965  42.7083145 112.3026517  99.7213745  23.0839171
 112.2905187 100.6655585  23.2407442 113.1949939  99.5383891  22.7898632
 110.4762479 119.6451649  34.5096849 111.3789726 119.6775259  34.8263344
 110.2499849 118.7152100  34.5243185 112.2316081 118.3982636  31.1706928
 111.2811712 118.3984497  31.0571300 112.5348567 117.6515370  30.6542962
 116.1178637  96.3156522  27.3385108 115.3511032  95.7615009  27.4841790
 116.5289342  96.3878391  28.1999259 108.1220398 102.6041318  41.4290289
 108.9851859 102.2478123  41.6393614 107.5485808 102.2655213  42.1165693
 124.4113420 121.7476167  39.6961733 123.6346754 122.3070087  39.6864597
 125.0503983 122.2332950  40.2176603 122.6659792 124.5561620  39.2579700
 123.4074476 125.0946664  38.9814523 121.9596777 125.1827909  39.4151251
 127.6445647 119.2967736  36.8866592 127.4006579 120.0509797  36.3500867
 127.9205577 119.6753084  37.7213839 121.4021156 121.7101269  40.0595010
 120.7719816 122.3917549  40.2930406 121.2957244 121.5984350  39.1148148
 114.9803831 121.6303555  33.4175924 115.2311870 122.5150565  33.6833500
 115.5163380 121.4508157  32.6451016 120.6801898 116.0122034  42.4220261
 120.2868844 115.4588233  43.0967905 121.4968039 116.3232613  42.8126778
 123.5969859 117.4279913  40.0140517 124.3379573 118.0287067  39.9344980
 123.8287782 116.6857551  39.4558560 118.7411197 122.6136281  38.2918747
 118.6264713 121.7121538  38.5925846 117.8855715 122.8599978  37.9403563
 127.5427022 113.4561016  34.2904799 127.1991292 114.3462658  34.2143909
 127.9105985 113.2662674  33.4274384 119.5195744 120.5841866  35.2222153
 120.1918798 120.3759228  34.5734802 118.6925531 120.3863952  34.7827385
 125.4221316 117.2103807  37.2387814 124.7749231 117.9093757  37.1452290
 126.1922332 117.6439951  37.6064062 119.9223241 123.8584469  35.9824590
 119.7843039 123.1264708  36.5836129 120.8328165 123.7693369  35.7008778
 121.2634476 120.5569646  37.2903909 120.7271833 120.1060385  37.9425505
 120.6751185 120.6915555  36.5474373 116.9973597 119.6925654  34.3756903
 116.9131786 119.0851324  33.6407313 116.1756304 120.1834672  34.3766400
 125.4310337 124.0758514  40.8772389 124.7550975 123.9752643  41.5474764
 126.2537971 123.9197728  41.3408386 111.7706851 122.8836051  32.2189347
 111.8090951 122.3499641  33.0126465 111.2647144 122.3571256  31.6000324
 119.1497614 117.7300591  35.7151889 119.2138940 118.5915422  35.3029287
 119.0864734 117.1174593  34.9824248 118.6249886 119.8023724  39.3624923
 119.2521925 119.4200801  39.9762448 117.7677805 119.5837926  39.7280616
 121.7335989 117.0210576  37.5511479 122.2570391 117.2672873  38.3137788
 121.5148323 117.8530611  37.1314616 122.9388534 117.9624271  35.2361149
 122.5985355 117.1632084  35.6381829 122.2327541 118.2625982  34.6637982
 123.5905006 115.0473584  33.6888472 124.4131076 114.5734062  33.5667363
 123.8343070 115.8264067  34.1887159 115.5889247 124.2798049  34.4368112
 115.0442715 125.0557857  34.5688386 116.4668597 124.6268853  34.2787233
 116.3755269 123.4067945  37.3298269 115.6337005 123.5550580  37.9162899
 116.0548013 123.6676210  36.4665018 121.8617943 119.1241630  41.0238843
 121.9106099 120.0003753  40.6416613 122.4040458 118.5819023  40.4510486
 124.0917232 119.8773002  37.7785202 123.2220541 120.1706568  37.5067790
 124.3276712 120.4613447  38.4992465 126.7956266 116.0952619  35.2950622
 127.3138210 116.8313646  34.9697111 126.4411398 116.4016612  36.1297381
 125.1187819 127.0790454  41.1793255 126.0390829 127.2569053  41.3733301
 125.0837402 126.1346500  41.0272954 122.9877757 120.5624695  43.2118785
 122.8874484 121.5119052  43.1430876 122.7699299 120.2342934  42.3394855
 122.8509027 123.9921834  42.0283846 122.3676109 124.7922194  42.2347735
 122.9369966 124.0029779  41.0751290 114.6216661 120.7865618  37.3315275
 115.2675525 120.2764572  37.8202500 114.4133812 121.5234300  37.9058700
 127.1470053 127.8546466  42.8307415 128.0161213 128.0287118  42.4694050
 126.6676805 128.6740883  42.7083145 118.9614152 117.9333235  41.4290289
 119.8245614 117.5770040  41.6393614 118.3879563 117.5947130  42.1165693
  60.2215738  10.3716070  24.8545727  60.2104379   9.9768869  23.9826231
  60.3836378   9.6382143  25.4479498  56.9422999  13.1553182  23.8024911
  56.6512865  14.0598813  23.6871577  57.5779984  13.1969710  24.5168980
  59.3750894   6.7786784  26.4207039  58.5984228   7.3380704  26.4109904
  60.0141457   7.2643567  26.9421909  57.6297266   9.5872237  25.9825006
  58.3711951  10.1257281  25.7059830  56.9234252  10.2138526  26.1396558
  63.1052606  11.7301377  24.5797168  63.5135962  11.2883788  23.8351800
  62.3829867  11.1554005  24.8331361  65.6767412  13.7488920  20.4611521
  66.4984856  13.3469108  20.1794203  65.6729815  13.6457154  21.4127637
  60.7840509  15.5864638  26.6151554  60.3404364  14.8001016  26.2972459
  61.4457723  15.7743788  25.9495445  62.8821748  15.8667438  24.6432955
  62.8640223  16.6876319  24.1513225  63.8041668  15.7421513  24.8683097
  59.3394802  13.3811567  25.4856464  59.8723139  12.6199855  25.2555772
  58.8108883  13.0885219  26.2280618  68.7322480  12.3556533  21.4642793
  68.9258370  13.2602343  21.7102068  68.6323098  11.8963952  22.2981378
  63.7937588  12.5063276  27.0383674  63.6423095  12.2773827  26.1213757
  63.7842268  13.4633877  27.0515019  65.5029795  15.5382398  25.1160155
  65.4442341  14.8541618  24.4490738  65.9049313  16.2801388  24.6640781
  65.5047202  13.5021982  23.3474135  64.6173981  13.1647904  23.4700534
  66.0745753  12.7705013  23.5842900  61.4947039  18.0610269  22.4693537
  62.2075011  18.6957733  22.3969438  61.0037068  18.1574135  21.6533539
  56.5458953  15.8104712  23.2899108  57.2468412  16.4441195  23.4428502
  56.0754068  16.1519444  22.5294747  60.3947812   9.1069131  27.6017695
  59.7188449   9.0063260  28.2720070  61.2175446   8.9508344  28.0653692
  59.1370595  20.4136058  21.8375311  59.6888903  20.5767680  22.6024396
  59.4776788  21.0040496  21.1655336  63.9881469  15.2397316  27.6923966
  64.5321373  15.8527274  27.1978920  63.4068314  15.7976894  28.2090979
  64.3373890  16.1627054  20.4518543  63.3904226  16.0432405  20.3796870
  64.6856663  15.2749552  20.5344805  59.2836406  17.9794540  23.8523966
  59.5923532  17.7343686  24.7246665  60.0811888  18.1841178  23.3642836
  67.3110263  14.6993370  27.0285287  66.5205807  14.6817508  26.4889786
  67.0743618  15.2381663  27.7834323  67.4308138  11.5485836  24.3418015
  67.4806143  11.3835843  25.2833538  67.3222062  10.6813095  23.9515896
  64.7211901   7.5316764  25.6577322  65.6221764   7.3923229  25.3661320
  64.7959875   7.6971219  26.5975500  68.9326335  13.9682778  24.5860037
  68.6411144  14.3312758  25.4223498  68.3198467  13.2549786  24.4073369
  67.1813524   9.0915392  23.0540095  67.6567645   9.2843038  22.2458946
  66.2579089   9.1474578  22.8083479  74.1779820  10.2503279  19.5416737
  74.9083209   9.9888567  20.1024440  73.5686766   9.5132001  19.5818805
  60.0825294  12.1101071  27.9038561  61.0028303  12.2879670  28.0978608
  60.0474877  11.1657116  27.7518260  57.9515232   5.5935311  29.9364091
  57.8511958   6.5429668  29.8676182  57.7336774   5.2653550  29.0640161
  57.8146502   9.0232450  28.7529153  57.3313583   9.8232810  28.9593042
  57.9007441   9.0340395  27.7996597  62.1107528  12.8857082  29.5552722
  62.9798687  13.0597735  29.1939357  61.6314279  13.7051499  29.4328451
  56.2793708  20.0054183  21.2342156  57.1820955  20.0377794  21.5508651
  56.0531078  19.0754634  21.2488491  73.7700003  24.5945708  18.9597997
  74.4078413  24.4752456  18.2561337  73.6520846  25.5426552  19.0185949
  70.5789710  24.5473136  18.8959521  70.2408221  24.4314201  18.0080056
  71.4479478  24.1464302  18.8760528  66.4376525  26.4008613  14.8856412
  65.8741390  26.3098550  14.1172700  66.3228920  25.5808517  15.3658905
  71.0609493  25.7007988  24.8545727  71.0498133  25.3060786  23.9826231
  71.2230132  24.9674061  25.4479498  63.9840957  27.8959804  17.7240633
  64.7762249  27.5550629  17.3086932  64.2237607  28.0054779  18.6442786
  72.0176084  30.0679581  10.1970877  71.3664064  30.6533661   9.8104891
  72.8120447  30.5985775  10.2565915  67.7816754  28.4845100  23.8024911
  67.4906620  29.3890731  23.6871577  68.4173738  28.5261628  24.5168980
  68.7072961  25.8621948  20.3926271  69.3036533  25.6377971  19.6783233
  68.7647932  25.1206694  20.9951718  73.3241272  22.3197162  16.0351205
  74.1104361  21.9016585  15.6841622  73.5879976  23.2243254  16.2032853
  73.4951349  27.7570012  10.7339862  72.8597182  27.8304639  11.4460766
  73.1648756  28.3463611  10.0558941  78.7249699  22.2572395  16.9384183
  79.4574871  21.6871612  17.1722013  77.9689055  21.8693996  17.3790689
  70.3425819  24.6799637  14.1347526  69.9784026  24.1530258  14.8460447
  71.1992935  24.2898106  13.9614011  76.2475119  15.9693969  21.3978792
  75.9158444  16.8389380  21.1740007  75.6520733  15.6530253  22.0772822
  72.7406639  28.1706515  20.7974705  72.4407362  29.0731554  20.6890512
  72.3957698  27.9038699  21.6495857  66.1919120  24.6220312  16.8311409
  65.2669617  24.4896526  17.0389101  66.4403534  25.4014532  17.3281351
  76.1403783  20.6889056  18.4772142  75.2320660  20.6204464  18.1830903
  76.0891378  21.1661001  19.3053967  63.5527931  24.2653586  17.6655198
  63.6820313  24.5188065  18.5794610  62.8725383  24.8581294  17.3459853
  67.7227419  34.9350836  13.7645672  67.6451448  35.8858661  13.8434153
  67.1189062  34.5896708  14.4220599  70.2144648  22.1078701  26.4207039
  69.4377983  22.6672621  26.4109904  70.8535212  22.5935484  26.9421909
  78.0065429  18.8905494  20.2550016  77.3639809  19.1838027  19.6089810
  77.5020358  18.7758414  21.0603212  75.6605593  22.6368667  10.9435875
  76.5723449  22.8696054  10.7683573  75.1515240  23.2205711  10.3810954
  68.4691021  24.9164155  25.9825006  69.2105705  25.4549199  25.7059830
  67.7628006  25.5430443  26.1396558  73.9446360  27.0593295  24.5797168
  74.3529716  26.6175706  23.8351800  73.2223622  26.4845923  24.8331361
  70.2977430  21.9965902  21.9530725  71.1438626  22.4205315  22.0965374
  70.2376068  21.3399526  22.6469288  74.2675175  27.6194486  18.3349457
  73.6384037  27.7840200  17.6325524  73.8800837  28.0336095  19.1060421
  78.1464407  28.5548924  15.6893820  77.4615445  28.9347825  15.1390854
  78.2308256  29.1644250  16.4225768  73.4476876  19.6570270  23.6111898
  73.2037808  20.4112331  23.0746174  73.7236806  20.0355618  24.4459145
  75.4015339  26.2008883  22.2889164  75.6132234  26.8440642  21.6123545
  75.3545087  25.3671199  21.8211094  73.0041568  18.8126703  19.1925736
  72.1426047  19.1107957  19.4842474  73.0304002  19.0297102  18.2606769
  69.8203137  27.3568894  15.5999542  70.2841482  27.6356597  14.8104164
  69.5559935  26.4552338  15.4172632  66.7127218  26.9040375  18.5379305
  67.2828575  27.3327644  17.8996789  67.3035330  26.6222960  19.2363491
  67.2052385  22.0703803  26.7840316  66.5751045  22.7520084  27.0175713
  67.0988472  21.9586884  25.8393454  62.4997357  21.7375599  17.7106240
  61.7096411  21.9933127  17.2346351  62.9908604  22.5523937  17.8158281
  76.5161166  29.0780838  20.4611521  77.3378610  28.6761025  20.1794203
  76.5123569  28.9749072  21.4127637  70.2817770  28.6264881  22.6172232
  70.3462202  29.0885289  23.4530403  69.5728694  27.9962246  22.7454542
  60.7835060  21.9906089  20.1421231  61.0343098  22.8753099  20.4078807
  61.3194608  21.8110691  19.3696323  84.6067160  25.4219586  16.8096493
  83.8530868  24.8526985  16.6540497  84.7414701  25.3882251  17.7567127
  69.9965788  30.2932989  12.4851212  69.8611462  31.1384524  12.9136060
  70.5375600  30.4952266  11.7217146  66.4833127  16.3724569  29.1465567
  66.0900073  15.8190767  29.8213211  67.2999268  16.6835147  29.5372085
  63.4495185  27.8108427  13.0579137  63.9619706  28.6051677  13.2084702
  64.1017898  27.1134717  12.9912739  65.2590070  30.9274183  15.1401890
  65.4356698  31.8492148  14.9522874  66.0546903  30.6132602  15.5696270
  69.4001088  17.7882448  26.7385824  70.1410802  18.3889601  26.6590286
  69.6319011  17.0460086  26.1803866  64.5442426  22.9738815  25.0164053
  64.4295941  22.0724072  25.3171152  63.6886944  23.2202512  24.6648870
  71.6234264  30.9156555  26.6151554  71.1798118  30.1292934  26.2972459
  72.2851478  31.1035706  25.9495445  66.3821385  32.4452357  21.1412233
  66.9328810  32.3169420  20.3689227  65.5432861  32.7447246  20.7907125
  73.7215502  31.1959355  24.6432955  73.7033977  32.0168236  24.1513225
  74.6435422  31.0713430  24.8683097  70.1788556  28.7103485  25.4856464
  70.7116893  27.9491773  25.2555772  69.6502637  28.4177137  26.2280618
  73.3458251  13.8163551  21.0150105  73.0022521  14.7065192  20.9389216
  73.7137214  13.6265208  20.1519690  72.4254792  16.1868206  18.9799339
  71.9219587  16.1498341  18.1667144  72.7185398  17.0960949  19.0395995
  68.6697677  16.2706936  17.9865520  69.5350674  16.0749744  17.6271410
  68.7375186  16.0417287  18.9134877  78.2842808  26.5604516  11.4575714
  77.5072251  26.2215676  11.0130876  78.9634289  26.5657140  10.7830679
  71.5441269  27.8389477  12.9975276  71.0162630  27.1042237  12.6848513
  71.0428772  28.6164154  12.7515244  76.5234115  26.0338498  18.1142322
  75.8657789  26.7237759  18.2022451  77.3274514  26.4234930  18.4576308
  75.3339574  24.3882870  16.1646264  75.8471455  25.0212862  16.6667974
  75.9840798  23.7884066  15.7989624  72.5961948  34.3667195   8.9206935
  71.9223647  34.6698891   9.5291893  72.9827770  35.1696275   8.5712392
  71.8120405  21.8632326  18.4104604  70.8942966  22.0847273  18.2526292
  72.2280548  21.9378636  17.5516312  72.5955452  23.2623742  13.5407285
  73.3427271  23.7745139  13.2314407  72.8647042  22.9407794  14.4011678
  76.1001370  29.3688872  14.2925406  75.6463697  28.5279782  14.3490597
  75.4695337  30.0050270  14.6300187  75.0434289  20.2980858  15.5226074
  74.3057046  19.7858244  15.8536316  75.2961063  19.8581239  14.7109351
  74.5434309  31.2065368  15.2275225  74.8357284  31.7670426  14.5087590
  75.0532930  31.4993929  15.9828384  69.4166997  23.3710903  16.6244034
  69.4715606  22.4184739  16.5486511  68.6058199  23.5270342  17.1085333
  67.3559356  21.9887963  14.3834413  66.5427222  22.2882133  14.7899605
  67.8518351  21.5943651  15.1008895  69.5067934  31.9845720  16.3168678
  69.4644113  32.2106566  15.3877210  70.4230633  31.7509094  16.4654479
  72.9533568  22.4529787  23.2149307  73.3082956  22.6801260  24.0743773
  73.6005699  22.7848164  22.5926562  78.6831305  25.5748223  13.9198636
  78.5449204  25.7649819  12.9919825  78.3267524  26.3367606  14.3766687
  66.8473431  19.5606318  19.9995648  67.4872811  19.4195077  19.3018611
  66.0150962  19.2740832  19.6234250  78.7100685  27.6424750  18.9309907
  79.1437191  27.5500039  19.7792962  79.4232265  27.6182250  18.2929923
  67.6233735  28.8608749  16.1130640  68.4174334  28.3659069  15.9113215
  66.9125428  28.3326612  15.7498346  72.4428580  31.2426844  20.4643008
  72.4965602  31.8117780  21.2320724  71.5743361  31.4128729  20.0997045
  65.3226973  20.9444400  21.9467459  65.9950026  20.7361762  21.2980108
  64.4956760  20.7466486  21.5072692  79.5716234  27.6848451  21.4642793
  79.7652124  28.5894261  21.7102068  79.4716852  27.2255870  22.2981378
  71.2252545  17.5706341  23.9633120  70.5780460  18.2696291  23.8697597
  71.9953560  18.0042485  24.3309368  74.6331343  27.8355193  27.0383674
  74.4816849  27.6065745  26.1213757  74.6236022  28.7925795  27.0515019
  71.4016679  25.4087106  22.0229940  72.3308739  25.5598266  21.8498907
  70.9807709  25.4971127  21.1678586  70.2005011  29.4337771  19.7928478
  70.0616097  29.0656555  20.6654416  69.4119607  29.9485410  19.6212435
  70.7953163  34.5346867  11.1354014  70.9704919  34.0634910  11.9499637
  70.1085951  35.1612633  11.3635275  71.7510226  28.8119373  17.1817315
  71.4160059  28.7720143  18.0774965  71.2514172  28.1464089  16.7087726
  65.7254470  24.2187003  22.7069897  65.5874268  23.4867242  23.3081436
  66.6359394  24.1295903  22.4254084  68.3536771  23.9306963  22.1953576
  69.0636389  23.2900155  22.1540195  68.3106079  24.1819857  23.1179757
  76.3423550  30.8674316  25.1160155  76.2836096  30.1833536  24.4490738
  76.7443068  31.6093306  24.6640781  67.0665705  20.9172181  24.0149216
  66.5303062  20.4662919  24.6670812  66.4782413  21.0518089  23.2719680
  65.3614248  37.6836230  17.9093874  65.6010847  38.3154754  18.5872893
  64.5183445  37.3324270  18.1959234  76.3440957  28.8313900  23.3474135
  75.4567736  28.4939822  23.4700534  76.9139508  28.0996931  23.5842900
  57.9970104  25.1637992  16.6717186  58.6841144  24.8499722  16.0838202
  57.8418233  26.0679356  16.3984438  62.8004826  20.0528188  21.1002210
  62.7163015  19.4453858  20.3652620  61.9787533  20.5437207  21.1011706
  69.8742110  33.4915352  20.3135378  69.8012282  34.2970324  20.8254683
  69.4319503  33.6907318  19.4883400  69.6631890  32.7287122  13.8238200
  68.8799412  33.2708802  13.9176424  70.3624635  33.2461102  14.2232441
  72.9728540  18.5381752  16.4672405  73.4697240  17.7851714  16.1473475
  72.2015521  18.5746068  15.9015615  80.8258297  24.2422117  18.1090697
  80.8148174  25.1246833  17.7384630  79.9575677  23.8893668  17.9145234
  72.3340794  33.3902186  22.4693537  73.0468766  34.0249651  22.3969438
  71.8430822  33.4866052  21.6533539  74.0558321  27.2953439  14.0410829
  73.1214599  27.4154901  13.8715533  74.2334989  26.3925906  13.7770838
  69.5563509  20.6799135  16.1944090  69.1861296  20.1270175  16.8824995
  70.0522601  20.0757268  15.6419090  77.4430872  23.1370758  14.5760863
  77.9091324  23.9698750  14.5021165  77.8938373  22.6715740  15.2806121
  67.3852707  31.1396630  23.2899108  68.0862167  31.7733113  23.4428502
  66.9147822  31.4811361  22.5294747  75.5107103  29.4814580  11.5747015
  75.7866947  29.3671174  12.4840889  74.6411602  29.0832064  11.5359188
  75.4147535  15.5051345  18.6151764  74.5010615  15.7355572  18.7833971
  75.8440636  15.5889789  19.4665796  75.1853993  23.6941237  21.1151658
  74.5325444  23.9417145  20.4604111  75.5634373  22.8805375  20.7814135
  72.1461167  33.7300930  15.2179828  72.3283562  32.9122586  15.6807581
  72.9694153  33.9468623  14.7804718  72.4803333  32.6569116  12.4794877
  73.0091099  32.1461570  11.8665039  72.7431552  32.3411646  13.3440410
  71.2341566  24.4361048  27.6017695  70.5582203  24.3355178  28.2720070
  72.0569200  24.2800262  28.0653692  62.9820425  30.6732985  20.2230210
  63.5673862  29.9276673  20.3558115  62.7845264  30.9836942  21.1066874
  65.8359081  33.7084232  15.2392653  65.1669456  34.1930360  14.7556693
  65.6971950  33.9553453  16.1536031  57.5738080  23.2438585  18.9434654
  57.6122180  22.7102176  19.7371772  57.0678373  22.7173791  18.3245631
  69.9764349  35.7427976  21.8375311  70.5282657  35.9059597  22.6024396
  70.3170543  36.3332414  21.1655336  64.9528842  18.0903126  22.4397196
  65.0170169  18.9517956  22.0274594  64.8895963  17.4777127  21.7069554
  64.4281115  20.1626258  26.0870230  65.0553154  19.7803335  26.7007754
  63.5709034  19.9440460  26.4525923  74.8275224  30.5689233  27.6923966
  75.3715127  31.1819191  27.1978920  74.2462068  31.1268812  28.2090979
  73.1132736  33.6909951  18.8238993  72.9883876  32.8899691  18.3149939
  73.7711828  34.1856145  18.3352963  64.7340905  20.0458684  18.0016134
  64.0127490  20.6594651  17.8623607  65.5234160  20.5816449  17.9232779
  75.1767645  31.4918971  20.4518543  74.2297980  31.3724323  20.3796870
  75.5250418  30.6041469  20.5344805  67.5367218  17.3813110  24.2756785
  68.0601620  17.6275407  25.0383095  67.3179551  18.2133145  23.8559923
  72.1814078  31.2871688  16.6522896  72.0339041  30.3588395  16.8330466
  73.0067572  31.3091778  16.1679971  75.7848200  32.1100246  17.7387768
  76.7094747  31.9043108  17.6012220  75.6163503  31.8616647  18.6477110
  68.7419763  18.3226805  21.9606456  68.4016584  17.5234618  22.3627136
  68.0358770  18.6228516  21.3883289  69.3936235  15.4076118  20.4133779
  70.2162304  14.9336596  20.2912669  69.6374299  16.1866602  20.9132465
  66.9174814  22.0995238  18.2225757  66.7719395  22.4135541  19.1150039
  66.4400017  22.7180139  17.6696656  68.7771197  19.0897786  18.2706647
  68.7632765  18.1938880  17.9338945  69.4943625  19.0968450  18.9044933
  70.6297327  19.5235127  20.3159774  70.3715105  20.4452197  20.3144105
  70.0982368  19.1265561  21.0060239  75.5743516  32.6285914  13.0949860
  75.7480394  32.0632336  12.3423712  76.0672407  33.4286809  12.9129350
  61.3920476  24.6400583  21.1613419  60.8473944  25.4160391  21.2933693
  62.2699826  24.9871387  21.0032540  81.4282907  25.3922337  14.7140160
  81.8714053  24.6429662  14.3159283  80.5509418  25.3832473  14.3313892
  76.5618689  31.9452678  10.1946758  77.2569593  32.5659371  10.4134073
  76.9041839  31.0948029  10.4699136  62.1786498  23.7670479  24.0543576
  61.4368234  23.9153114  24.6408206  61.8579242  24.0278745  23.1910325
  78.4610112  29.3952384  11.7234089  78.9861436  29.7339656  10.9983409
  78.3732464  28.4599399  11.5397224  70.1230160  33.3086457  23.8523966
  70.4317287  33.0635604  24.7246665  70.9205643  33.5133096  23.3642836
  70.1450773  35.4624367  16.0829342  69.7055763  34.9700746  16.7762199
  70.8958890  34.9197335  15.8421417  62.6243112  31.6535908  16.0853970
  63.4501131  31.3539680  15.7052614  62.2737164  30.8843530  16.5343759
  67.5924645  31.0062376  18.1551644  66.9704654  30.3433081  17.8553872
  68.2629512  31.0323508  17.4725292  60.8251717  29.5722234  17.0442904
  59.9883625  29.1444409  16.8626905  60.7975362  29.7654678  17.9813695
  67.6649172  19.4844164  27.7484150  67.7137328  20.3606287  27.3661919
  68.2071686  18.9421557  27.1755793  78.1504018  30.0285287  27.0285287
  77.3599562  30.0109426  26.4889786  77.9137372  30.5673581  27.7834323
  78.2701893  26.8777754  24.3418015  78.3199898  26.7127761  25.2833538
  78.1615816  26.0105013  23.9515896  67.1538152  29.5566299  11.6310104
  67.3026272  30.2401764  10.9776777  67.9604595  29.5371389  12.1459560
  75.5605655  22.8608682  25.6577322  76.4615518  22.7215147  25.3661320
  75.6353630  23.0263137  26.5975500  69.8948461  20.2375536  24.5030508
  69.0251770  20.5309103  24.2313097  70.1307941  20.8215981  25.2237772
  79.7720090  29.2974695  24.5860037  79.4804898  29.6604676  25.4223498
  79.1592221  28.5841703  24.4073369  80.9715772  26.8627575  17.1062607
  81.8062663  27.3017379  17.2700168  81.1074901  26.3866228  16.2870853
  78.0207278  24.4207310  23.0540095  78.4961400  24.6134956  22.2458946
  77.0972843  24.4766496  22.8083479  72.5987494  16.4555153  22.0195929
  73.1169438  17.1916180  21.6942417  72.2442627  16.7619147  22.8542688
  72.8500089  12.8755436  17.5396825  73.1301842  12.2078625  18.1657252
  73.6350696  13.0684532  17.0271489  70.6533557  32.0514430   9.1021852
  70.0807524  32.6704617   8.6492324  71.2266351  32.6013791   9.6361774
  76.7208947  21.2973070  21.2868401  77.6726370  21.3971168  21.3080625
  76.5512397  20.5051338  21.7966485  74.7423326  18.3828653  21.4727801
  74.1473259  18.6633666  20.7774290  74.4573023  18.8722554  22.2444543
  73.8730817  32.3351580  10.2330434  74.8061490  32.2697142  10.4363310
  73.7854030  33.1707847   9.7744967  76.5018834  31.6517450   7.1934382
  76.4232465  31.3177314   8.0870139  77.3228500  32.1439218   7.1925854
  79.1997025  24.5179190  20.4010700  79.1673345  23.5795190  20.5870384
  79.8097648  24.5963226  19.6676525  79.3491513  21.3090233  20.4468983
  78.8330562  20.5248690  20.2598912  80.2331462  20.9808950  20.6115503
  77.0102240  15.0531249  16.4064796  76.8127061  14.7446337  17.2908128
  77.6201946  15.7792887  16.5362726  85.0173575  25.5795196  19.5416737
  85.7476963  25.3180485  20.1024440  84.4080520  24.8423918  19.5818805
  83.0988872  23.7203059  20.1391188  82.3722035  23.5859024  19.5307680
  82.6836159  24.0279888  20.9447906  70.9219048  27.4392989  27.9038561
  71.8422058  27.6171588  28.0978608  70.8868631  26.4949034  27.7518260
  63.9181121  25.3494023  20.5461342  64.1367130  26.2811131  20.5649376
  64.3306895  24.9901998  21.3316146  68.7908986  20.9227229  29.9364091
  68.6905713  21.8721586  29.8676182  68.5730528  20.5945468  29.0640161
  60.0089473  26.2534494  18.7984957  59.3152945  25.8388447  18.2854912
  60.7562464  26.2955030  18.2018376  74.5958260  16.4445738  15.8661312
  75.0958039  16.5562273  15.0575631  75.2393868  16.1406791  16.5062120
  68.6540256  24.3524368  28.7529153  68.1707338  25.1524728  28.9593042
  68.7401195  24.3632313  27.7996597  61.9226216  26.1852748  16.6750972
  61.8996904  26.2840435  15.7232855  62.2326852  27.0317898  16.9968138
  64.5813594  28.2428903  20.7897587  65.5356847  28.2112845  20.7227518
  64.3826117  27.7819526  21.6047813  65.1712976  26.8130019  23.3568384
  65.9905865  27.3074097  23.3803222  65.4449783  25.8961987  23.3285952
  78.2794108  19.2287292  16.4350679  79.0554498  19.7183744  16.7075296
  77.5542242  19.6545346  16.8922549  80.7166667  19.9414911  17.4924620
  81.3111157  19.7010647  16.7817928  80.7893250  19.2222042  18.1198156
  62.9363822  33.7848522  17.8067785  62.8018290  33.0248923  17.2405783
  62.5195885  34.5089422  17.3396573  74.9020596  24.7195307  12.9346630
  74.8455797  25.1763858  12.0954262  75.4548938  23.9585992  12.7569473
  78.7125402  20.5085039  13.7596750  78.4562336  20.1081674  14.5904957
  78.0878270  21.2228833  13.6346889  83.0237739  23.2481112  16.2668041
  82.4637297  23.3174301  17.0399603  82.4181243  23.0722097  15.5467537
  66.0932948  34.6817839  18.0186227  65.9765332  35.6263272  17.9164917
  65.2725395  34.3791401  18.4072026  75.9809483  29.4067975   8.8642820
  76.8155087  28.9749173   8.6820295  75.8193826  29.2349989   9.7919714
  75.6355375  25.9100088  10.2299159  75.5804179  25.7444360   9.2887603
  75.0101430  26.6176121  10.3861349  60.4247890  21.1468153  24.0560581
  61.0706754  20.6367107  24.5447807  60.2165041  21.8836834  24.6304007
  72.9501282  28.2149000  29.5552722  73.8192442  28.3889652  29.1939357
  72.4708034  29.0343417  29.4328451  67.1187462  35.3346101  21.2342156
  68.0214709  35.3669711  21.5508651  66.8924832  34.4046552  21.2488491
  68.8741064  34.0877088  17.8952234  67.9236695  34.0878949  17.7816607
  69.1773551  33.3409822  17.3788269  64.7645381  18.2935770  28.1535596
  65.6276843  17.9372574  28.3638920  64.1910792  17.9549664  28.8411000
  84.6093758  39.9237626  18.9597997  85.2472168  39.8044373  18.2561337
  84.4914601  40.8718470  19.0185949  81.4183464  39.8765054  18.8959521
  81.0801976  39.7606119  18.0080056  82.2873232  39.4756219  18.8760528
  77.2770280  41.7300531  14.8856412  76.7135145  41.6390467  14.1172700
  77.1622675  40.9100435  15.3658905  81.9003247  41.0299906  24.8545727
  81.8891888  40.6352704  23.9826231  82.0623887  40.2965978  25.4479498
  74.8234712  43.2251722  17.7240633  75.6156004  42.8842547  17.3086932
  75.0631362  43.3346697  18.6442786  82.8569839  45.3971498  10.1970877
  82.2057818  45.9825579   9.8104891  83.6514201  45.9277693  10.2565915
  76.7825466  42.4860635  10.5958012  77.5556342  41.9389622  10.4570887
  77.1350865  43.3504885  10.8072473  78.6210508  43.8137018  23.8024911
  78.3300374  44.7182648  23.6871577  79.2567493  43.8553545  24.5168980
  79.5466715  41.1913866  20.3926271  80.1430287  40.9669889  19.6783233
  79.6041687  40.4498612  20.9951718  79.1191744  38.6453301   8.2276461
  79.3717264  38.1234823   7.4659924  78.1816303  38.4819447   8.3303145
  84.1635026  37.6489080  16.0351205  84.9498116  37.2308503  15.6841622
  84.4273731  38.5535172  16.2032853  84.3345104  43.0861930  10.7339862
  83.6990937  43.1596557  11.4460766  84.0042510  43.6755529  10.0558941
  89.5643453  37.5864313  16.9384183  90.2968625  37.0163530  17.1722013
  88.8082809  37.1985913  17.3790689  78.8388032  40.5481407  10.4300836
  78.7224290  39.8726311  11.0981921  78.9490292  40.0613781   9.6132989
  81.1819573  40.0091555  14.1347526  80.8177780  39.4822176  14.8460447
  82.0386689  39.6190024  13.9614011  87.0868874  31.2985887  21.3978792
  86.7552199  32.1681298  21.1740007  86.4914487  30.9822171  22.0772822
  80.8225060  35.0381454   9.1308874  80.9899463  35.9061691   9.4979345
  80.6322229  35.2008736   8.2070163  83.5800393  43.4998433  20.7974705
  83.2801116  44.4023472  20.6890512  83.2351453  43.2330616  21.6495857
  77.0312875  39.9512230  16.8311409  76.1063371  39.8188444  17.0389101
  77.2797288  40.7306449  17.3281351  86.9797537  36.0180973  18.4772142
  86.0714414  35.9496382  18.1830903  86.9285133  36.4952918  19.3053967
  80.8014281  37.4939112  10.1155541  80.6813906  37.9396163  10.9541021
  80.1066869  37.8424429   9.5569079  74.3921686  39.5945504  17.6655198
  74.5214067  39.8479982  18.5794610  73.7119137  40.1873212  17.3459853
  78.5621173  50.2642753  13.7645672  78.4845203  51.2150579  13.8434153
  77.9582817  49.9188626  14.4220599  81.0538403  37.4370619  26.4207039
  80.2771737  37.9964539  26.4109904  81.6928966  37.9227402  26.9421909
  88.8459184  34.2197412  20.2550016  88.2033564  34.5129945  19.6089810
  88.3414112  34.1050332  21.0603212  86.4999347  37.9660585  10.9435875
  87.4117203  38.1987972  10.7683573  85.9908994  38.5497629  10.3810954
  79.3084775  40.2456072  25.9825006  80.0499460  40.7841116  25.7059830
  78.6021761  40.8722361  26.1396558  84.7840115  42.3885213  24.5797168
  85.1923471  41.9467623  23.8351800  84.0617376  41.8137840  24.8331361
  81.1371185  37.3257820  21.9530725  81.9832380  37.7497233  22.0965374
  81.0769823  36.6691444  22.6469288  85.1068930  42.9486403  18.3349457
  84.4777792  43.1132117  17.6325524  84.7194592  43.3628013  19.1060421
  88.9858161  43.8840841  15.6893820  88.3009200  44.2639743  15.1390854
  89.0702011  44.4936168  16.4225768  84.2870630  34.9862188  23.6111898
  84.0431562  35.7404248  23.0746174  84.5630561  35.3647535  24.4459145
  86.2409093  41.5300800  22.2889164  86.4525988  42.1732560  21.6123545
  86.1938841  40.6963117  21.8211094  83.8435322  34.1418621  19.1925736
  82.9819801  34.4399874  19.4842474  83.8697757  34.3589020  18.2606769
  80.6596891  42.6860811  15.5999542  81.1235237  42.9648514  14.8104164
  80.3953690  41.7844256  15.4172632  77.5520972  42.2332293  18.5379305
  78.1222330  42.6619561  17.8996789  78.1429084  41.9514878  19.2363491
  79.5965777  38.8083964  12.4089107  80.2989821  39.2605007  12.8763033
  79.2646406  38.1667783  13.0369000  78.0446139  37.3995720  26.7840316
  77.4144800  38.0812001  27.0175713  77.9382227  37.2878802  25.8393454
  73.3391111  37.0667516  17.7106240  72.5490165  37.3225045  17.2346351
  73.8302359  37.8815854  17.8158281  87.3554921  44.4072756  20.4611521
  88.1772365  44.0052943  20.1794203  87.3517324  44.3040990  21.4127637
  75.2905857  37.4312096  14.6689717  74.4937020  37.5430790  15.1873213
  75.0631449  37.7698748  13.8030608  81.1211524  43.9556799  22.6172232
  81.1855957  44.4177206  23.4530403  80.4122448  43.3254164  22.7454542
  71.6228814  37.3198007  20.1421231  71.8736853  38.2045017  20.4078807
  72.1588363  37.1402608  19.3696323  95.4460914  40.7511504  16.8096493
  94.6924622  40.1818902  16.6540497  95.5808455  40.7174169  17.7567127
  80.8359542  45.6224906  12.4851212  80.7005217  46.4676442  12.9136060
  81.3769355  45.8244184  11.7217146  77.3226882  31.7016486  29.1465567
  76.9293827  31.1482685  29.8213211  78.1393022  32.0127065  29.5372085
  74.2888939  43.1400344  13.0579137  74.8013460  43.9343595  13.2084702
  74.9411652  42.4426635  12.9912739  76.0983824  46.2566101  15.1401890
  76.2750453  47.1784065  14.9522874  76.8940658  45.9424520  15.5696270
  80.2394843  33.1174365  26.7385824  80.9804556  33.7181519  26.6590286
  80.4712766  32.3752003  26.1803866  75.3836181  38.3030733  25.0164053
  75.2689696  37.4015990  25.3171152  74.5280698  38.5494429  24.6648870
  82.4628018  46.2448473  26.6151554  82.0191873  45.4584852  26.2972459
  83.1245232  46.4327623  25.9495445  77.2215140  47.7744275  21.1412233
  77.7722565  47.6461338  20.3689227  76.3826616  48.0739164  20.7907125
  84.5609257  46.5251273  24.6432955  84.5427732  47.3460154  24.1513225
  85.4829177  46.4005348  24.8683097  81.0182311  44.0395402  25.4856464
  81.5510647  43.2783691  25.2555772  80.4896392  43.7469054  26.2280618
  84.1852006  29.1455468  21.0150105  83.8416275  30.0357110  20.9389216
  84.5530968  28.9557126  20.1519690  72.2537856  41.4688999  13.8338708
  73.0913078  41.8786007  13.6172415  72.4316124  40.5288441  13.8038901
  84.1502288  39.1364079   9.5222541  83.6348912  39.9068684   9.7610928
  83.8779597  38.4629216  10.1455602  81.7349399  33.9813780  14.5807779
  80.8790996  33.5920631  14.4013418  82.1476351  34.0605741  13.7207564
  83.2648546  31.5160123  18.9799339  82.7613342  31.4790259  18.1667144
  83.5579153  32.4252866  19.0395995  79.5091432  31.5998853  17.9865520
  80.3744429  31.4041662  17.6271410  79.5768941  31.3709205  18.9134877
  89.1236563  41.8896434  11.4575714  88.3466005  41.5507594  11.0130876
  89.8028043  41.8949057  10.7830679  83.9388592  37.0091172  11.3482322
  83.6338727  37.3237321  12.1992465  84.8919034  37.0872591  11.3909655
  82.3835023  43.1681395  12.9975276  81.8556385  42.4334154  12.6848513
  81.8822526  43.9456071  12.7515244  87.3627869  41.3630415  18.1142322
  86.7051544  42.0529677  18.2022451  88.1668269  41.7526847  18.4576308
  77.1153751  33.8301061  15.3581887  77.6897503  33.6076243  14.6255080
  77.7024733  33.8989756  16.1110489  86.1733328  39.7174788  16.1646264
  86.6865210  40.3504780  16.6667974  86.8234552  39.1175984  15.7989624
  77.4423338  35.8605522   9.3777773  76.6060650  36.1980209   9.6987047
  77.3028108  35.7254502   8.4404909  79.4176419  30.7042310  14.0856957
  78.7640831  30.3891327  13.4613571  79.3756893  30.0818050  14.8116780
  80.5287624  40.9861605   6.0010249  79.6214685  40.7550859   6.2001398
  81.0258656  40.1899224   6.1884230  83.4355702  49.6959112   8.9206935
  82.7617401  49.9990809   9.5291893  83.8221524  50.4988193   8.5712392
  82.6514159  37.1924244  18.4104604  81.7336720  37.4139191  18.2526292
  83.0674303  37.2670554  17.5516312  83.4349207  38.5915659  13.5407285
  84.1821026  39.1037056  13.2314407  83.7040796  38.2699712  14.4011678
  81.7075857  41.0874200  10.5234239  80.7987076  40.8033233  10.6206709
  81.7370941  41.5073279   9.6637546  86.9395124  44.6980789  14.2925406
  86.4857452  43.8571699  14.3490597  86.3089091  45.3342188  14.6300187
  85.8828044  35.6272776  15.5226074  85.1450801  35.1150162  15.8536316
  86.1354818  35.1873157  14.7109351  85.3828064  46.5357286  15.2275225
  85.6751038  47.0962343  14.5087590  85.8926684  46.8285847  15.9828384
  85.9839671  28.4049028  16.1167843  86.2898548  27.5446391  15.8293758
  86.7092276  28.9966648  15.9166837  72.2764027  38.8079714  14.5049441
  72.0788427  38.2149075  13.7800508  71.7210691  38.5031924  15.2225380
  80.2560751  38.7002821  16.6244034  80.3109361  37.7476657  16.5486511
  79.4451953  38.8562260  17.1085333  81.4051945  42.6282944   7.8622317
  80.9671375  41.9118803   7.4027955  82.1462386  42.8559058   7.3007409
  78.1953111  37.3179880  14.3834413  77.3820977  37.6174051  14.7899605
  78.6912105  36.9235569  15.1008895  80.3461689  47.3137637  16.3168678
  80.3037868  47.5398484  15.3877210  81.2624388  47.0801012  16.4654479
  83.7927323  37.7821705  23.2149307  84.1476710  38.0093178  24.0743773
  84.4399454  38.1140082  22.5926562  89.5225060  40.9040141  13.9198636
  89.3842958  41.0941737  12.9919825  89.1661278  41.6659524  14.3766687
  77.6867186  34.8898236  19.9995648  78.3266565  34.7486995  19.3018611
  76.8544716  34.6032749  19.6234250  89.5494439  42.9716668  18.9309907
  89.9830946  42.8791957  19.7792962  90.2626020  42.9474168  18.2929923
  78.4627490  44.1900666  16.1130640  79.2568088  43.6950986  15.9113215
  77.7519182  43.6618529  15.7498346  83.2822334  46.5718762  20.4643008
  83.3359356  47.1409698  21.2320724  82.4137115  46.7420647  20.0997045
  74.7710253  38.3343748  12.1890393  73.8407841  38.2728203  12.4060355
  74.8667725  37.8119701  11.3927034  74.6895802  34.8598561  14.7768635
  74.9502619  35.7743894  14.6677795  75.5112974  34.3923003  14.9265248
  76.1620727  36.2736318  21.9467459  76.8343781  36.0653680  21.2980108
  75.3350514  36.0758404  21.5072692  90.4109989  43.0140368  21.4642793
  90.6045879  43.9186179  21.7102068  90.3110607  42.5547787  22.2981378
  82.0646299  32.8998259  23.9633120  81.4174215  33.5988209  23.8697597
  82.8347315  33.3334403  24.3309368  85.4725097  43.1647111  27.0383674
  85.3210604  42.9357663  26.1213757  85.4629777  44.1217713  27.0515019
  82.2410434  40.7379024  22.0229940  83.1702494  40.8890183  21.8498907
  81.8201464  40.8263045  21.1678586  81.0398766  44.7629688  19.7928478
  80.9009851  44.3948473  20.6654416  80.2513362  45.2777328  19.6212435
  81.6346918  49.8638785  11.1354014  81.8098673  49.3926828  11.9499637
  80.9479706  50.4904551  11.3635275  82.5903981  44.1411291  17.1817315
  82.2553813  44.1012061  18.0774965  82.0907926  43.4756007  16.7087726
  76.5648225  39.5478921  22.7069897  76.4268023  38.8159160  23.3081436
  77.4753148  39.4587821  22.4254084  85.5263172  41.4867325   7.4554375
  84.9092343  40.7614153   7.3587428  85.0579661  42.2476686   7.1121449
  79.1930525  39.2598880  22.1953576  79.9030144  38.6192073  22.1540195
  79.1499834  39.5111775  23.1179757  87.1817304  46.1966234  25.1160155
  87.1229850  45.5125454  24.4490738  87.5836822  46.9385224  24.6640781
  77.9059459  36.2464098  24.0149216  77.3696816  35.7954837  24.6670812
  77.3176168  36.3810007  23.2719680  76.2008003  53.0128147  17.9093874
  76.4404601  53.6446672  18.5872893  75.3577199  52.6616188  18.1959234
  77.3161718  35.7052750   6.5775679  76.4391185  35.5841550   6.2137926
  77.7919471  34.9138828   6.3254568  87.1834711  44.1605818  23.3474135
  86.2961490  43.8231739  23.4700534  87.7533262  43.4288849  23.5842900
  68.8363858  40.4929909  16.6717186  69.5234898  40.1791639  16.0838202
  68.6811987  41.3971274  16.3984438  73.6398581  35.3820106  21.1002210
  73.5556769  34.7745775  20.3652620  72.8181287  35.8729124  21.1011706
  80.7135865  48.8207270  20.3135378  80.6406036  49.6262241  20.8254683
  80.2713258  49.0199236  19.4883400  80.5025644  48.0579040  13.8238200
  79.7193166  48.6000720  13.9176424  81.2018390  48.5753020  14.2232441
  83.8122294  33.8673669  16.4672405  84.3090994  33.1143632  16.1473475
  83.0409276  33.9037986  15.9015615  91.6652052  39.5714035  18.1090697
  91.6541928  40.4538750  17.7384630  90.7969431  39.2185586  17.9145234
  83.1734548  48.7194104  22.4693537  83.8862520  49.3541569  22.3969438
  82.6824577  48.8157970  21.6533539  84.8952075  42.6245357  14.0410829
  83.9608354  42.7446819  13.8715533  85.0728744  41.7217823  13.7770838
  80.3957263  36.0091052  16.1944090  80.0255051  35.4562093  16.8824995
  80.8916356  35.4049186  15.6419090  88.2824627  38.4662676  14.5760863
  88.7485079  39.2990668  14.5021165  88.7332127  38.0007657  15.2806121
  78.2246462  46.4688547  23.2899108  78.9255921  47.1025030  23.4428502
  77.7541577  46.8103279  22.5294747  86.3500858  44.8106497  11.5747015
  86.6260702  44.6963092  12.4840889  85.4805356  44.4123982  11.5359188
  86.2541289  30.8343263  18.6151764  85.3404369  31.0647490  18.7833971
  86.6834391  30.9181707  19.4665796  86.0247748  39.0233155  21.1151658
  85.3719198  39.2709062  20.4604111  86.4028128  38.2097293  20.7814135
  82.9854922  49.0592848  15.2179828  83.1677316  48.2414504  15.6807581
  83.8087908  49.2760540  14.7804718  83.3197087  47.9861033  12.4794877
  83.8484854  47.4753488  11.8665039  83.5825307  47.6703563  13.3440410
  82.0735321  39.7652966  27.6017695  81.3975958  39.6647095  28.2720070
  82.8962955  39.6092180  28.0653692  73.8214180  46.0024902  20.2230210
  74.4067617  45.2568590  20.3558115  73.6239018  46.3128859  21.1066874
  76.6752835  49.0376150  15.2392653  76.0063210  49.5222277  14.7556693
  76.5365705  49.2845370  16.1536031  68.4131835  38.5730503  18.9434654
  68.4515934  38.0394093  19.7371772  67.9072127  38.0465708  18.3245631
  80.8158104  51.0719893  21.8375311  81.3676412  51.2351515  22.6024396
  81.1564297  51.6624331  21.1655336  75.7922597  33.4195043  22.4397196
  75.8563923  34.2809874  22.0274594  75.7289717  32.8069045  21.7069554
  75.2674869  35.4918176  26.0870230  75.8946908  35.1095253  26.7007754
  74.4102788  35.2732378  26.4525923  85.6668978  45.8981151  27.6923966
  86.2108882  46.5111109  27.1978920  85.0855823  46.4560729  28.2090979
  72.0440412  37.2994605  12.0188585  72.3393853  36.3905283  11.9655639
  71.1428448  37.2782344  11.6969587  83.9526491  49.0201869  18.8238993
  83.8277630  48.2191609  18.3149939  84.6105582  49.5148062  18.3352963
  75.5734659  35.3750601  18.0016134  74.8521245  35.9886569  17.8623607
  76.3627915  35.9108366  17.9232779  86.0161399  46.8210889  20.4518543
  85.0691735  46.7016240  20.3796870  86.3644172  45.9333387  20.5344805
  78.3760973  32.7105028  24.2756785  78.8995375  32.9567324  25.0383095
  78.1573306  33.5425063  23.8559923  73.7728254  34.9808702  12.1427910
  73.4440960  34.1006081  11.9603016  74.1267624  34.9256371  13.0304299
  83.0207833  46.6163605  16.6522896  82.8732795  45.6880313  16.8330466
  83.8461326  46.6383696  16.1679971  76.8870077  35.2681672  12.5103388
  77.2266149  35.7967594  11.7881996  77.3342197  35.6062078  13.2861954
  86.6241954  47.4392164  17.7387768  87.5488502  47.2335025  17.6012220
  86.4557258  47.1908565  18.6477110  79.5813518  33.6518723  21.9606456
  79.2410338  32.8526536  22.3627136  78.8752524  33.9520434  21.3883289
  80.2329990  30.7368035  20.4133779  81.0556059  30.2628514  20.2912669
  80.4768053  31.5158519  20.9132465  78.8738224  33.7656294  10.7096681
  79.5946587  34.1437547  10.2060397  78.2503528  34.4845171  10.8131658
  83.0169347  34.4701443  11.6455013  83.2332961  35.3526081  11.3443841
  82.5363414  34.0787656  10.9160655  77.7568568  37.4287156  18.2225757
  77.6113149  37.7427459  19.1150039  77.2793772  38.0472056  17.6696656
  79.6164951  34.4189704  18.2706647  79.6026520  33.5230797  17.9338945
  80.3337379  34.4260368  18.9044933  81.4691082  34.8527044  20.3159774
  81.2108860  35.7744115  20.3144105  80.9376122  34.4557479  21.0060239
  86.4137271  47.9577831  13.0949860  86.5874148  47.3924254  12.3423712
  86.9066162  48.7578726  12.9129350  72.2314230  39.9692500  21.1613419
  71.6867699  40.7452308  21.2933693  73.1093580  40.3163305  21.0032540
  79.0201847  33.3004084  13.5394217  79.1417758  32.3720731  13.7385105
  78.7303890  33.3142770  12.6272533  81.8893038  30.9858995  16.6760937
  81.9114734  31.0498328  15.7212917  82.3061097  30.1463503  16.8701443
  92.2676662  40.7214254  14.7140160  92.7107808  39.9721580  14.3159283
  91.3903172  40.7124391  14.3313892  87.4012443  47.2744596  10.1946758
  88.0963348  47.8951288  10.4134073  87.7435593  46.4239947  10.4699136
  73.0180252  39.0962397  24.0543576  72.2761988  39.2445032  24.6408206
  72.6972997  39.3570662  23.1910325  89.3003866  44.7244301  11.7234089
  89.8255190  45.0631574  10.9983409  89.2126219  43.7891317  11.5397224
  80.9623915  48.6378375  23.8523966  81.2711041  48.3927522  24.7246665
  81.7599397  48.8425013  23.3642836  80.9844527  50.7916285  16.0829342
  80.5449517  50.2992663  16.7762199  81.7352644  50.2489252  15.8421417
  73.4636866  46.9827825  16.0853970  74.2894886  46.6831597  15.7052614
  73.1130918  46.2135448  16.5343759  78.4318399  46.3354294  18.1551644
  77.8098408  45.6724999  17.8553872  79.1023266  46.3615426  17.4725292
  71.6645471  44.9014152  17.0442904  70.8277379  44.4736326  16.8626905
  71.6369116  45.0946595  17.9813695  78.5042927  34.8136082  27.7484150
  78.5531082  35.6898205  27.3661919  79.0465441  34.2713475  27.1755793
  88.9897772  45.3577205  27.0285287  88.1993316  45.3401344  26.4889786
  88.7531127  45.8965499  27.7834323  89.1095647  42.2069671  24.3418015
  89.1593652  42.0419679  25.2833538  89.0009571  41.3396930  23.9515896
  77.9931906  44.8858217  11.6310104  78.1420026  45.5693681  10.9776777
  78.7998350  44.8663307  12.1459560  86.3999410  38.1900599  25.6577322
  87.3009273  38.0507064  25.3661320  86.4747384  38.3555054  26.5975500
  80.7342215  35.5667454  24.5030508  79.8645525  35.8601020  24.2313097
  80.9701695  36.1507899  25.2237772  90.6113844  44.6266613  24.5860037
  90.3198653  44.9896593  25.4223498  89.9985976  43.9133621  24.4073369
  91.8109527  42.1919493  17.1062607  92.6456418  42.6309297  17.2700168
  91.9468655  41.7158146  16.2870853  88.8601032  39.7499227  23.0540095
  89.3355154  39.9426874  22.2458946  87.9366598  39.8058413  22.8083479
  75.7484539  40.9123395  12.6371173  75.5030581  40.0085725  12.8351383
  75.9180454  40.9140545  11.6950651  83.4381249  31.7847071  22.0195929
  83.9563193  32.5208098  21.6942417  83.0836382  32.0911064  22.8542688
  75.0180187  36.6451752  10.1357335  74.3249432  36.7196107   9.4797371
  74.7731939  35.8812096  10.6578852  83.6893843  28.2047354  17.5396825
  83.9695597  27.5370543  18.1657252  84.4744450  28.3976449  17.0271489
  81.4927312  47.3806347   9.1021852  80.9201279  47.9996535   8.6492324
  82.0660105  47.9305709   9.6361774  87.5602701  36.6264988  21.2868401
  88.5120124  36.7263085  21.3080625  87.3906152  35.8343256  21.7966485
  85.5817081  33.7120571  21.4727801  84.9867013  33.9925584  20.7774290
  85.2966778  34.2014472  22.2444543  84.7124571  47.6643498  10.2330434
  85.6455245  47.5989059  10.4363310  84.6247784  48.4999764   9.7744967
  87.3412588  46.9809368   7.1934382  87.2626220  46.6469232   8.0870139
  88.1622255  47.4731136   7.1925854  90.0390779  39.8471107  20.4010700
  90.0067099  38.9087108  20.5870384  90.6491403  39.9255144  19.6676525
  81.8774110  38.7167160   6.4437904  82.8233215  38.5873368   6.5126322
  81.4988355  37.9781822   6.9207332  90.1885268  36.6382151  20.4468983
  89.6724316  35.8540607  20.2598912  91.0725216  36.3100867  20.6115503
  87.8495995  30.3823166  16.4064796  87.6520816  30.0738254  17.2908128
  88.4595700  31.1084805  16.5362726  95.8567329  40.9087114  19.5416737
  96.5870718  40.6472402  20.1024440  95.2474275  40.1715836  19.5818805
  93.9382626  39.0494977  20.1391188  93.2115790  38.9150942  19.5307680
  93.5229913  39.3571805  20.9447906  81.7612803  42.7684906  27.9038561
  82.6815812  42.9463505  28.0978608  81.7262386  41.8240952  27.7518260
  80.0617027  36.6417137   6.3792789  79.1548483  36.3450249   6.4555503
  80.3393008  36.3446955   5.5127076  70.9794968  37.9623500  16.8291836
  70.6597752  37.1088808  16.5366210  70.4328396  38.1772078  17.5849803
  74.7574875  40.6785941  20.5461342  74.9760885  41.6103049  20.5649376
  75.1700649  40.3193915  21.3316146  81.6779093  31.1854026  12.5337031
  80.8679821  30.8401111  12.9092277  82.3663510  30.8761570  13.1224642
  83.6069641  30.2632073  14.1561327  84.1600680  30.6827527  14.8151350
  83.8439728  29.3367821  14.1984283  79.6302741  36.2519147  29.9364091
  79.5299467  37.2013504  29.8676182  79.4124283  35.9237386  29.0640161
  78.8315812  33.5004072   6.5204769  79.6934976  33.8258970   6.7800586
  79.0166156  32.7135568   6.0077834  70.8483228  41.5826412  18.7984957
  70.1546699  41.1680364  18.2854912  71.5956219  41.6246948  18.2018376
  86.9848448  32.3732598  13.6639992  86.4047117  33.0317402  13.2818044
  86.7184381  31.5509943  13.2527409  85.4352015  31.7737656  15.8661312
  85.9351793  31.8854191  15.0575631  86.0787623  31.4698709  16.5062120
  79.4934011  39.6816286  28.7529153  79.0101092  40.4816646  28.9593042
  79.5794950  39.6924230  27.7996597  72.7619970  41.5144665  16.6750972
  72.7390658  41.6132353  15.7232855  73.0720607  42.3609816  16.9968138
  75.4207348  43.5720820  20.7897587  76.3750602  43.5404763  20.7227518
  75.2219872  43.1111444  21.6047813  76.0106730  42.1421936  23.3568384
  76.8299619  42.6366015  23.3803222  76.2843538  41.2253905  23.3285952
  85.7673326  34.5332689  12.7196340  84.8799181  34.8182339  12.5016535
  86.1827315  34.3726452  11.8723617  89.1187863  34.5579210  16.4350679
  89.8948253  35.0475662  16.7075296  88.3935997  34.9837264  16.8922549
  91.5560421  35.2706829  17.4924620  92.1504912  35.0302565  16.7817928
  91.6287005  34.5513959  18.1198156  73.7757577  49.1140440  17.8067785
  73.6412045  48.3540841  17.2405783  73.3589639  49.8381340  17.3396573
  84.9116540  44.2977363   6.8144360  85.6152390  44.5027366   7.4302015
  84.1879189  44.8654125   7.0793443  85.7414350  40.0487225  12.9346630
  85.6849552  40.5055776  12.0954262  86.2942693  39.2877909  12.7569473
  89.5519156  35.8376956  13.7596750  89.2956090  35.4373592  14.5904957
  88.9272024  36.5520750  13.6346889  93.8631494  38.5773030  16.2668041
  93.3031052  38.6466219  17.0399603  93.2574997  38.4014014  15.5467537
  76.9326703  50.0109757  18.0186227  76.8159087  50.9555189  17.9164917
  76.1119149  49.7083318  18.4072026  86.8203237  44.7359893   8.8642820
  87.6548841  44.3041091   8.6820295  86.6587580  44.5641906   9.7919714
  86.4749129  41.2392006  10.2299159  86.4197933  41.0736277   9.2887603
  85.8495185  41.9468039  10.3861349  71.2641644  36.4760070  24.0560581
  71.9100508  35.9659024  24.5447807  71.0558796  37.2128752  24.6304007
  83.7895037  43.5440918  29.5552722  84.6586196  43.7181570  29.1939357
  83.3101788  44.3635335  29.4328451  79.7845255  30.7400115   9.8084478
  79.7723925  31.6841955   9.9652748  80.6768677  30.5570260   9.5143939
  77.9581217  50.6638019  21.2342156  78.8608464  50.6961629  21.5508651
  77.7318587  49.7338470  21.2488491  79.7134819  49.4169005  17.8952234
  78.7630450  49.4170867  17.7816607  80.0167305  48.6701740  17.3788269
  83.5997374  27.3342892  14.0630414  82.8329770  26.7801378  14.2087097
  84.0108079  27.4064760  14.9244566  75.6039135  33.6227687  28.1535596
  76.4670597  33.2664492  28.3638920  75.0304546  33.2841582  28.8411000
  95.4487512  55.2529544  18.9597997  96.0865922  55.1336291  18.2561337
  95.3308355  56.2010388  19.0185949  92.2577219  55.2056972  18.8959521
  91.9195730  55.0898036  18.0080056  93.1266987  54.8048137  18.8760528
  88.1164034  57.0592448  14.8856412  87.5528899  56.9682385  14.1172700
  88.0016429  56.2392353  15.3658905  92.7397002  56.3591823  24.8545727
  92.7285642  55.9644622  23.9826231  92.9017641  55.6257896  25.4479498
  85.6628466  58.5543640  17.7240633  86.4549758  58.2134464  17.3086932
  85.9025116  58.6638615  18.6442786  93.6963593  60.7263416  10.1970877
  93.0451573  61.3117496   9.8104891  94.4907956  61.2569611  10.2565915
  87.6219220  57.8152553  10.5958012  88.3950096  57.2681540  10.4570887
  87.9744619  58.6796802  10.8072473  89.4604263  59.1428935  23.8024911
  89.1694129  60.0474566  23.6871577  90.0961247  59.1845463  24.5168980
  90.3860470  56.5205784  20.3926271  90.9824042  56.2961806  19.6783233
  90.4435441  55.7790529  20.9951718  89.9585498  53.9745219   8.2276461
  90.2111019  53.4526740   7.4659924  89.0210057  53.8111365   8.3303145
  95.0028781  52.9780998  16.0351205  95.7891870  52.5600421  15.6841622
  95.2667485  53.8827090  16.2032853  95.1738858  58.4153848  10.7339862
  94.5384691  58.4888474  11.4460766  94.8436265  59.0047447  10.0558941
 100.4037208  52.9156231  16.9384183 101.1362380  52.3455448  17.1722013
  99.6476564  52.5277831  17.3790689  89.6781787  55.8773325  10.4300836
  89.5618045  55.2018228  11.0981921  89.7884047  55.3905699   9.6132989
  92.0213328  55.3383472  14.1347526  91.6571535  54.8114093  14.8460447
  92.8780444  54.9481941  13.9614011  97.9262628  46.6277805  21.3978792
  97.5945953  47.4973216  21.1740007  97.3308242  46.3114089  22.0772822
  91.6618815  50.3673372   9.1308874  91.8293217  51.2353608   9.4979345
  91.4715984  50.5300654   8.2070163  94.4194148  58.8290351  20.7974705
  94.1194871  59.7315390  20.6890512  94.0745207  58.5622534  21.6495857
  87.8706629  55.2804148  16.8311409  86.9457126  55.1480362  17.0389101
  88.1191043  56.0598367  17.3281351  97.8191292  51.3472891  18.4772142
  96.9108169  51.2788299  18.1830903  97.7678887  51.8244836  19.3053967
  91.6408036  52.8231029  10.1155541  91.5207661  53.2688080  10.9541021
  90.9460624  53.1716347   9.5569079  85.2315440  54.9237421  17.6655198
  85.3607822  55.1771900  18.5794610  84.5512892  55.5165129  17.3459853
  89.4014928  65.5934671  13.7645672  89.3238957  66.5442496  13.8434153
  88.7976571  65.2480544  14.4220599  91.8932157  52.7662537  26.4207039
  91.1165491  53.3256457  26.4109904  92.5322720  53.2519320  26.9421909
  99.6852938  49.5489329  20.2550016  99.0427318  49.8421863  19.6089810
  99.1807867  49.4342250  21.0603212  97.3393102  53.2952503  10.9435875
  98.2510958  53.5279889  10.7683573  96.8302749  53.8789547  10.3810954
  90.1478530  55.5747990  25.9825006  90.8893214  56.1133034  25.7059830
  89.4415515  56.2014279  26.1396558  95.6233869  57.7177130  24.5797168
  96.0317225  57.2759541  23.8351800  94.9011131  57.1429758  24.8331361
  91.9764939  52.6549737  21.9530725  92.8226135  53.0789151  22.0965374
  91.9163577  51.9983362  22.6469288  95.9462684  58.2778321  18.3349457
  95.3171546  58.4424035  17.6325524  95.5588346  58.6919931  19.1060421
  99.8251916  59.2132759  15.6893820  99.1402954  59.5931660  15.1390854
  99.9095765  59.8228086  16.4225768  95.1264385  50.3154106  23.6111898
  94.8825317  51.0696166  23.0746174  95.4024315  50.6939453  24.4459145
  97.0802848  56.8592718  22.2889164  97.2919743  57.5024478  21.6123545
  97.0332596  56.0255034  21.8211094  94.6829076  49.4710539  19.1925736
  93.8213556  49.7691792  19.4842474  94.7091511  49.6880937  18.2606769
  91.4990646  58.0152729  15.5999542  91.9628991  58.2940432  14.8104164
  91.2347444  57.1136174  15.4172632  88.3914727  57.5624211  18.5379305
  88.9616084  57.9911479  17.8996789  88.9822839  57.2806795  19.2363491
  90.4359532  54.1375882  12.4089107  91.1383575  54.5896925  12.8763033
  90.1040160  53.4959700  13.0369000  88.8839893  52.7287638  26.7840316
  88.2538554  53.4103919  27.0175713  88.7775981  52.6170720  25.8393454
  84.1784866  52.3959434  17.7106240  83.3883920  52.6516963  17.2346351
  84.6696113  53.2107772  17.8158281  98.1948675  59.7364673  20.4611521
  99.0166119  59.3344861  20.1794203  98.1911078  59.6332908  21.4127637
  86.1299611  52.7604013  14.6689717  85.3330775  52.8722708  15.1873213
  85.9025203  53.0990666  13.8030608  91.9605279  59.2848717  22.6172232
  92.0249711  59.7469124  23.4530403  91.2516203  58.6546082  22.7454542
  82.4622569  52.6489925  20.1421231  82.7130607  53.5336935  20.4078807
  82.9982117  52.4694526  19.3696323 106.2854669  56.0803422  16.8096493
 105.5318377  55.5110820  16.6540497 106.4202210  56.0466086  17.7567127
  91.6753297  60.9516824  12.4851212  91.5398971  61.7968360  12.9136060
  92.2163109  61.1536102  11.7217146  88.1620636  47.0308404  29.1465567
  87.7687582  46.4774603  29.8213211  88.9786777  47.3418982  29.5372085
  85.1282694  58.4692262  13.0579137  85.6407215  59.2635512  13.2084702
  85.7805407  57.7718553  12.9912739  86.9377579  61.5858018  15.1401890
  87.1144207  62.5075983  14.9522874  87.7334412  61.2716438  15.5696270
  91.0788597  48.4466283  26.7385824  91.8198311  49.0473436  26.6590286
  91.3106520  47.7043921  26.1803866  86.2229935  53.6322650  25.0164053
  86.1083450  52.7307908  25.3171152  85.3674453  53.8786347  24.6648870
  93.3021773  61.5740391  26.6151554  92.8585627  60.7876769  26.2972459
  93.9638987  61.7619541  25.9495445  88.0608894  63.1036192  21.1412233
  88.6116319  62.9753256  20.3689227  87.2220370  63.4031081  20.7907125
  95.4003011  61.8543191  24.6432955  95.3821486  62.6752072  24.1513225
  96.3222931  61.7297266  24.8683097  91.8576065  59.3687320  25.4856464
  92.3904402  58.6075608  25.2555772  91.3290146  59.0760972  26.2280618
  95.0245760  44.4747386  21.0150105  94.6810030  45.3649028  20.9389216
  95.3924723  44.2849044  20.1519690  83.0931611  56.7980916  13.8338708
  83.9306833  57.2077925  13.6172415  83.2709878  55.8580359  13.8038901
  94.9896043  54.4655997   9.5222541  94.4742666  55.2360602   9.7610928
  94.7173351  53.7921133  10.1455602  92.5743154  49.3105698  14.5807779
  91.7184750  48.9212548  14.4013418  92.9870106  49.3897659  13.7207564
  94.1042301  46.8452041  18.9799339  93.6007096  46.8082176  18.1667144
  94.3972907  47.7544784  19.0395995  90.3485186  46.9290771  17.9865520
  91.2138183  46.7333580  17.6271410  90.4162695  46.7001123  18.9134877
  99.9630317  57.2188352  11.4575714  99.1859760  56.8799511  11.0130876
 100.6421798  57.2240975  10.7830679  94.7782346  52.3383089  11.3482322
  94.4732482  52.6529238  12.1992465  95.7312788  52.4164509  11.3909655
  93.2228778  58.4973313  12.9975276  92.6950139  57.7626072  12.6848513
  92.7216281  59.2747989  12.7515244  98.2021624  56.6922333  18.1142322
  97.5445298  57.3821594  18.2022451  99.0062023  57.0818765  18.4576308
  87.9547505  49.1592979  15.3581887  88.5291257  48.9368160  14.6255080
  88.5418488  49.2281673  16.1110489  97.0127083  55.0466706  16.1646264
  97.5258964  55.6796698  16.6667974  97.6628307  54.4467901  15.7989624
  88.2817093  51.1897440   9.3777773  87.4454405  51.5272126   9.6987047
  88.1421862  51.0546420   8.4404909  90.2570173  46.0334228  14.0856957
  89.6034586  45.7183245  13.4613571  90.2150647  45.4109968  14.8116780
  91.3681378  56.3153523   6.0010249  90.4608440  56.0842776   6.2001398
  91.8652410  55.5191142   6.1884230  94.2749457  65.0251030   8.9206935
  93.6011156  65.3282727   9.5291893  94.6615279  65.8280110   8.5712392
  93.4907914  52.5216161  18.4104604  92.5730475  52.7431108  18.2526292
  93.9068057  52.5962472  17.5516312  94.2742961  53.9207577  13.5407285
  95.0214780  54.4328974  13.2314407  94.5434551  53.5991630  14.4011678
  92.5469611  56.4166118  10.5234239  91.6380831  56.1325150  10.6206709
  92.5764695  56.8365196   9.6637546  97.7788879  60.0272707  14.2925406
  97.3251206  59.1863617  14.3490597  97.1482846  60.6634106  14.6300187
  96.7221798  50.9564693  15.5226074  95.9844555  50.4442079  15.8536316
  96.9748572  50.5165075  14.7109351  96.2221818  61.8649204  15.2275225
  96.5144793  62.4254261  14.5087590  96.7320439  62.1577765  15.9828384
  96.8233426  43.7340945  16.1167843  97.1292303  42.8738309  15.8293758
  97.5486031  44.3258565  15.9166837  83.1157782  54.1371632  14.5049441
  82.9182182  53.5440992  13.7800508  82.5604446  53.8323842  15.2225380
  91.0954506  54.0294738  16.6244034  91.1503115  53.0768575  16.5486511
  90.2845708  54.1854177  17.1085333  92.2445699  57.9574861   7.8622317
  91.8065129  57.2410720   7.4027955  92.9856140  58.1850976   7.3007409
  89.0346865  52.6471798  14.3834413  88.2214731  52.9465969  14.7899605
  89.5305860  52.2527487  15.1008895  91.1855443  62.6429555  16.3168678
  91.1431622  62.8690401  15.3877210  92.1018142  62.4092930  16.4654479
  94.6321077  53.1113622  23.2149307  94.9870465  53.3385096  24.0743773
  95.2793208  53.4431999  22.5926562 100.3618814  56.2332058  13.9198636
 100.2236713  56.4233654  12.9919825 100.0055033  56.9951441  14.3766687
  88.5260940  50.2190154  19.9995648  89.1660320  50.0778913  19.3018611
  87.6938471  49.9324667  19.6234250 100.3888194  58.3008585  18.9309907
 100.8224700  58.2083874  19.7792962 101.1019774  58.2766086  18.2929923
  89.3021244  59.5192584  16.1130640  90.0961843  59.0242904  15.9113215
  88.5912937  58.9910447  15.7498346  94.1216089  61.9010679  20.4643008
  94.1753111  62.4701616  21.2320724  93.2530870  62.0712565  20.0997045
  85.6104008  53.6635666  12.1890393  84.6801596  53.6020121  12.4060355
  85.7061480  53.1411618  11.3927034  85.5289557  50.1890479  14.7768635
  85.7896374  51.1035812  14.6677795  86.3506729  49.7214921  14.9265248
  87.0014482  51.6028236  21.9467459  87.6737535  51.3945598  21.2980108
  86.1744268  51.4050322  21.5072692 101.2503743  58.3432286  21.4642793
 101.4439633  59.2478097  21.7102068 101.1504361  57.8839705  22.2981378
  92.9040054  48.2290177  23.9633120  92.2567969  48.9280126  23.8697597
  93.6741069  48.6626321  24.3309368  96.3118852  58.4939029  27.0383674
  96.1604358  58.2649580  26.1213757  96.3023531  59.4509630  27.0515019
  93.0804188  56.0670942  22.0229940  94.0096248  56.2182101  21.8498907
  92.6595218  56.1554962  21.1678586  91.8792520  60.0921606  19.7928478
  91.7403606  59.7240390  20.6654416  91.0907116  60.6069245  19.6212435
  92.4740672  65.1930702  11.1354014  92.6492428  64.7218746  11.9499637
  91.7873460  65.8196469  11.3635275  93.4297735  59.4703209  17.1817315
  93.0947568  59.4303979  18.0774965  92.9301681  58.8047925  16.7087726
  87.4041979  54.8770839  22.7069897  87.2661777  54.1451077  23.3081436
  88.3146903  54.7879739  22.4254084  96.3656927  56.8159243   7.4554375
  95.7486098  56.0906071   7.3587428  95.8973415  57.5768603   7.1121449
  90.0324280  54.5890798  22.1953576  90.7423898  53.9483990  22.1540195
  89.9893588  54.8403693  23.1179757  98.0211059  61.5258151  25.1160155
  97.9623605  60.8417371  24.4490738  98.4230577  62.2677141  24.6640781
  88.7453214  51.5756016  24.0149216  88.2090571  51.1246754  24.6670812
  88.1569922  51.7101925  23.2719680  87.0401757  68.3420065  17.9093874
  87.2798356  68.9738589  18.5872893  86.1970954  67.9908105  18.1959234
  88.1555473  51.0344667   6.5775679  87.2784939  50.9133468   6.2137926
  88.6313226  50.2430746   6.3254568  98.0228466  59.4897735  23.3474135
  97.1355245  59.1523657  23.4700534  98.5927017  58.7580766  23.5842900
  79.6757613  55.8221827  16.6717186  80.3628653  55.5083557  16.0838202
  79.5205742  56.7263192  16.3984438  84.4792335  50.7112024  21.1002210
  84.3950524  50.1037693  20.3652620  83.6575042  51.2021042  21.1011706
  91.5529619  64.1499188  20.3135378  91.4799791  64.9554159  20.8254683
  91.1107012  64.3491153  19.4883400  91.3419399  63.3870958  13.8238200
  90.5586921  63.9292638  13.9176424  92.0412144  63.9044937  14.2232441
  94.6516049  49.1965587  16.4672405  95.1484749  48.4435549  16.1473475
  93.8803030  49.2329904  15.9015615 102.5045806  54.9005953  18.1090697
 102.4935683  55.7830668  17.7384630 101.6363186  54.5477503  17.9145234
  94.0128303  64.0486022  22.4693537  94.7256275  64.6833486  22.3969438
  93.5218331  64.1449888  21.6533539  95.7345830  57.9537274  14.0410829
  94.8002108  58.0738737  13.8715533  95.9122498  57.0509741  13.7770838
  91.2351018  51.3382970  16.1944090  90.8648805  50.7854010  16.8824995
  91.7310110  50.7341104  15.6419090  99.1218381  53.7954594  14.5760863
  99.5878833  54.6282585  14.5021165  99.5725882  53.3299575  15.2806121
  89.0640216  61.7980465  23.2899108  89.7649676  62.4316948  23.4428502
  88.5935331  62.1395197  22.5294747  97.1894612  60.1398415  11.5747015
  97.4654456  60.0255009  12.4840889  96.3199111  59.7415900  11.5359188
  97.0935044  46.1635181  18.6151764  96.1798124  46.3939407  18.7833971
  97.5228145  46.2473625  19.4665796  96.8641502  54.3525073  21.1151658
  96.2112952  54.6000980  20.4604111  97.2421882  53.5389211  20.7814135
  93.8248676  64.3884766  15.2179828  94.0071071  63.5706422  15.6807581
  94.6481662  64.6052458  14.7804718  94.1590842  63.3152951  12.4794877
  94.6878608  62.8045405  11.8665039  94.4219061  62.9995481  13.3440410
  92.9129075  55.0944884  27.6017695  92.2369712  54.9939013  28.2720070
  93.7356709  54.9384097  28.0653692  84.6607934  61.3316820  20.2230210
  85.2461371  60.5860508  20.3558115  84.4632773  61.6420777  21.1066874
  87.5146590  64.3668068  15.2392653  86.8456965  64.8514195  14.7556693
  87.3759459  64.6137288  16.1536031  79.2525589  53.9022420  18.9434654
  79.2909689  53.3686011  19.7371772  78.7465882  53.3757626  18.3245631
  91.6551858  66.4011811  21.8375311  92.2070166  66.5643433  22.6024396
  91.9958052  66.9916249  21.1655336  86.6316351  48.7486961  22.4397196
  86.6957678  49.6101792  22.0274594  86.5683472  48.1360963  21.7069554
  86.1068624  50.8210093  26.0870230  86.7340663  50.4387171  26.7007754
  85.2496543  50.6024295  26.4525923  96.5062732  61.2273069  27.6923966
  97.0502636  61.8403027  27.1978920  95.9249577  61.7852647  28.2090979
  82.8834167  52.6286523  12.0188585  83.1787608  51.7197201  11.9655639
  81.9822202  52.6074262  11.6969587  94.7920245  64.3493787  18.8238993
  94.6671385  63.5483526  18.3149939  95.4499337  64.8439980  18.3352963
  86.4128414  50.7042519  18.0016134  85.6914999  51.3178487  17.8623607
  87.2021669  51.2400284  17.9232779  96.8555154  62.1502807  20.4518543
  95.9085489  62.0308158  20.3796870  97.2037927  61.2625305  20.5344805
  89.2154727  48.0396946  24.2756785  89.7389129  48.2859242  25.0383095
  88.9967060  48.8716980  23.8559923  84.6122008  50.3100620  12.1427910
  84.2834714  49.4297999  11.9603016  84.9661379  50.2548289  13.0304299
  93.8601587  61.9455523  16.6522896  93.7126550  61.0172230  16.8330466
  94.6855081  61.9675614  16.1679971  87.7263831  50.5973590  12.5103388
  88.0659904  51.1259511  11.7881996  88.1735952  50.9353996  13.2861954
  97.4635709  62.7684082  17.7387768  98.3882256  62.5626943  17.6012220
  97.2951012  62.5200483  18.6477110  90.4207272  48.9810641  21.9606456
  90.0804093  48.1818454  22.3627136  89.7146279  49.2812352  21.3883289
  91.0723744  46.0659953  20.4133779  91.8949813  45.5920431  20.2912669
  91.3161808  46.8450437  20.9132465  89.7131979  49.0948212  10.7096681
  90.4340341  49.4729464  10.2060397  89.0897283  49.8137088  10.8131658
  93.8563101  49.7993361  11.6455013  94.0726716  50.6817998  11.3443841
  93.3757169  49.4079574  10.9160655  88.5962323  52.7579074  18.2225757
  88.4506904  53.0719377  19.1150039  88.1187526  53.3763974  17.6696656
  90.4558706  49.7481622  18.2706647  90.4420274  48.8522715  17.9338945
  91.1731134  49.7552285  18.9044933  92.3084836  50.1818962  20.3159774
  92.0502614  51.1036033  20.3144105  91.7769877  49.7849396  21.0060239
  97.2531025  63.2869749  13.0949860  97.4267903  62.7216172  12.3423712
  97.7459916  64.0870644  12.9129350  83.0707985  55.2984418  21.1613419
  82.5261453  56.0744226  21.2933693  83.9487335  55.6455223  21.0032540
  89.8595602  48.6296002  13.5394217  89.9811513  47.7012648  13.7385105
  89.5697644  48.6434688  12.6272533  92.7286792  46.3150912  16.6760937
  92.7508489  46.3790246  15.7212917  93.1454851  45.4755421  16.8701443
 103.1070416  56.0506172  14.7140160 103.5501562  55.3013497  14.3159283
 102.2296927  56.0416308  14.3313892  98.2406198  62.6036513  10.1946758
  98.9357102  63.2243206  10.4134073  98.5829348  61.7531865  10.4699136
  83.8574007  54.4254314  24.0543576  83.1155743  54.5736950  24.6408206
  83.5366751  54.6862580  23.1910325 100.1397621  60.0536219  11.7234089
 100.6648945  60.3923492  10.9983409 100.0519973  59.1183234  11.5397224
  91.8017669  63.9670293  23.8523966  92.1104796  63.7219439  24.7246665
  92.5993152  64.1716931  23.3642836  91.8238282  66.1208202  16.0829342
  91.3843272  65.6284581  16.7762199  92.5746398  65.5781170  15.8421417
  84.3030621  62.3119743  16.0853970  85.1288640  62.0123515  15.7052614
  83.9524673  61.5427366  16.5343759  89.2712154  61.6646211  18.1551644
  88.6492163  61.0016916  17.8553872  89.9417021  61.6907343  17.4725292
  82.5039226  60.2306070  17.0442904  81.6671134  59.8028244  16.8626905
  82.4762871  60.4238513  17.9813695  89.3436681  50.1427999  27.7484150
  89.3924837  51.0190122  27.3661919  89.8859195  49.6005392  27.1755793
  99.8291527  60.6869123  27.0285287  99.0387071  60.6693261  26.4889786
  99.5924881  61.2257416  27.7834323  99.9489402  57.5361589  24.3418015
  99.9987407  57.3711596  25.2833538  99.8403325  56.6688848  23.9515896
  88.8325661  60.2150135  11.6310104  88.9813781  60.8985599  10.9776777
  89.6392104  60.1955225  12.1459560  97.2393164  53.5192517  25.6577322
  98.1403027  53.3798982  25.3661320  97.3141139  53.6846972  26.5975500
  91.5735970  50.8959372  24.5030508  90.7039279  51.1892938  24.2313097
  91.8095450  51.4799817  25.2237772 101.4507599  59.9558531  24.5860037
 101.1592407  60.3188511  25.4223498 100.8379730  59.2425539  24.4073369
 102.6503281  57.5211410  17.1062607 103.4850172  57.9601214  17.2700168
 102.7862410  57.0450064  16.2870853  99.6994787  55.0791145  23.0540095
 100.1748909  55.2718791  22.2458946  98.7760352  55.1350331  22.8083479
  86.5878294  56.2415312  12.6371173  86.3424336  55.3377642  12.8351383
  86.7574208  56.2432463  11.6950651  94.2775003  47.1138989  22.0195929
  94.7956947  47.8500016  21.6942417  93.9230136  47.4202982  22.8542688
  85.8573941  51.9743670  10.1357335  85.1643186  52.0488025   9.4797371
  85.6125693  51.2104014  10.6578852  94.5287598  43.5339271  17.5396825
  94.8089351  42.8662460  18.1657252  95.3138205  43.7268367  17.0271489
  92.3321066  62.7098265   9.1021852  91.7595033  63.3288452   8.6492324
  92.9053860  63.2597627   9.6361774  98.3996456  51.9556905  21.2868401
  99.3513879  52.0555003  21.3080625  98.2299906  51.1635174  21.7966485
  96.4210835  49.0412488  21.4727801  95.8260768  49.3217501  20.7774290
  96.1360532  49.5306389  22.2444543  95.5518326  62.9935415  10.2330434
  96.4848999  62.9280977  10.4363310  95.4641539  63.8291682   9.7744967
  98.1806343  62.3101286   7.1934382  98.1019974  61.9761149   8.0870139
  99.0016009  62.8023054   7.1925854 100.8784534  55.1763025  20.4010700
 100.8460854  54.2379026  20.5870384 101.4885157  55.2547062  19.6676525
  92.7167865  54.0459078   6.4437904  93.6626969  53.9165286   6.5126322
  92.3382110  53.3073740   6.9207332 101.0279022  51.9674068  20.4468983
 100.5118071  51.1832525  20.2598912 101.9118971  51.6392785  20.6115503
  98.6889749  45.7115084  16.4064796  98.4914570  45.4030172  17.2908128
  99.2989455  46.4376723  16.5362726 106.6961084  56.2379032  19.5416737
 107.4264472  55.9764320  20.1024440 106.0868029  55.5007754  19.5818805
 104.7776381  54.3786894  20.1391188 104.0509544  54.2442859  19.5307680
 104.3623668  54.6863723  20.9447906  92.6006557  58.0976824  27.9038561
  93.5209567  58.2755423  28.0978608  92.5656140  57.1532869  27.7518260
  90.9010782  51.9709054   6.3792789  89.9942237  51.6742167   6.4555503
  91.1786763  51.6738872   5.5127076  81.8188722  53.2915418  16.8291836
  81.4991506  52.4380726  16.5366210  81.2722150  53.5063996  17.5849803
  85.5968630  56.0077859  20.5461342  85.8154639  56.9394967  20.5649376
  86.0094404  55.6485833  21.3316146  92.5172847  46.5145944  12.5337031
  91.7073576  46.1693029  12.9092277  93.2057264  46.2053488  13.1224642
  94.4463396  45.5923991  14.1561327  94.9994434  46.0119444  14.8151350
  94.6833482  44.6659739  14.1984283  90.4696495  51.5811064  29.9364091
  90.3693222  52.5305421  29.8676182  90.2518037  51.2529303  29.0640161
  89.6709566  48.8295990   6.5204769  90.5328730  49.1550888   6.7800586
  89.8559911  48.0427485   6.0077834  81.6876982  56.9118329  18.7984957
  80.9940454  56.4972282  18.2854912  82.4349973  56.9538866  18.2018376
  97.8242203  47.7024516  13.6639992  97.2440872  48.3609320  13.2818044
  97.5578136  46.8801861  13.2527409  96.2745769  47.1029574  15.8661312
  96.7745548  47.2146108  15.0575631  96.9181377  46.7990627  16.5062120
  90.3327765  55.0108203  28.7529153  89.8494847  55.8108563  28.9593042
  90.4188704  55.0216148  27.7996597  83.6013725  56.8436583  16.6750972
  83.5784413  56.9424270  15.7232855  83.9114361  57.6901734  16.9968138
  86.2601103  58.9012738  20.7897587  87.2144356  58.8696680  20.7227518
  86.0613626  58.4403362  21.6047813  86.8500485  57.4713854  23.3568384
  87.6693374  57.9657933  23.3803222  87.1237292  56.5545822  23.3285952
  96.6067081  49.8624606  12.7196340  95.7192936  50.1474257  12.5016535
  97.0221070  49.7018370  11.8723617  99.9581617  49.8871127  16.4350679
 100.7342007  50.3767580  16.7075296  99.2329751  50.3129182  16.8922549
 102.3954176  50.5998747  17.4924620 102.9898666  50.3594483  16.7817928
 102.4680759  49.8805877  18.1198156  84.6151331  64.4432358  17.8067785
  84.4805799  63.6832758  17.2405783  84.1983394  65.1673257  17.3396573
  95.7510294  59.6269281   6.8144360  96.4546144  59.8319284   7.4302015
  95.0272943  60.1946043   7.0793443  96.5808105  55.3779142  12.9346630
  96.5243306  55.8347694  12.0954262  97.1336447  54.6169827  12.7569473
 100.3912911  51.1668874  13.7596750 100.1349845  50.7665510  14.5904957
  99.7665779  51.8812668  13.6346889 104.7025248  53.9064947  16.2668041
 104.1424806  53.9758137  17.0399603 104.0968752  53.7305932  15.5467537
  87.7720457  65.3401675  18.0186227  87.6552841  66.2847107  17.9164917
  86.9512903  65.0375236  18.4072026  97.6596992  60.0651810   8.8642820
  98.4942596  59.6333009   8.6820295  97.4981335  59.8933824   9.7919714
  97.3142884  56.5683924  10.2299159  97.2591688  56.4028195   9.2887603
  96.6888939  57.2759956  10.3861349  82.1035399  51.8051988  24.0560581
  82.7494263  51.2950942  24.5447807  81.8952550  52.5420670  24.6304007
  94.6288791  58.8732835  29.5552722  95.4979951  59.0473488  29.1939357
  94.1495543  59.6927252  29.4328451  90.6239009  46.0692033   9.8084478
  90.6117679  47.0133872   9.9652748  91.5162431  45.8862178   9.5143939
  88.7974971  65.9929936  21.2342156  89.7002218  66.0253547  21.5508651
  88.5712341  65.0630387  21.2488491  90.5528573  64.7460923  17.8952234
  89.6024204  64.7462785  17.7816607  90.8561060  63.9993658  17.3788269
  94.4391129  42.6634809  14.0630414  93.6723525  42.1093296  14.2087097
  94.8501834  42.7356678  14.9244566  86.4432890  48.9519605  28.1535596
  87.3064351  48.5956410  28.3638920  85.8698301  48.6133500  28.8411000
 106.2881267  70.5821461  18.9597997 106.9259677  70.4628209  18.2561337
 106.1702110  71.5302305  19.0185949 103.0970973  70.5348889  18.8959521
 102.7589485  70.4189954  18.0080056 103.9660741  70.1340055  18.8760528
  98.9557789  72.3884366  14.8856412  98.3922654  72.2974303  14.1172700
  98.8410184  71.5684270  15.3658905 103.5790756  71.6883741  24.8545727
 103.5679397  71.2936539  23.9826231 103.7411396  70.9549814  25.4479498
  96.5022221  73.8835557  17.7240633  97.2943513  73.5426382  17.3086932
  96.7418871  73.9930533  18.6442786 104.5357348  76.0555334  10.1970877
 103.8845327  76.6409414   9.8104891 105.3301710  76.5861528  10.2565915
  98.4612975  73.1444471  10.5958012  99.2343851  72.5973458  10.4570887
  98.8138374  74.0088720  10.8072473 100.2998017  74.4720853  23.8024911
 100.0087883  75.3766484  23.6871577 100.9355002  74.5137381  24.5168980
 101.2254224  71.8497702  20.3926271 101.8217796  71.6253724  19.6783233
 101.2829196  71.1082447  20.9951718 100.7979253  69.3037137   8.2276461
 101.0504773  68.7818658   7.4659924  99.8603812  69.1403282   8.3303145
 105.8422535  68.3072915  16.0351205 106.6285625  67.8892338  15.6841622
 106.1061240  69.2119007  16.2032853 106.0132613  73.7445766  10.7339862
 105.3778446  73.8180392  11.4460766 105.6830019  74.3339364  10.0558941
 111.2430962  68.2448148  16.9384183 111.9756134  67.6747365  17.1722013
 110.4870318  67.8569749  17.3790689 100.5175541  71.2065243  10.4300836
 100.4011799  70.5310146  11.0981921 100.6277801  70.7197617   9.6132989
 102.8607082  70.6675390  14.1347526 102.4965289  70.1406011  14.8460447
 103.7174198  70.2773859  13.9614011 108.7656383  61.9569723  21.3978792
 108.4339708  62.8265133  21.1740007 108.1701996  61.6406007  22.0772822
 102.5012569  65.6965290   9.1308874 102.6686972  66.5645526   9.4979345
 102.3109738  65.8592571   8.2070163 105.2587902  74.1582268  20.7974705
 104.9588625  75.0607307  20.6890512 104.9138962  73.8914452  21.6495857
  98.7100384  70.6096065  16.8311409  97.7850880  70.4772279  17.0389101
  98.9584797  71.3890285  17.3281351 108.6585046  66.6764809  18.4772142
 107.7501923  66.6080217  18.1830903 108.6072642  67.1536754  19.3053967
 102.4801790  68.1522947  10.1155541 102.3601415  68.5979998  10.9541021
 101.7854378  68.5008265   9.5569079  96.0709195  70.2529339  17.6655198
  96.2001576  70.5063818  18.5794610  95.3906646  70.8457047  17.3459853
 100.2408682  80.9226589  13.7645672 100.1632712  81.8734414  13.8434153
  99.6370326  80.5772461  14.4220599 102.7325912  68.0954454  26.4207039
 101.9559246  68.6548374  26.4109904 103.3716475  68.5811237  26.9421909
 110.5246693  64.8781247  20.2550016 109.8821073  65.1713780  19.6089810
 110.0201621  64.7634167  21.0603212 108.1786856  68.6244420  10.9435875
 109.0904712  68.8571807  10.7683573 107.6696503  69.2081464  10.3810954
 100.9872284  70.9039908  25.9825006 101.7286969  71.4424952  25.7059830
 100.2809270  71.5306196  26.1396558 106.4627624  73.0469048  24.5797168
 106.8710980  72.6051459  23.8351800 105.7404885  72.4721676  24.8331361
 102.8158694  67.9841655  21.9530725 103.6619889  68.4081068  22.0965374
 102.7557332  67.3275279  22.6469288 106.7856439  73.6070239  18.3349457
 106.1565301  73.7715953  17.6325524 106.3982101  74.0211848  19.1060421
 110.6645670  74.5424677  15.6893820 109.9796709  74.9223578  15.1390854
 110.7489520  75.1520003  16.4225768 105.9658139  65.6446023  23.6111898
 105.7219071  66.3988084  23.0746174 106.2418070  66.0231371  24.4459145
 107.9196602  72.1884636  22.2889164 108.1313497  72.8316395  21.6123545
 107.8726350  71.3546952  21.8211094 105.5222831  64.8002456  19.1925736
 104.6607310  65.0983710  19.4842474 105.5485266  65.0172855  18.2606769
 102.3384400  73.3444647  15.5999542 102.8022746  73.6232350  14.8104164
 102.0741198  72.4428091  15.4172632  99.2308481  72.8916128  18.5379305
  99.8009839  73.3203397  17.8996789  99.8216593  72.6098713  19.2363491
 101.2753286  69.4667799  12.4089107 101.9777330  69.9188843  12.8763033
 100.9433915  68.8251618  13.0369000  99.7233648  68.0579556  26.7840316
  99.0932309  68.7395837  27.0175713  99.6169736  67.9462637  25.8393454
  95.0178620  67.7251352  17.7106240  94.2277674  67.9808880  17.2346351
  95.5089868  68.5399690  17.8158281 109.0342430  75.0656591  20.4611521
 109.8559874  74.6636778  20.1794203 109.0304833  74.9624825  21.4127637
  96.9693366  68.0895931  14.6689717  96.1724529  68.2014625  15.1873213
  96.7418958  68.4282583  13.8030608 102.7999033  74.6140634  22.6172232
 102.8643466  75.0761042  23.4530403 102.0909957  73.9837999  22.7454542
  93.3016323  67.9781842  20.1421231  93.5524362  68.8628852  20.4078807
  93.8375872  67.7986444  19.3696323 117.1248423  71.4095339  16.8096493
 116.3712131  70.8402738  16.6540497 117.2595964  71.3758004  17.7567127
 102.5147051  76.2808742  12.4851212 102.3792726  77.1260278  12.9136060
 103.0556864  76.4828019  11.7217146  99.0014391  62.3600322  29.1465567
  98.6081336  61.8066520  29.8213211  99.8180531  62.6710900  29.5372085
  95.9676448  73.7984180  13.0579137  96.4800969  74.5927430  13.2084702
  96.6199161  73.1010470  12.9912739  97.7771333  76.9149936  15.1401890
  97.9537961  77.8367901  14.9522874  98.5728167  76.6008355  15.5696270
 101.9182352  63.7758201  26.7385824 102.6592065  64.3765354  26.6590286
 102.1500275  63.0335839  26.1803866  97.0623690  68.9614568  25.0164053
  96.9477205  68.0599825  25.3171152  96.2068207  69.2078265  24.6648870
 104.1415527  76.9032308  26.6151554 103.6979382  76.1168687  26.2972459
 104.8032741  77.0911459  25.9495445  98.9002649  78.4328110  21.1412233
  99.4510074  78.3045173  20.3689227  98.0614125  78.7322999  20.7907125
 106.2396766  77.1835108  24.6432955 106.2215241  78.0043989  24.1513225
 107.1616686  77.0589183  24.8683097 102.6969820  74.6979238  25.4856464
 103.2298156  73.9367526  25.2555772 102.1683901  74.4052890  26.2280618
 105.8639515  59.8039304  21.0150105 105.5203784  60.6940945  20.9389216
 106.2318477  59.6140961  20.1519690  93.9325365  72.1272834  13.8338708
  94.7700587  72.5369843  13.6172415  94.1103633  71.1872276  13.8038901
 105.8289797  69.7947915   9.5222541 105.3136421  70.5652519   9.7610928
 105.5567106  69.1213051  10.1455602 103.4136908  64.6397616  14.5807779
 102.5578505  64.2504466  14.4013418 103.8263860  64.7189576  13.7207564
 104.9436055  62.1743959  18.9799339 104.4400851  62.1374094  18.1667144
 105.2366662  63.0836702  19.0395995 101.1878941  62.2582689  17.9865520
 102.0531938  62.0625497  17.6271410 101.2556450  62.0293040  18.9134877
 110.8024071  72.5480269  11.4575714 110.0253514  72.2091429  11.0130876
 111.4815552  72.5532893  10.7830679 105.6176101  67.6675007  11.3482322
 105.3126236  67.9821156  12.1992465 106.5706543  67.7456427  11.3909655
 104.0622532  73.8265230  12.9975276 103.5343894  73.0917990  12.6848513
 103.5610035  74.6039907  12.7515244 109.0415378  72.0214251  18.1142322
 108.3839053  72.7113512  18.2022451 109.8455778  72.4110683  18.4576308
  98.7941260  64.4884896  15.3581887  99.3685012  64.2660078  14.6255080
  99.3812242  64.5573591  16.1110489 107.8520837  70.3758623  16.1646264
 108.3652719  71.0088615  16.6667974 108.5022061  69.7759819  15.7989624
  99.1210847  66.5189358   9.3777773  98.2848159  66.8564044   9.6987047
  98.9815617  66.3838337   8.4404909 101.0963928  61.3626145  14.0856957
 100.4428340  61.0475163  13.4613571 101.0544402  60.7401886  14.8116780
 102.2075133  71.6445440   6.0010249 101.3002194  71.4134694   6.2001398
 102.7046165  70.8483060   6.1884230 105.1143211  80.3542948   8.9206935
 104.4404910  80.6574644   9.5291893 105.5009033  81.1572028   8.5712392
 104.3301668  67.8508079  18.4104604 103.4124229  68.0723026  18.2526292
 104.7461812  67.9254389  17.5516312 105.1136716  69.2499495  13.5407285
 105.8608535  69.7620892  13.2314407 105.3828305  68.9283547  14.4011678
 103.3863366  71.7458035  10.5234239 102.4774585  71.4617068  10.6206709
 103.4158450  72.1657114   9.6637546 108.6182633  75.3564625  14.2925406
 108.1644961  74.5155535  14.3490597 107.9876600  75.9926023  14.6300187
 107.5615553  66.2856611  15.5226074 106.8238310  65.7733997  15.8536316
 107.8142326  65.8456992  14.7109351 107.0615573  77.1941122  15.2275225
 107.3538547  77.7546179  14.5087590 107.5714193  77.4869683  15.9828384
 107.6627180  59.0632863  16.1167843 107.9686057  58.2030226  15.8293758
 108.3879785  59.6550483  15.9166837  93.9551536  69.4663549  14.5049441
  93.7575936  68.8732910  13.7800508  93.3998200  69.1615760  15.2225380
 101.9348260  69.3586656  16.6244034 101.9896870  68.4060492  16.5486511
 101.1239462  69.5146095  17.1085333 103.0839454  73.2866779   7.8622317
 102.6458884  72.5702638   7.4027955 103.8249895  73.5142894   7.3007409
  99.8740620  67.9763716  14.3834413  99.0608485  68.2757886  14.7899605
 100.3699614  67.5819404  15.1008895 102.0249198  77.9721473  16.3168678
 101.9825377  78.1982319  15.3877210 102.9411897  77.7384847  16.4654479
 105.4714832  68.4405540  23.2149307 105.8264219  68.6677013  24.0743773
 106.1186963  68.7723917  22.5926562 111.2012569  71.5623976  13.9198636
 111.0630467  71.7525572  12.9919825 110.8448787  72.3243359  14.3766687
  99.3654695  65.5482071  19.9995648 100.0054074  65.4070830  19.3018611
  98.5332225  65.2616585  19.6234250 111.2281948  73.6300503  18.9309907
 111.6618455  73.5375792  19.7792962 111.9413529  73.6058004  18.2929923
 100.1414999  74.8484502  16.1130640 100.9355597  74.3534822  15.9113215
  99.4306691  74.3202365  15.7498346 104.9609843  77.2302597  20.4643008
 105.0146865  77.7993533  21.2320724 104.0924624  77.4004482  20.0997045
  96.4497762  68.9927583  12.1890393  95.5195350  68.9312039  12.4060355
  96.5455234  68.4703536  11.3927034  96.3683311  65.5182396  14.7768635
  96.6290128  66.4327729  14.6677795  97.1900483  65.0506839  14.9265248
  97.8408236  66.9320153  21.9467459  98.5131290  66.7237515  21.2980108
  97.0138023  66.7342239  21.5072692 112.0897498  73.6724204  21.4642793
 112.2833388  74.5770014  21.7102068 111.9898116  73.2131623  22.2981378
 103.7433808  63.5582094  23.9633120 103.0961724  64.2572044  23.8697597
 104.5134824  63.9918238  24.3309368 107.1512606  73.8230946  27.0383674
 106.9998113  73.5941498  26.1213757 107.1417286  74.7801548  27.0515019
 103.9197943  71.3962859  22.0229940 104.8490003  71.5474019  21.8498907
 103.4988973  71.4846880  21.1678586 102.7186275  75.4213524  19.7928478
 102.5797360  75.0532308  20.6654416 101.9300871  75.9361163  19.6212435
 103.3134427  80.5222620  11.1354014 103.4886182  80.0510663  11.9499637
 102.6267215  81.1488386  11.3635275 104.2691490  74.7995126  17.1817315
 103.9341322  74.7595896  18.0774965 103.7695435  74.1339842  16.7087726
  98.2435734  70.2062756  22.7069897  98.1055532  69.4742995  23.3081436
  99.1540657  70.1171656  22.4254084 107.2050681  72.1451161   7.4554375
 106.5879852  71.4197989   7.3587428 106.7367170  72.9060521   7.1121449
 100.8718034  69.9182716  22.1953576 101.5817653  69.2775908  22.1540195
 100.8287343  70.1695611  23.1179757 108.8604813  76.8550069  25.1160155
 108.8017359  76.1709289  24.4490738 109.2624331  77.5969059  24.6640781
  99.5846968  66.9047934  24.0149216  99.0484325  66.4538672  24.6670812
  98.9963677  67.0393842  23.2719680  97.8795512  83.6711983  17.9093874
  98.1192110  84.3030507  18.5872893  97.0364708  83.3200023  18.1959234
  98.9949227  66.3636585   6.5775679  98.1178694  66.2425386   6.2137926
  99.4706980  65.5722663   6.3254568 108.8622220  74.8189653  23.3474135
 107.9748999  74.4815575  23.4700534 109.4320771  74.0872684  23.5842900
  90.5151367  71.1513745  16.6717186  91.2022407  70.8375475  16.0838202
  90.3599496  72.0555109  16.3984438  95.3186090  66.0403941  21.1002210
  95.2344278  65.4329611  20.3652620  94.4968796  66.5312960  21.1011706
 102.3923374  79.4791105  20.3135378 102.3193545  80.2846077  20.8254683
 101.9500767  79.6783071  19.4883400 102.1813153  78.7162875  13.8238200
 101.3980675  79.2584555  13.9176424 102.8805899  79.2336855  14.2232441
 105.4909803  64.5257505  16.4672405 105.9878503  63.7727467  16.1473475
 104.7196785  64.5621821  15.9015615 113.3439561  70.2297870  18.1090697
 113.3329437  71.1122586  17.7384630 112.4756940  69.8769421  17.9145234
 104.8522057  79.3777939  22.4693537 105.5650029  80.0125404  22.3969438
 104.3612086  79.4741805  21.6533539 106.5739584  73.2829192  14.0410829
 105.6395863  73.4030654  13.8715533 106.7516253  72.3801659  13.7770838
 102.0744772  66.6674888  16.1944090 101.7042560  66.1145928  16.8824995
 102.5703865  66.0633021  15.6419090 109.9612136  69.1246511  14.5760863
 110.4272588  69.9574503  14.5021165 110.4119636  68.6591493  15.2806121
  99.9033971  77.1272383  23.2899108 100.6043430  77.7608866  23.4428502
  99.4329086  77.4687114  22.5294747 108.0288367  75.4690333  11.5747015
 108.3048211  75.3546927  12.4840889 107.1592865  75.0707817  11.5359188
 107.9328798  61.4927098  18.6151764 107.0191878  61.7231325  18.7833971
 108.3621900  61.5765542  19.4665796 107.7035257  69.6816990  21.1151658
 107.0506707  69.9292898  20.4604111 108.0815637  68.8681128  20.7814135
 104.6642431  79.7176683  15.2179828 104.8464825  78.8998339  15.6807581
 105.4875417  79.9344376  14.7804718 104.9984596  78.6444869  12.4794877
 105.5272363  78.1337323  11.8665039 105.2612816  78.3287399  13.3440410
 103.7522830  70.4236801  27.6017695 103.0763467  70.3230931  28.2720070
 104.5750464  70.2676015  28.0653692  95.5001689  76.6608738  20.2230210
  96.0855126  75.9152426  20.3558115  95.3026527  76.9712695  21.1066874
  98.3540344  79.6959985  15.2392653  97.6850719  80.1806113  14.7556693
  98.2153214  79.9429206  16.1536031  90.0919344  69.2314338  18.9434654
  90.1303443  68.6977929  19.7371772  89.5859636  68.7049544  18.3245631
 102.4945613  81.7303729  21.8375311 103.0463921  81.8935350  22.6024396
 102.8351806  82.3208167  21.1655336  97.4710106  64.0778879  22.4397196
  97.5351432  64.9393709  22.0274594  97.4077226  63.4652880  21.7069554
  96.9462378  66.1502011  26.0870230  97.5734417  65.7679088  26.7007754
  96.0890297  65.9316213  26.4525923 107.3456487  76.5564986  27.6923966
 107.8896391  77.1694945  27.1978920 106.7643332  77.1144565  28.2090979
  93.7227921  67.9578440  12.0188585  94.0181362  67.0489119  11.9655639
  92.8215957  67.9366180  11.6969587 105.6314000  79.6785704  18.8238993
 105.5065139  78.8775444  18.3149939 106.2893091  80.1731898  18.3352963
  97.2522168  66.0334437  18.0016134  96.5308754  66.6470404  17.8623607
  98.0415424  66.5692202  17.9232779 107.6948908  77.4794724  20.4518543
 106.7479244  77.3600076  20.3796870 108.0431681  76.5917222  20.5344805
 100.0548482  63.3688863  24.2756785 100.5782883  63.6151160  25.0383095
  99.8360815  64.2008898  23.8559923  95.4515763  65.6392538  12.1427910
  95.1228469  64.7589917  11.9603016  95.8055133  65.5840207  13.0304299
 104.6995342  77.2747441  16.6522896 104.5520304  76.3464148  16.8330466
 105.5248835  77.2967531  16.1679971  98.5657586  65.9265508  12.5103388
  98.9053658  66.4551429  11.7881996  99.0129706  66.2645914  13.2861954
 108.3029463  78.0975999  17.7387768 109.2276011  77.8918861  17.6012220
 108.1344767  77.8492400  18.6477110 101.2601027  64.3102558  21.9606456
 100.9197847  63.5110371  22.3627136 100.5540033  64.6104269  21.3883289
 101.9117499  61.3951871  20.4133779 102.7343568  60.9212349  20.2912669
 102.1555562  62.1742355  20.9132465 100.5525733  64.4240129  10.7096681
 101.2734096  64.8021382  10.2060397  99.9291037  65.1429006  10.8131658
 104.6956856  65.1285278  11.6455013 104.9120470  66.0109916  11.3443841
 104.2150923  64.7371492  10.9160655  99.4356077  68.0870991  18.2225757
  99.2900658  68.4011295  19.1150039  98.9581281  68.7055892  17.6696656
 101.2952460  65.0773539  18.2706647 101.2814029  64.1814633  17.9338945
 102.0124888  65.0844203  18.9044933 103.1478591  65.5110880  20.3159774
 102.8896369  66.4327950  20.3144105 102.6163631  65.1141314  21.0060239
 108.0924780  78.6161667  13.0949860 108.2661657  78.0508089  12.3423712
 108.5853671  79.4162562  12.9129350  93.9101739  70.6276336  21.1613419
  93.3655208  71.4036144  21.2933693  94.7881089  70.9747140  21.0032540
 100.6989356  63.9587920  13.5394217 100.8205267  63.0304566  13.7385105
 100.4091398  63.9726606  12.6272533 103.5680547  61.6442830  16.6760937
 103.5902243  61.7082163  15.7212917 103.9848606  60.8047339  16.8701443
 113.9464171  71.3798090  14.7140160 114.3895317  70.6305415  14.3159283
 113.0690681  71.3708226  14.3313892 109.0799952  77.9328431  10.1946758
 109.7750857  78.5535124  10.4134073 109.4223102  77.0823782  10.4699136
  94.6967761  69.7546232  24.0543576  93.9549497  69.9028867  24.6408206
  94.3760506  70.0154498  23.1910325 110.9791375  75.3828137  11.7234089
 111.5042699  75.7215409  10.9983409 110.8913728  74.4475152  11.5397224
 102.6411424  79.2962210  23.8523966 102.9498550  79.0511357  24.7246665
 103.4386906  79.5008849  23.3642836 102.6632036  81.4500120  16.0829342
 102.2237026  80.9576499  16.7762199 103.4140153  80.9073088  15.8421417
  95.1424375  77.6411661  16.0853970  95.9682395  77.3415433  15.7052614
  94.7918427  76.8719283  16.5343759 100.1105908  76.9938129  18.1551644
  99.4885917  76.3308834  17.8553872 100.7810775  77.0199261  17.4725292
  93.3432980  75.5597987  17.0442904  92.5064888  75.1320162  16.8626905
  93.3156625  75.7530431  17.9813695 100.1830436  65.4719917  27.7484150
 100.2318591  66.3482040  27.3661919 100.7252950  64.9297310  27.1755793
 110.6685281  76.0161040  27.0285287 109.8780825  75.9985179  26.4889786
 110.4318636  76.5549334  27.7834323 110.7883156  72.8653507  24.3418015
 110.8381161  72.7003514  25.2833538 110.6797080  71.9980766  23.9515896
  99.6719415  75.5442052  11.6310104  99.8207535  76.2277517  10.9776777
 100.4785859  75.5247142  12.1459560 108.0786919  68.8484435  25.6577322
 108.9796782  68.7090900  25.3661320 108.1534893  69.0138890  26.5975500
 102.4129724  66.2251289  24.5030508 101.5433034  66.5184856  24.2313097
 102.6489204  66.8091734  25.2237772 112.2901353  75.2850448  24.5860037
 111.9986162  75.6480429  25.4223498 111.6773484  74.5717456  24.4073369
 113.4897036  72.8503328  17.1062607 114.3243927  73.2893132  17.2700168
 113.6256164  72.3741981  16.2870853 110.5388541  70.4083063  23.0540095
 111.0142663  70.6010709  22.2458946 109.6154107  70.4642249  22.8083479
  97.4272048  71.5707230  12.6371173  97.1818090  70.6669560  12.8351383
  97.5967963  71.5724380  11.6950651 105.1168758  62.4430906  22.0195929
 105.6350702  63.1791933  21.6942417 104.7623891  62.7494900  22.8542688
  96.6967696  67.3035588  10.1357335  96.0036941  67.3779943   9.4797371
  96.4519447  66.5395931  10.6578852 105.3681352  58.8631189  17.5396825
 105.6483106  58.1954378  18.1657252 106.1531959  59.0560285  17.0271489
 103.1714821  78.0390183   9.1021852 102.5988788  78.6580370   8.6492324
 103.7447614  78.5889545   9.6361774 109.2390210  67.2848823  21.2868401
 110.1907633  67.3846921  21.3080625 109.0693661  66.4927091  21.7966485
 107.2604590  64.3704406  21.4727801 106.6654522  64.6509419  20.7774290
 106.9754287  64.8598307  22.2444543 106.3912080  78.3227333  10.2330434
 107.3242754  78.2572895  10.4363310 106.3035293  79.1583600   9.7744967
 109.0200097  77.6393203   7.1934382 108.9413729  77.3053067   8.0870139
 109.8409764  78.1314971   7.1925854 111.7178288  70.5054943  20.4010700
 111.6854608  69.5670943  20.5870384 112.3278912  70.5838979  19.6676525
 103.5561619  69.3750996   6.4437904 104.5020724  69.2457204   6.5126322
 103.1775864  68.6365657   6.9207332 111.8672777  67.2965986  20.4468983
 111.3511825  66.5124443  20.2598912 112.7512725  66.9684703  20.6115503
 109.5283504  61.0407002  16.4064796 109.3308325  60.7322090  17.2908128
 110.1383209  61.7668641  16.5362726 117.5354838  71.5670949  19.5416737
 118.2658227  71.3056238  20.1024440 116.9261784  70.8299671  19.5818805
 115.6170135  69.7078812  20.1391188 114.8903299  69.5734777  19.5307680
 115.2017422  70.0155641  20.9447906 103.4400312  73.4268742  27.9038561
 104.3603321  73.6047341  28.0978608 103.4049895  72.4824787  27.7518260
 101.7404536  67.3000972   6.3792789 100.8335992  67.0034085   6.4555503
 102.0180517  67.0030790   5.5127076  92.6582477  68.6207335  16.8291836
  92.3385261  67.7672644  16.5366210  92.1115905  68.8355914  17.5849803
  96.4362384  71.3369776  20.5461342  96.6548394  72.2686884  20.5649376
  96.8488158  70.9777751  21.3316146 103.3566602  61.8437862  12.5337031
 102.5467330  61.4984947  12.9092277 104.0451019  61.5345405  13.1224642
 105.2857150  60.9215909  14.1561327 105.8388189  61.3411362  14.8151350
 105.5227237  59.9951657  14.1984283 101.3090249  66.9102982  29.9364091
 101.2086976  67.8597339  29.8676182 101.0911792  66.5821221  29.0640161
 100.5103321  64.1587907   6.5204769 101.3722485  64.4842806   6.7800586
 100.6953665  63.3719403   6.0077834  92.5270737  72.2410247  18.7984957
  91.8334208  71.8264200  18.2854912  93.2743728  72.2830783  18.2018376
 108.6635957  63.0316434  13.6639992 108.0834626  63.6901238  13.2818044
 108.3971890  62.2093778  13.2527409 107.1139524  62.4321491  15.8661312
 107.6139302  62.5438026  15.0575631 107.7575132  62.1282544  16.5062120
 101.1721520  70.3400121  28.7529153 100.6888601  71.1400481  28.9593042
 101.2582459  70.3508066  27.7996597  94.4407479  72.1728501  16.6750972
  94.4178167  72.2716188  15.7232855  94.7508116  73.0193651  16.9968138
  97.0994857  74.2304656  20.7897587  98.0538111  74.1988598  20.7227518
  96.9007381  73.7695279  21.6047813  97.6894239  72.8005772  23.3568384
  98.5087128  73.2949850  23.3803222  97.9631047  71.8837740  23.3285952
 107.4460835  65.1916524  12.7196340 106.5586690  65.4766175  12.5016535
 107.8614824  65.0310287  11.8723617 110.7975372  65.2163045  16.4350679
 111.5735762  65.7059497  16.7075296 110.0723506  65.6421099  16.8922549
 113.2347930  65.9290664  17.4924620 113.8292421  65.6886400  16.7817928
 113.3074514  65.2097795  18.1198156  95.4545086  79.7724275  17.8067785
  95.3199554  79.0124676  17.2405783  95.0377148  80.4965175  17.3396573
 106.5904049  74.9561199   6.8144360 107.2939899  75.1611201   7.4302015
 105.8666698  75.5237961   7.0793443 107.4201859  70.7071060  12.9346630
 107.3637061  71.1639611  12.0954262 107.9730202  69.9461745  12.7569473
 111.2306665  66.4960792  13.7596750 110.9743599  66.0957428  14.5904957
 110.6059533  67.2104586  13.6346889 115.5419003  69.2356865  16.2668041
 114.9818561  69.3050054  17.0399603 114.9362506  69.0597850  15.5467537
  98.6114212  80.6693592  18.0186227  98.4946596  81.6139025  17.9164917
  97.7906658  80.3667154  18.4072026 108.4990746  75.3943728   8.8642820
 109.3336350  74.9624926   8.6820295 108.3375089  75.2225742   9.7919714
 108.1536638  71.8975841  10.2299159 108.0985442  71.7320113   9.2887603
 107.5282694  72.6051874  10.3861349  92.9429153  67.1343906  24.0560581
  93.5888017  66.6242860  24.5447807  92.7346305  67.8712587  24.6304007
 105.4682546  74.2024753  29.5552722 106.3373705  74.3765405  29.1939357
 104.9889297  75.0219170  29.4328451 101.4632764  61.3983950   9.8084478
 101.4511434  62.3425790   9.9652748 102.3556186  61.2154096   9.5143939
  99.6368726  81.3221854  21.2342156 100.5395973  81.3545464  21.5508651
  99.4106096  80.3922305  21.2488491 101.3922328  80.0752841  17.8952234
 100.4417959  80.0754702  17.7816607 101.6954814  79.3285575  17.3788269
 105.2784883  57.9926727  14.0630414 104.5117279  57.4385214  14.2087097
 105.6895588  58.0648596  14.9244566  97.2826644  64.2811523  28.1535596
  98.1458106  63.9248328  28.3638920  96.7092055  63.9425417  28.8411000
 117.1275021  85.9113379  18.9597997 117.7653431  85.7920126  18.2561337
 117.0095864  86.8594223  19.0185949 113.9364728  85.8640807  18.8959521
 113.5983239  85.7481872  18.0080056 114.8054496  85.4631972  18.8760528
 109.7951543  87.7176284  14.8856412 109.2316408  87.6266220  14.1172700
 109.6803938  86.8976188  15.3658905 114.4184511  87.0175659  24.8545727
 114.4073151  86.6228457  23.9826231 114.5805150  86.2841731  25.4479498
 107.3415975  89.2127475  17.7240633 108.1337267  88.8718300  17.3086932
 107.5812625  89.3222450  18.6442786 111.1391772  89.8012771  23.8024911
 110.8481638  90.7058402  23.6871577 111.7748756  89.8429298  24.5168980
 112.0647979  87.1789619  20.3926271 112.6611551  86.9545642  19.6783233
 112.1222950  86.4374365  20.9951718 116.6816290  83.6364833  16.0351205
 117.4679379  83.2184256  15.6841622 116.9454994  84.5410925  16.2032853
 122.0824717  83.5740066  16.9384183 122.8149889  83.0039283  17.1722013
 121.3264073  83.1861667  17.3790689 113.7000837  85.9967308  14.1347526
 113.3359044  85.4697929  14.8460447 114.5567953  85.6065777  13.9614011
 119.6050137  77.2861640  21.3978792 119.2733462  78.1557051  21.1740007
 119.0095751  76.9697924  22.0772822 113.3406324  81.0257207   9.1308874
 113.5080726  81.8937444   9.4979345 113.1503493  81.1884489   8.2070163
 116.0981657  89.4874186  20.7974705 115.7982380  90.3899225  20.6890512
 115.7532716  89.2206369  21.6495857 109.5494138  85.9387983  16.8311409
 108.6244635  85.8064197  17.0389101 109.7978552  86.7182202  17.3281351
 119.4978801  82.0056726  18.4772142 118.5895678  81.9372135  18.1830903
 119.4466396  82.4828671  19.3053967 113.3195545  83.4814865  10.1155541
 113.1995170  83.9271916  10.9541021 112.6248133  83.8300182   9.5569079
 106.9102949  85.5821257  17.6655198 107.0395331  85.8355735  18.5794610
 106.2300401  86.1748965  17.3459853 113.5719666  83.4246372  26.4207039
 112.7953000  83.9840292  26.4109904 114.2110229  83.9103155  26.9421909
 121.3640447  80.2073165  20.2550016 120.7214827  80.5005698  19.6089810
 120.8595376  80.0926085  21.0603212 111.8266039  86.2331825  25.9825006
 112.5680723  86.7716869  25.7059830 111.1203024  86.8598114  26.1396558
 117.3021378  88.3760966  24.5797168 117.7104734  87.9343376  23.8351800
 116.5798640  87.8013593  24.8331361 113.6552448  83.3133573  21.9530725
 114.5013644  83.7372986  22.0965374 113.5951086  82.6567197  22.6469288
 117.6250193  88.9362156  18.3349457 116.9959055  89.1007871  17.6325524
 117.2375855  89.3503766  19.1060421 116.8051894  80.9737941  23.6111898
 116.5612826  81.7280001  23.0746174 117.0811824  81.3523289  24.4459145
 118.7590357  87.5176553  22.2889164 118.9707252  88.1608313  21.6123545
 118.7120105  86.6838870  21.8211094 116.3616585  80.1294374  19.1925736
 115.5001064  80.4275627  19.4842474 116.3879020  80.3464773  18.2606769
 113.1778155  88.6736564  15.5999542 113.6416500  88.9524267  14.8104164
 112.9134953  87.7720009  15.4172632 110.0702236  88.2208046  18.5379305
 110.6403593  88.6495314  17.8996789 110.6610348  87.9390631  19.2363491
 112.1147041  84.7959717  12.4089107 112.8171084  85.2480761  12.8763033
 111.7827669  84.1543536  13.0369000 110.5627402  83.3871473  26.7840316
 109.9326063  84.0687754  27.0175713 110.4563490  83.2754555  25.8393454
 105.8572375  83.0543270  17.7106240 105.0671429  83.3100798  17.2346351
 106.3483622  83.8691607  17.8158281 119.8736184  90.3948509  20.4611521
 120.6953628  89.9928696  20.1794203 119.8698587  90.2916743  21.4127637
 107.8087120  83.4187849  14.6689717 107.0118284  83.5306543  15.1873213
 107.5812712  83.7574501  13.8030608 113.6392788  89.9432552  22.6172232
 113.7037220  90.4052959  23.4530403 112.9303712  89.3129917  22.7454542
 104.1410078  83.3073760  20.1421231 104.3918116  84.1920770  20.4078807
 104.6769626  83.1278361  19.3696323 109.8408145  77.6892239  29.1465567
 109.4475091  77.1358438  29.8213211 110.6574286  78.0002818  29.5372085
 106.8070203  89.1276098  13.0579137 107.3194724  89.9219348  13.2084702
 107.4592916  88.4302388  12.9912739 108.6165088  92.2441854  15.1401890
 108.7931716  93.1659818  14.9522874 109.4121921  91.9300273  15.5696270
 112.7576106  79.1050118  26.7385824 113.4985820  79.7057272  26.6590286
 112.9894029  78.3627756  26.1803866 107.9017444  84.2906486  25.0164053
 107.7870959  83.3891743  25.3171152 107.0461962  84.5370182  24.6648870
 114.9809282  92.2324226  26.6151554 114.5373136  91.4460605  26.2972459
 115.6426496  92.4203376  25.9495445 109.7396403  93.7620028  21.1412233
 110.2903828  93.6337091  20.3689227 108.9007879  94.0614917  20.7907125
 117.0790520  92.5127026  24.6432955 117.0608995  93.3335907  24.1513225
 118.0010440  92.3881101  24.8683097 113.5363574  90.0271155  25.4856464
 114.0691911  89.2659444  25.2555772 113.0077655  89.7344807  26.2280618
 116.7033269  75.1331221  21.0150105 116.3597539  76.0232863  20.9389216
 117.0712232  74.9432879  20.1519690 104.7719120  87.4564752  13.8338708
 105.6094342  87.8661760  13.6172415 104.9497387  86.5164194  13.8038901
 114.2530663  79.9689533  14.5807779 113.3972259  79.5796384  14.4013418
 114.6657615  80.0481494  13.7207564 115.7829810  77.5035877  18.9799339
 115.2794605  77.4666012  18.1667144 116.0760416  78.4128619  19.0395995
 112.0272695  77.5874606  17.9865520 112.8925692  77.3917415  17.6271410
 112.0950204  77.3584958  18.9134877 116.4569855  82.9966925  11.3482322
 116.1519991  83.3113074  12.1992465 117.4100297  83.0748344  11.3909655
 119.8809133  87.3506168  18.1142322 119.2232807  88.0405430  18.2022451
 120.6849532  87.7402600  18.4576308 109.6335014  79.8176814  15.3581887
 110.2078766  79.5951996  14.6255080 110.2205997  79.8865509  16.1110489
 118.6914592  85.7050541  16.1646264 119.2046473  86.3380533  16.6667974
 119.3415816  85.1051737  15.7989624 109.9604602  81.8481275   9.3777773
 109.1241914  82.1855962   9.6987047 109.8209371  81.7130255   8.4404909
 111.9357682  76.6918063  14.0856957 111.2822095  76.3767080  13.4613571
 111.8938156  76.0693804  14.8116780 115.1695423  83.1799997  18.4104604
 114.2517984  83.4014944  18.2526292 115.5855566  83.2546307  17.5516312
 115.9530470  84.5791412  13.5407285 116.7002289  85.0912809  13.2314407
 116.2222060  84.2575465  14.4011678 118.4009307  81.6148529  15.5226074
 117.6632064  81.1025915  15.8536316 118.6536081  81.1748910  14.7109351
 118.5020935  74.3924781  16.1167843 118.8079812  73.5322144  15.8293758
 119.2273540  74.9842401  15.9166837 104.7945291  84.7955467  14.5049441
 104.5969691  84.2024828  13.7800508 104.2391955  84.4907677  15.2225380
 112.7742015  84.6878574  16.6244034 112.8290624  83.7352410  16.5486511
 111.9633217  84.8438013  17.1085333 110.7134374  83.3055633  14.3834413
 109.9002240  83.6049804  14.7899605 111.2093369  82.9111322  15.1008895
 112.8642952  93.3013390  16.3168678 112.8219131  93.5274237  15.3877210
 113.7805651  93.0676765  16.4654479 116.3108586  83.7697458  23.2149307
 116.6657974  83.9968931  24.0743773 116.9580717  84.1015835  22.5926562
 110.2048449  80.8773989  19.9995648 110.8447829  80.7362748  19.3018611
 109.3725980  80.5908502  19.6234250 122.0675703  88.9592421  18.9309907
 122.5012209  88.8667710  19.7792962 122.7807283  88.9349921  18.2929923
 110.9808753  90.1776419  16.1130640 111.7749352  89.6826739  15.9113215
 110.2700445  89.6494282  15.7498346 115.8003598  92.5594515  20.4643008
 115.8540620  93.1285451  21.2320724 114.9318379  92.7296400  20.0997045
 107.2891517  84.3219501  12.1890393 106.3589105  84.2603957  12.4060355
 107.3848989  83.7995454  11.3927034 107.2077066  80.8474314  14.7768635
 107.4683883  81.7619647  14.6677795 108.0294238  80.3798756  14.9265248
 108.6801991  82.2612071  21.9467459 109.3525044  82.0529433  21.2980108
 107.8531777  82.0634157  21.5072692 122.9291252  89.0016121  21.4642793
 123.1227142  89.9061932  21.7102068 122.8291870  88.5423540  22.2981378
 114.5827563  78.8874012  23.9633120 113.9355478  79.5863962  23.8697597
 115.3528578  79.3210156  24.3309368 117.9906361  89.1522864  27.0383674
 117.8391867  88.9233416  26.1213757 117.9811040  90.1093466  27.0515019
 114.7591697  86.7254777  22.0229940 115.6883757  86.8765936  21.8498907
 114.3382727  86.8138798  21.1678586 113.5580029  90.7505441  19.7928478
 113.4191115  90.3824226  20.6654416 112.7694625  91.2653081  19.6212435
 115.1085244  90.1287044  17.1817315 114.7735077  90.0887814  18.0774965
 114.6089190  89.4631760  16.7087726 109.0829488  85.5354674  22.7069897
 108.9449286  84.8034913  23.3081436 109.9934412  85.4463574  22.4254084
 111.7111789  85.2474633  22.1953576 112.4211407  84.6067826  22.1540195
 111.6681097  85.4987528  23.1179757 119.6998568  92.1841987  25.1160155
 119.6411114  91.5001207  24.4490738 120.1018086  92.9260977  24.6640781
 110.4240723  82.2339851  24.0149216 109.8878080  81.7830590  24.6670812
 109.8357431  82.3685760  23.2719680 108.7189266  99.0003901  17.9093874
 108.9585865  99.6322425  18.5872893 107.8758463  98.6491941  18.1959234
 119.7015975  90.1481571  23.3474135 118.8142754  89.8107492  23.4700534
 120.2714526  89.4164602  23.5842900 101.3545122  86.4805662  16.6717186
 102.0416162  86.1667392  16.0838202 101.1993251  87.3847027  16.3984438
 106.1579844  81.3695859  21.1002210 106.0738033  80.7621528  20.3652620
 105.3362550  81.8604877  21.1011706 113.2317128  94.8083023  20.3135378
 113.1587300  95.6137994  20.8254683 112.7894521  95.0074989  19.4883400
 116.3303558  79.8549422  16.4672405 116.8272257  79.1019385  16.1473475
 115.5590539  79.8913739  15.9015615 124.1833315  85.5589788  18.1090697
 124.1723192  86.4414503  17.7384630 123.3150695  85.2061339  17.9145234
 115.6915812  94.7069857  22.4693537 116.4043784  95.3417322  22.3969438
 115.2005840  94.8033723  21.6533539 117.4133339  88.6121110  14.0410829
 116.4789617  88.7322572  13.8715533 117.5910007  87.7093576  13.7770838
 112.9138527  81.9966805  16.1944090 112.5436314  81.4437846  16.8824995
 113.4097619  81.3924939  15.6419090 120.8005890  84.4538429  14.5760863
 121.2666342  85.2866421  14.5021165 121.2513390  83.9883411  15.2806121
 110.7427725  92.4564300  23.2899108 111.4437185  93.0900783  23.4428502
 110.2722840  92.7979032  22.5294747 118.7722553  76.8219016  18.6151764
 117.8585633  77.0523243  18.7833971 119.2015654  76.9057460  19.4665796
 118.5429011  85.0108908  21.1151658 117.8900461  85.2584815  20.4604111
 118.9209391  84.1973046  20.7814135 114.5916584  85.7528719  27.6017695
 113.9157221  85.6522848  28.2720070 115.4144218  85.5967933  28.0653692
 106.3395443  91.9900655  20.2230210 106.9248880  91.2444343  20.3558115
 106.1420282  92.3004612  21.1066874 109.1934099  95.0251903  15.2392653
 108.5244474  95.5098031  14.7556693 109.0546968  95.2721123  16.1536031
 100.9313098  84.5606256  18.9434654 100.9697198  84.0269846  19.7371772
 100.4253391  84.0341461  18.3245631 113.3339367  97.0595646  21.8375311
 113.8857675  97.2227268  22.6024396 113.6745561  97.6500084  21.1655336
 108.3103860  79.4070796  22.4397196 108.3745187  80.2685627  22.0274594
 108.2470981  78.7944798  21.7069554 107.7856133  81.4793929  26.0870230
 108.4128172  81.0971006  26.7007754 106.9284052  81.2608131  26.4525923
 118.1850241  91.8856904  27.6923966 118.7290145  92.4986862  27.1978920
 117.6037086  92.4436482  28.2090979 104.5621676  83.2870358  12.0188585
 104.8575117  82.3781036  11.9655639 103.6609711  83.2658097  11.6969587
 116.4707754  95.0077622  18.8238993 116.3458894  94.2067362  18.3149939
 117.1286846  95.5023815  18.3352963 108.0915923  81.3626354  18.0016134
 107.3702508  81.9762322  17.8623607 108.8809178  81.8984119  17.9232779
 118.5342663  92.8086642  20.4518543 117.5872998  92.6891993  20.3796870
 118.8825436  91.9209140  20.5344805 110.8942236  78.6980781  24.2756785
 111.4176638  78.9443077  25.0383095 110.6754569  79.5300816  23.8559923
 106.2909517  80.9684456  12.1427910 105.9622223  80.0881834  11.9603016
 106.6448888  80.9132124  13.0304299 115.5389096  92.6039358  16.6522896
 115.3914059  91.6756066  16.8330466 116.3642590  92.6259449  16.1679971
 109.4051340  81.2557425  12.5103388 109.7447413  81.7843347  11.7881996
 109.8523461  81.5937831  13.2861954 119.1423218  93.4267917  17.7387768
 120.0669765  93.2210778  17.6012220 118.9738521  93.1784318  18.6477110
 112.0994781  79.6394476  21.9606456 111.7591602  78.8402289  22.3627136
 111.3933787  79.9396187  21.3883289 112.7511253  76.7243788  20.4133779
 113.5737322  76.2504267  20.2912669 112.9949317  77.5034272  20.9132465
 111.3919488  79.7532047  10.7096681 112.1127850  80.1313300  10.2060397
 110.7684792  80.4720924  10.8131658 115.5350610  80.4577196  11.6455013
 115.7514225  81.3401834  11.3443841 115.0544678  80.0663409  10.9160655
 110.2749832  83.4162909  18.2225757 110.1294413  83.7303212  19.1150039
 109.7975035  84.0347809  17.6696656 112.1346215  80.4065457  18.2706647
 112.1207783  79.5106550  17.9338945 112.8518643  80.4136121  18.9044933
 113.9872345  80.8402797  20.3159774 113.7290123  81.7619868  20.3144105
 113.4557386  80.4433232  21.0060239 104.7495494  85.9568254  21.1613419
 104.2048962  86.7328061  21.2933693 105.6274844  86.3039058  21.0032540
 111.5383111  79.2879837  13.5394217 111.6599022  78.3596484  13.7385105
 111.2485153  79.3018523  12.6272533 114.4074301  76.9734748  16.6760937
 114.4295998  77.0374081  15.7212917 114.8242360  76.1339256  16.8701443
 105.5361516  85.0838150  24.0543576 104.7943252  85.2320785  24.6408206
 105.2154260  85.3446415  23.1910325 113.4805178  94.6254128  23.8523966
 113.7892305  94.3803275  24.7246665 114.2780660  94.8300766  23.3642836
 105.9818129  92.9703578  16.0853970 106.8076149  92.6707350  15.7052614
 105.6312181  92.2011201  16.5343759 110.9499663  92.3230047  18.1551644
 110.3279672  91.6600752  17.8553872 111.6204530  92.3491179  17.4725292
 104.1826735  90.8889905  17.0442904 103.3458643  90.4612079  16.8626905
 104.1550380  91.0822348  17.9813695 111.0224190  80.8011835  27.7484150
 111.0712346  81.6773958  27.3661919 111.5646704  80.2589228  27.1755793
 121.5079036  91.3452958  27.0285287 120.7174580  91.3277097  26.4889786
 121.2712390  91.8841252  27.7834323 121.6276911  88.1945424  24.3418015
 121.6774916  88.0295432  25.2833538 121.5190834  87.3272683  23.9515896
 118.9180673  84.1776352  25.6577322 119.8190536  84.0382817  25.3661320
 118.9928648  84.3430807  26.5975500 113.2523479  81.5543207  24.5030508
 112.3826788  81.8476773  24.2313097 113.4882959  82.1383652  25.2237772
 123.1295108  90.6142366  24.5860037 122.8379916  90.9772346  25.4223498
 122.5167239  89.9009374  24.4073369 124.3290790  88.1795246  17.1062607
 125.1637681  88.6185050  17.2700168 124.4649919  87.7033899  16.2870853
 121.3782296  85.7374981  23.0540095 121.8536418  85.9302627  22.2458946
 120.4547861  85.7934166  22.8083479 108.2665803  86.8999148  12.6371173
 108.0211844  85.9961478  12.8351383 108.4361717  86.9016298  11.6950651
 115.9562512  77.7722824  22.0195929 116.4744456  78.5083851  21.6942417
 115.6017645  78.0786817  22.8542688 107.5361450  82.6327505  10.1357335
 106.8430695  82.7071860   9.4797371 107.2913202  81.8687849  10.6578852
 116.2075107  74.1923107  17.5396825 116.4876860  73.5246296  18.1657252
 116.9925714  74.3852202  17.0271489 120.0783965  82.6140741  21.2868401
 121.0301388  82.7138838  21.3080625 119.9087415  81.8219009  21.7966485
 118.0998344  79.6996324  21.4727801 117.5048277  79.9801337  20.7774290
 117.8148041  80.1890225  22.2444543 122.5572043  85.8346860  20.4010700
 122.5248363  84.8962861  20.5870384 123.1672666  85.9130897  19.6676525
 122.7066531  82.6257904  20.4468983 122.1905580  81.8416360  20.2598912
 123.5906480  82.2976620  20.6115503 120.3677258  76.3698919  16.4064796
 120.1702079  76.0614007  17.2908128 120.9776964  77.0960558  16.5362726
 128.3748593  86.8962867  19.5416737 129.1051981  86.6348155  20.1024440
 127.7655538  86.1591589  19.5818805 126.4563890  85.0370730  20.1391188
 125.7297053  84.9026695  19.5307680 126.0411177  85.3447558  20.9447906
 114.2794066  88.7560659  27.9038561 115.1997076  88.9339258  28.0978608
 114.2443649  87.8116705  27.7518260 103.4976231  83.9499253  16.8291836
 103.1779015  83.0964561  16.5366210 102.9509659  84.1647831  17.5849803
 107.2756139  86.6661694  20.5461342 107.4942148  87.5978802  20.5649376
 107.6881912  86.3069668  21.3316146 114.1960356  77.1729779  12.5337031
 113.3861085  76.8276864  12.9092277 114.8844773  76.8637323  13.1224642
 116.1250905  76.2507826  14.1561327 116.6781943  76.6703280  14.8151350
 116.3620991  75.3243574  14.1984283 112.1484004  82.2394900  29.9364091
 112.0480731  83.1889257  29.8676182 111.9305546  81.9113139  29.0640161
 111.3497075  79.4879825   6.5204769 112.2116239  79.8134723   6.7800586
 111.5347420  78.7011321   6.0077834 103.3664491  87.5702165  18.7984957
 102.6727963  87.1556117  18.2854912 104.1137482  87.6122701  18.2018376
 119.5029712  78.3608351  13.6639992 118.9228381  79.0193155  13.2818044
 119.2365645  77.5385696  13.2527409 117.9533278  77.7613409  15.8661312
 118.4533057  77.8729944  15.0575631 118.5968886  77.4574462  16.5062120
 112.0115274  85.6692039  28.7529153 111.5282356  86.4692399  28.9593042
 112.0976213  85.6799984  27.7996597 105.2801234  87.5020418  16.6750972
 105.2571922  87.6008106  15.7232855 105.5901870  88.3485569  16.9968138
 107.9388612  89.5596573  20.7897587 108.8931865  89.5280516  20.7227518
 107.7401135  89.0987197  21.6047813 108.5287994  88.1297689  23.3568384
 109.3480883  88.6241768  23.3803222 108.8024801  87.2129658  23.3285952
 118.2854590  80.5208442  12.7196340 117.3980445  80.8058092  12.5016535
 118.7008579  80.3602205  11.8723617 121.6369126  80.5454963  16.4350679
 122.4129516  81.0351415  16.7075296 120.9117260  80.9713017  16.8922549
 124.0741685  81.2582582  17.4924620 124.6686175  81.0178318  16.7817928
 124.1468268  80.5389712  18.1198156 106.2938840  95.1016193  17.8067785
 106.1593308  94.3416594  17.2405783 105.8770903  95.8257093  17.3396573
 122.0700420  81.8252710  13.7596750 121.8137354  81.4249345  14.5904957
 121.4453288  82.5396503  13.6346889 126.3812757  84.5648783  16.2668041
 125.8212315  84.6341972  17.0399603 125.7756261  84.3889767  15.5467537
 109.4507966  95.9985510  18.0186227 109.3340350  96.9430942  17.9164917
 108.6300412  95.6959071  18.4072026 103.7822908  82.4635823  24.0560581
 104.4281772  81.9534777  24.5447807 103.5740059  83.2004505  24.6304007
 116.3076300  89.5316671  29.5552722 117.1767460  89.7057323  29.1939357
 115.8283052  90.3511088  29.4328451 112.3026518  76.7275868   9.8084478
 112.2905188  77.6717708   9.9652748 113.1949940  76.5446013   9.5143939
 110.4762480  96.6513772  21.2342156 111.3789727  96.6837382  21.5508651
 110.2499850  95.7214223  21.2488491 112.2316082  95.4044758  17.8952234
 111.2811713  95.4046620  17.7816607 112.5348568  94.6577493  17.3788269
 116.1178638  73.3218645  14.0630414 115.3511034  72.7677131  14.2087097
 116.5289343  73.3940513  14.9244566 108.1220399  79.6103440  28.1535596
 108.9851860  79.2540245  28.3638920 107.5485810  79.2717335  28.8411000
 124.4113421  98.7538290  26.4207039 123.6346755  99.3132210  26.4109904
 125.0503984  99.2395073  26.9421909 122.6659793 101.5623743  25.9825006
 123.4074478 102.1008787  25.7059830 121.9596779 102.1890032  26.1396558
 127.6445648  96.3029859  23.6111898 127.4006580  97.0571919  23.0746174
 127.9205579  96.6815206  24.4459145 121.4021157  98.7163391  26.7840316
 120.7719818  99.3979672  27.0175713 121.2957245  98.6046473  25.8393454
 114.9803832  98.6365678  20.1421231 115.2311871  99.5212688  20.4078807
 115.5163381  98.4570279  19.3696323 120.6801900  93.0184157  29.1465567
 120.2868845  92.4650356  29.8213211 121.4968040  93.3294735  29.5372085
 123.5969861  94.4342036  26.7385824 124.3379574  95.0349189  26.6590286
 123.8287783  93.6919674  26.1803866 118.7411199  99.6198403  25.0164053
 118.6264714  98.7183661  25.3171152 117.8855716  99.8662100  24.6648870
 127.5427024  90.4623139  21.0150105 127.1991293  91.3524781  20.9389216
 127.9105986  90.2724797  20.1519690 119.5195745  97.5903989  21.9467459
 120.1918799  97.3821351  21.2980108 118.6925532  97.3926075  21.5072692
 125.4221317  94.2165930  23.9633120 124.7749232  94.9155879  23.8697597
 126.1922333  94.6502074  24.3309368 119.9223243 100.8646592  22.7069897
 119.7843041 100.1326831  23.3081436 120.8328166 100.7755492  22.4254084
 121.2634477  97.5631769  24.0149216 120.7271834  97.1122507  24.6670812
 120.6751186  97.6977678  23.2719680 116.9973599  96.6987777  21.1002210
 116.9131787  96.0913446  20.3652620 116.1756305  97.1896795  21.1011706
 125.4310339 101.0820637  27.6017695 124.7550976 100.9814766  28.2720070
 126.2537973 100.9259850  28.0653692 111.7706853  99.8898173  18.9434654
 111.8090952  99.3561764  19.7371772 111.2647145  99.3633379  18.3245631
 119.1497615  94.7362714  22.4397196 119.2138941  95.5977545  22.0274594
 119.0864735  94.1236716  21.7069554 118.6249887  96.8085846  26.0870230
 119.2521926  96.4262924  26.7007754 117.7677806  96.5900048  26.4525923
 121.7335991  94.0272699  24.2756785 122.2570392  94.2734995  25.0383095
 121.5148324  94.8592733  23.8559923 122.9388536  94.9686394  21.9606456
 122.5985356  94.1694207  22.3627136 122.2327542  95.2688105  21.3883289
 123.5905008  92.0535706  20.4133779 124.4131077  91.5796184  20.2912669
 123.8343071  92.8326190  20.9132465 115.5889248 101.2860171  21.1613419
 115.0442717 102.0619979  21.2933693 116.4668598 101.6330976  21.0032540
 116.3755270 100.4130067  24.0543576 115.6337006 100.5612703  24.6408206
 116.0548015 100.6738333  23.1910325 121.8617945  96.1303752  27.7484150
 121.9106100  97.0065875  27.3661919 122.4040459  95.5881145  27.1755793
 124.0917233  96.8835125  24.5030508 123.2220542  97.1768691  24.2313097
 124.3276713  97.4675570  25.2237772 126.7956267  93.1014742  22.0195929
 127.3138211  93.8375769  21.6942417 126.4411400  93.4078735  22.8542688
 125.1187821 104.0852577  27.9038561 126.0390830 104.2631176  28.0978608
 125.0837404 103.1408622  27.7518260 122.9877758  97.5686817  29.9364091
 122.8874485  98.5181174  29.8676182 122.7699301  97.2405056  29.0640161
 122.8509029 100.9983956  28.7529153 122.3676110 101.7984316  28.9593042
 122.9369968 101.0091901  27.7996597 114.6216662  97.7927741  24.0560581
 115.2675526  97.2826695  24.5447807 114.4133814  98.5296423  24.6304007
 127.1470055 104.8608588  29.5552722 128.0161214 105.0349241  29.1939357
 126.6676806 105.6803005  29.4328451 118.9614153  94.9395358  28.1535596
 119.8245615  94.5832163  28.3638920 118.3879564  94.6009253  28.8411000
  81.9003248  18.0362028  11.5791034  81.8891889  17.6414827  10.7071537
  82.0623888  17.3028101  12.1724805  78.6210510  20.8199140  10.5270218
  78.3300376  21.7244771  10.4116884  79.2567494  20.8615668  11.2414287
  81.0538404  14.4432742  13.1452346  80.2771738  15.0026662  13.1355210
  81.6928967  14.9289524  13.6667216  79.3084777  17.2518195  12.7070313
  80.0499461  17.7903239  12.4305136  78.6021762  17.8784484  12.8641865
  84.7840116  19.3947335  11.3042474  85.1923472  18.9529746  10.5597107
  84.0617378  18.8199963  11.5576667  87.3554922  21.4134878   7.1856828
  88.1772366  21.0115066   6.9039509  87.3517325  21.3103112   8.1372944
  82.4628020  23.2510596  13.3396861  82.0191874  22.4646974  13.0217765
  83.1245233  23.4389746  12.6740751  84.5609258  23.5313395  11.3678262
  84.5427733  24.3522277  10.8758531  85.4829178  23.4067471  11.5928403
  81.0182312  21.0457525  12.2101770  81.5510649  20.2845813  11.9801078
  80.4896393  20.7531177  12.9525925  90.4109990  20.0202491   8.1888100
  90.6045880  20.9248301   8.4347374  90.3110608  19.5609910   9.0226685
  85.4725099  20.1709234  13.7628980  85.3210605  19.9419785  12.8459064
  85.4629778  21.1279835  13.7760325  87.1817305  23.2028356  11.8405462
  87.1229851  22.5187576  11.1736045  87.5836824  23.9447346  11.3886088
  87.1834713  21.1667940  10.0719442  86.2961491  20.8293862  10.1945841
  87.7533264  20.4350971  10.3088207  83.1734550  25.7256227   9.1938844
  83.8862522  26.3603691   9.1214745  82.6824578  25.8220093   8.3778845
  78.2246463  23.4750670  10.0144414  78.9255923  24.1087153  10.1673809
  77.7541578  23.8165402   9.2540054  82.0735322  16.7715089  14.3263002
  81.3975959  16.6709218  14.9965377  82.8962956  16.6154302  14.7898999
  80.8158105  28.0782016   8.5620618  81.3676413  28.2413637   9.3269703
  81.1564298  28.6686454   7.8900643  85.6668979  22.9043273  14.4169272
  86.2108883  23.5173232  13.9224227  85.0855824  23.4622852  14.9336285
  86.0161401  23.8273012   7.1763850  85.0691736  23.7078363   7.1042177
  86.3644174  22.9395510   7.2590111  80.9623916  25.6440498  10.5769272
  81.2711043  25.3989644  11.4491972  81.7599398  25.8487136  10.0888142
  88.9897774  22.3639328  13.7530593  88.1993317  22.3463466  13.2135093
  88.7531128  22.9027621  14.5079630  89.1095649  19.2131794  11.0663322
  89.1593654  19.0481801  12.0078845  89.0009572  18.3459053  10.6761203
  86.3999411  15.1962722  12.3822629  87.3009274  15.0569187  12.0906627
  86.4747386  15.3617177  13.3220806  90.6113845  21.6328735  11.3105344
  90.3198654  21.9958716  12.1468805  89.9985977  20.9195744  11.1318676
  88.8601034  16.7561350   9.7785402  89.3355155  16.9488996   8.9704253
  87.9366599  16.8120536   9.5328785  81.7612804  19.7747029  14.6283868
  82.6815813  19.9525628  14.8223914  81.7262387  18.8303074  14.4763567
  79.6302742  13.2581269  16.6609398  79.5299469  14.2075626  16.5921489
  79.4124284  12.9299508  15.7885468  79.4934012  16.6878408  15.4774460
  79.0101094  17.4878768  15.6838349  79.5794951  16.6986353  14.5241904
  83.7895038  20.5503040  16.2798029  84.6586198  20.7243693  15.9184664
  83.3101789  21.3697457  16.1573758  77.9581218  27.6700141   7.9587462
  78.8608465  27.7023752   8.2753957  77.7318588  26.7400592   7.9733798
  95.4487514  32.2591666   5.6843303  96.0865924  32.1398414   4.9806643
  95.3308357  33.2072510   5.7431255  92.2577220  32.2119094   5.6204828
  91.9195731  32.0960159   4.7325363  93.1266988  31.8110259   5.6005834
  88.1164036  34.0654571   1.6101719  87.5528901  33.9744508   0.8418007
  88.0016431  33.2454475   2.0904211  92.7397003  33.3653946  11.5791034
  92.7285644  32.9706744  10.7071537  92.9017642  32.6320019  12.1724805
  85.6628468  35.5605762   4.4485939  86.4549759  35.2196587   4.0332239
  85.9025118  35.6700737   5.3688093  93.6963594  37.7325538  -3.0783816
  93.0451574  38.3179619  -3.4649802  94.4907957  38.2631733  -3.0188779
  89.4604264  36.1491058  10.5270218  89.1694130  37.0536689  10.4116884
  90.0961248  36.1907586  11.2414287  90.3860471  33.5267906   7.1171577
  90.9824043  33.3023929   6.4028540  90.4435442  32.7852652   7.7197025
  95.0028782  29.9843120   2.7596511  95.7891871  29.5662543   2.4086928
  95.2667486  30.8889212   2.9278160  95.1738859  35.4215970  -2.5414832
  94.5384692  35.4950597  -1.8293927  94.8436266  36.0109569  -3.2195753
  92.0213329  32.3445595   0.8592832  91.6571536  31.8176216   1.5705754
  92.8780445  31.9544064   0.6859318  97.9262630  23.6339927   8.1224098
  97.5945954  24.5035338   7.8985313  97.3308243  23.3176211   8.8018129
  94.4194149  35.8352473   7.5220011  94.1194872  36.7377512   7.4135818
  94.0745209  35.5684657   8.3741164  87.8706631  32.2866270   3.5556716
  86.9457127  32.1542484   3.7634407  88.1191044  33.0660489   4.0526658
  97.8191293  28.3535014   5.2017449  96.9108170  28.2850422   4.9076209
  97.7678889  28.8306959   6.0299274  85.2315442  31.9299544   4.3900505
  85.3607823  32.1834023   5.3039916  84.5512893  32.5227252   4.0705160
  89.4014929  42.5996794   0.4890979  89.3238959  43.5504619   0.5679459
  88.7976573  42.2542666   1.1465905  91.8932159  29.7724659  13.1452346
  91.1165493  30.3318579  13.1355210  92.5322722  30.2581442  13.6667216
  99.6852939  26.5551452   6.9795322  99.0427320  26.8483985   6.3335117
  99.1807868  26.4404372   7.7848519  90.1478531  32.5810113  12.7070313
  90.8893215  33.1195157  12.4305136  89.4415516  33.2076401  12.8641865
  95.6233871  34.7239253  11.3042474  96.0317227  34.2821664  10.5597107
  94.9011132  34.1491881  11.5576667  91.9764941  29.6611860   8.6776031
  92.8226136  30.0851273   8.8210680  91.9163578  29.0045484   9.3714594
  95.9462685  35.2840444   5.0594763  95.3171548  35.4486158   4.3570831
  95.5588347  35.6982053   5.8305727  99.8251917  36.2194881   2.4139127
  99.1402955  36.5993783   1.8636160  99.9095766  36.8290208   3.1471075
  95.1264386  27.3216228  10.3357205  94.8825318  28.0758289   9.7991481
  95.4024317  27.7001576  11.1704452  97.0802849  33.8654841   9.0134470
  97.2919744  34.5086600   8.3368852  97.0332597  33.0317157   8.5456401
  94.6829078  26.4772661   5.9171043  93.8213557  26.7753915   6.2087780
  94.7091512  26.6943060   4.9852075  91.4990647  35.0214852   2.3244848
  91.9628993  35.3002555   1.5349471  91.2347445  34.1198296   2.1417939
  88.3914728  34.5686333   5.2624612  88.9616085  34.9973602   4.6242096
  88.9822840  34.2868918   5.9608797  88.8839895  29.7349761  13.5085623
  88.2538555  30.4166042  13.7421020  88.7775983  29.6232842  12.5638761
  84.1784867  29.4021557   4.4351547  83.3883921  29.6579085   3.9591658
  84.6696115  30.2169895   4.5403588  98.1948677  36.7426796   7.1856828
  99.0166120  36.3406983   6.9039509  98.1911080  36.6395030   8.1372944
  91.9605280  36.2910839   9.3417538  92.0249713  36.7531246  10.1775710
  91.2516204  35.6608204   9.4699848  82.4622570  29.6552047   6.8666538
  82.7130609  30.5399057   7.1324114  82.9982119  29.4756649   6.0941630
  91.6753298  37.9578947  -0.7903481  91.5398973  38.8030482  -0.3618634
  92.2163110  38.1598224  -1.5537548  88.1620637  24.0370527  15.8710874
  87.7687583  23.4836725  16.5458518  88.9786778  24.3481105  16.2617391
  85.1282695  35.4754385  -0.2175556  85.6407216  36.2697635  -0.0669992
  85.7805408  34.7780675  -0.2841955  86.9377580  38.5920141   1.8647197
  87.1144208  39.5138106   1.6768181  87.7334413  38.2778560   2.2941577
  91.0788598  25.4528406  13.4631130  91.8198312  26.0535559  13.3835593
  91.3106521  24.7106043  12.9049173  86.2229936  30.6384773  11.7409360
  86.1083452  29.7370030  12.0416459  85.3674454  30.8848470  11.3894177
  93.3021774  38.5802513  13.3396861  92.8585628  37.7938892  13.0217765
  93.9638988  38.7681664  12.6740751  88.0608895  40.1098315   7.8657539
  88.6116321  39.9815378   7.0934533  87.2220371  40.4093204   7.5152432
  95.4003012  38.8605313  11.3678262  95.3821488  39.6814194  10.8758531
  96.3222932  38.7359388  11.5928403  91.8576066  36.3749443  12.2101770
  92.3904403  35.6137731  11.9801078  91.3290148  36.0823094  12.9525925
  95.0245761  21.4809509   7.7395412  94.6810031  22.3711150   7.6634523
  95.3924724  21.2911166   6.8764997  94.1042302  23.8514164   5.7044645
  93.6007097  23.8144299   4.8912451  94.3972909  24.7606906   5.7641302
  90.3485188  23.9352893   4.7110827  91.2138184  23.7395702   4.3516717
  90.4162697  23.7063245   5.6380184  93.2228779  35.5035435  -0.2779418
  92.6950141  34.7688195  -0.5906180  92.7216282  36.2810111  -0.5239449
  98.2021625  33.6984456   4.8387629  97.5445300  34.3883717   4.9267757
  99.0062024  34.0880888   5.1821615  97.0127084  32.0528828   2.8891570
  97.5258966  32.6858820   3.3913280  97.6628308  31.4530024   2.5234930
  94.2749458  42.0313153  -4.3547758  93.6011157  42.3344849  -3.7462801
  94.6615280  42.8342233  -4.7042301  93.4907915  29.5278284   5.1349911
  92.5730476  29.7493231   4.9771599  93.9068058  29.6024594   4.2761618
  94.2742963  30.9269700   0.2652591  95.0214782  31.4391097  -0.0440287
  94.5434552  30.6053752   1.1256985  97.7788880  37.0334830   1.0170713
  97.3251207  36.1925740   1.0735904  97.1482847  37.6696228   1.3545493
  96.2221819  38.8711326   1.9520531  96.5144794  39.4316384   1.2332897
  96.7320440  39.1639887   2.7073690  91.0954507  31.0356861   3.3489341
  91.1503117  30.0830697   3.2731817  90.2845709  31.1916300   3.8330639
  89.0346867  29.6533921   1.1079720  88.2214732  29.9528091   1.5144912
  89.5305861  29.2589609   1.8254202  91.1855445  39.6491678   3.0413984
  91.1431623  39.8752524   2.1122516  92.1018143  39.4155052   3.1899786
  94.6321078  30.1175745   9.9394614  94.9870466  30.3447218  10.7989079
  95.2793210  30.4494122   9.3171869  88.5260941  27.2252276   6.7240955
  89.1660321  27.0841035   6.0263918  87.6938472  26.9386790   6.3479557
 100.3888195  35.3070708   5.6555214 100.8224702  35.2145997   6.5038268
 101.1019776  35.2828208   5.0175230  89.3021245  36.5254707   2.8375947
  90.0961844  36.0305027   2.6358522  88.5912938  35.9972570   2.4743653
  94.1216090  38.9072802   7.1888315  94.1753112  39.4763738   7.9566031
  93.2530871  39.0774687   6.8242352  87.0014483  28.6090358   8.6712766
  87.6737537  28.4007720   8.0225415  86.1744270  28.4112444   8.2317998
 101.2503745  35.3494409   8.1888100 101.4439635  36.2540219   8.4347374
 101.1504363  34.8901828   9.0226685  92.9040055  25.2352299  10.6878427
  92.2567970  25.9342249  10.5942903  93.6741071  25.6688443  11.0554675
  96.3118853  35.5001151  13.7628980  96.1604360  35.2711703  12.8459064
  96.3023533  36.4571753  13.7760325  93.0804190  33.0733064   8.7475247
  94.0096250  33.2244224   8.5744214  92.6595220  33.1617085   7.8923893
  91.8792521  37.0983729   6.5173784  91.7403607  36.7302513   7.3899722
  91.0907118  37.6131368   6.3457742  92.4740673  42.1992825  -2.1400679
  92.6492429  41.7280868  -1.3255057  91.7873461  42.8258591  -1.9119419
  93.4297737  36.4765331   3.9062622  93.0947569  36.4366101   4.8020272
  92.9301682  35.8110047   3.4333032  87.4041980  31.8832961   9.4315203
  87.2661778  31.1513200  10.0326742  88.3146904  31.7941861   9.1499391
  90.0324281  31.5952921   8.9198883  90.7423900  30.9546113   8.8785501
  89.9893589  31.8465815   9.8425064  98.0211060  38.5320274  11.8405462
  97.9623606  37.8479494  11.1736045  98.4230578  39.2739264  11.3886088
  88.7453215  28.5818138  10.7394522  88.2090572  28.1308877  11.3916119
  88.1569924  28.7164047   9.9964987  87.0401759  45.3482188   4.6339181
  87.2798357  45.9800712   5.3118199  86.1970955  44.9970228   4.9204540
  98.0228467  36.4959858  10.0719442  97.1355246  36.1585780  10.1945841
  98.5927018  35.7642889  10.3088207  79.6757614  32.8283950   3.3962493
  80.3628654  32.5145680   2.8083508  79.5205743  33.7325314   3.1229744
  84.4792336  27.7174146   7.8247517  84.3950525  27.1099816   7.0897927
  83.6575043  28.2083164   7.8257013  91.5529621  41.1561310   7.0380685
  91.4799792  41.9616282   7.5499989  91.1107014  41.3553276   6.2128706
  91.3419400  40.3933080   0.5483506  90.5586922  40.9354760   0.6421731
  92.0412145  40.9107060   0.9477748  94.6516050  26.2027710   3.1917712
  95.1484750  25.4497672   2.8718782  93.8803032  26.2392026   2.6260921
 102.5045808  31.9068075   4.8336003 102.4935684  32.7892791   4.4629936
 101.6363187  31.5539626   4.6390540  94.0128304  41.0548144   9.1938844
  94.7256276  41.6895609   9.1214745  93.5218333  41.1512010   8.3778845
  95.7345831  34.9599397   0.7656135  94.8002110  35.0800859   0.5960840
  95.9122499  34.0571864   0.5016145  91.2351019  28.3445093   2.9189396
  90.8648807  27.7916133   3.6070302  91.7310111  27.7403226   2.3664396
  89.0640218  38.8042588  10.0144414  89.7649677  39.4379071  10.1673809
  88.5935333  39.1457319   9.2540054  97.1894613  37.1460537  -1.7007679
  97.4654457  37.0317132  -0.7913805  96.3199112  36.7478022  -1.7395506
  97.0935045  23.1697303   5.3397071  96.1798125  23.4001530   5.5079278
  97.5228146  23.2535747   6.1911103  96.8641504  31.3587195   7.8396965
  96.2112954  31.6063103   7.1849417  97.2421883  30.5451333   7.5059442
  93.8248677  41.3946888   1.9425135  94.0071072  40.5768544   2.4052887
  94.6481663  41.6114581   1.5050025  94.1590843  40.3215073  -0.7959817
  94.6878609  39.8107528  -1.4089654  94.4219062  40.0057604   0.0685717
  92.9129077  32.1007006  14.3263002  92.2369714  32.0001136  14.9965377
  93.7356710  31.9446220  14.7898999  84.6607936  38.3378943   6.9475517
  85.2461372  37.5922631   7.0803421  84.4632774  38.6482899   7.8312181
  87.5146591  41.3730190   1.9637959  86.8456966  41.8576318   1.4801999
  87.3759461  41.6199411   2.8781338  79.2525590  30.9084543   5.6679960
  79.2909690  30.3748134   6.4617078  78.7465883  30.3819748   5.0490937
  91.6551859  43.4073934   8.5620618  92.2070167  43.5705555   9.3269703
  91.9958053  43.9978371   7.8900643  86.6316353  25.7549083   9.1642502
  86.6957679  26.6163914   8.7519900  86.5683473  25.1423085   8.4314861
  86.1068625  27.8272216  12.8115537  86.7340664  27.4449293  13.4253061
  85.2496544  27.6086418  13.1771229  96.5062734  38.2335191  14.4169272
  97.0502638  38.8465149  13.9224227  95.9249579  38.7914770  14.9336285
  94.7920247  41.3555909   5.5484300  94.6671386  40.5545649   5.0395245
  95.4499338  41.8502103   5.0598270  86.4128415  27.7104642   4.7261440
  85.6915001  28.3240609   4.5868913  87.2021671  28.2462407   4.6478086
  96.8555155  39.1564929   7.1763850  95.9085491  39.0370280   7.1042177
  97.2037928  38.2687427   7.2590111  89.2154728  25.0459068  11.0002092
  89.7389130  25.2921365  11.7628401  88.9967062  25.8779103  10.5805229
  93.8601588  38.9517645   3.3768202  93.7126551  38.0234353   3.5575772
  94.6855082  38.9737736   2.8925278  97.4635710  39.7746204   4.4633075
  98.3882258  39.5689066   4.3257526  97.2951014  39.5262605   5.3722417
  90.4207273  25.9872763   8.6851762  90.0804094  25.1880576   9.0872442
  89.7146280  26.2874474   8.1128596  91.0723745  23.0722076   7.1379085
  91.8949815  22.5982554   7.0157976  91.3161809  23.8512559   7.6377772
  88.5962324  29.7641196   4.9471064  88.4506905  30.0781499   5.8395346
  88.1187528  30.3826097   4.3941963  90.4558707  26.7543744   4.9951954
  90.4420276  25.8584838   4.6584252  91.1731135  26.7614408   5.6290240
  92.3084838  27.1881085   7.0405081  92.0502615  28.1098155   7.0389412
  91.7769878  26.7911519   7.7305545  97.2531026  40.2931872  -0.1804834
  97.4267904  39.7278294  -0.9330981  97.7459918  41.0932767  -0.3625344
  83.0707986  32.3046541   7.8858725  82.5261454  33.0806349   8.0179000
  83.9487336  32.6517345   7.7277847  98.2406199  39.6098636  -3.0807935
  98.9357104  40.2305329  -2.8620621  98.5829349  38.7593987  -2.8055557
  83.8574008  31.4316437  10.7788882  83.1155744  31.5799072  11.3653513
  83.5366752  31.6924703   9.9155632  91.8017671  40.9732415  10.5769272
  92.1104797  40.7281562  11.4491972  92.5993153  41.1779054  10.0888142
  91.8238283  43.1270325   2.8074649  91.3843273  42.6346704   3.5007505
  92.5746400  42.5843293   2.5666724  84.3030622  39.3181866   2.8099277
  85.1288642  39.0185638   2.4297920  83.9524674  38.5489488   3.2589065
  89.2712155  38.6708334   4.8796950  88.6492164  38.0079039   4.5799178
  89.9417022  38.6969466   4.1970598  82.5039227  37.2368192   3.7688210
  81.6671135  36.8090367   3.5872212  82.4762872  37.4300636   4.7059002
  89.3436682  27.1490122  14.4729456  89.3924838  28.0252245  14.0907226
  89.8859197  26.6067515  13.9001100  99.8291528  37.6931245  13.7530593
  99.0387072  37.6755384  13.2135093  99.5924883  38.2319539  14.5079630
  99.9489403  34.5423712  11.0663322  99.9987408  34.3773719  12.0078845
  99.8403327  33.6750971  10.6761203  88.8325662  37.2212257  -1.6444589
  88.9813782  37.9047722  -2.2977916  89.6392105  37.2017347  -1.1295133
  97.2393166  30.5254640  12.3822629  98.1403028  30.3861104  12.0906627
  97.3141140  30.6909094  13.3220806  91.5735971  27.9021494  11.2275815
  90.7039280  28.1955060  10.9558404  91.8095451  28.4861939  11.9483079
 101.4507600  36.9620653  11.3105344 101.1592408  37.3250634  12.1468805
 100.8379731  36.2487661  11.1318676  99.6994788  32.0853268   9.7785402
 100.1748910  32.2780914   8.9704253  98.7760354  32.1412454   9.5328785
  94.2775005  24.1201111   8.7441235  94.7956949  24.8562138   8.4187724
  93.9230137  24.4265105   9.5787995  92.3321067  39.7160388  -4.1732842
  91.7595034  40.3350575  -4.6262370  92.9053861  40.2659749  -3.6392920
  98.3996457  28.9619028   8.0113707  99.3513880  29.0617126   8.0325931
  98.2299908  28.1697296   8.5211792  96.4210837  26.0474611   8.1973108
  95.8260769  26.3279624   7.5019597  96.1360533  26.5368512   8.9689849
  95.5518327  39.9997538  -3.0424259  96.4849000  39.9343100  -2.8391384
  95.4641540  40.8353805  -3.5009727 100.8784535  32.1825148   7.1256007
 100.8460855  31.2441148   7.3115691 101.4885159  32.2609184   6.3921832
 101.0279023  28.9736191   7.1714290 100.5118072  28.1894648   6.9844219
 101.9118972  28.6454908   7.3360809 104.7776382  31.3849017   6.8636495
 104.0509546  31.2504982   6.2552986 104.3623669  31.6925846   7.6693213
  92.6006558  35.1038947  14.6283868  93.5209568  35.2817546  14.8223914
  92.5656141  34.1594992  14.4763567  85.5968631  33.0139981   7.2706649
  85.8154641  33.9457089   7.2894683  86.0094405  32.6547956   8.0561453
  90.4696496  28.5873187  16.6609398  90.3693223  29.5367544  16.5921489
  90.2518038  28.2591426  15.7885468  81.6876983  33.9180452   5.5230264
  80.9940455  33.5034405   5.0100218  82.4349974  33.9600988   4.9263683
  90.3327766  32.0170326  15.4774460  89.8494848  32.8170686  15.6838349
  90.4188705  32.0278271  14.5241904  83.6013726  33.8498706   3.3996279
  83.5784414  33.9486393   2.4478162  83.9114362  34.6963856   3.7213445
  86.2601104  35.9074861   7.5142893  87.2144357  35.8758803   7.4472825
  86.0613627  35.4465484   8.3293119  86.8500486  34.4775977  10.0813691
  87.6693375  34.9720055  10.1048528  87.1237294  33.5607945  10.0531259
  84.6151333  41.4494480   4.5313091  84.4805801  40.6894881   3.9651089
  84.1983395  42.1735380   4.0641880  87.7720458  42.3463797   4.7431534
  87.6552843  43.2909230   4.6410224  86.9512905  42.0437359   5.1317333
  82.1035400  28.8114111  10.7805888  82.7494264  28.3013064  11.2693113
  81.8952551  29.5482792  11.3549313  94.6288792  35.8794958  16.2798029
  95.4979952  36.0535610  15.9184664  94.1495544  36.6989375  16.1573758
  88.7974973  42.9992059   7.9587462  89.7002219  43.0315669   8.2753957
  88.5712343  42.0692510   7.9733798  90.5528575  41.7523046   4.6197541
  89.6024206  41.7524907   4.5061913  90.8561061  41.0055780   4.1033576
  86.4432891  25.9581728  14.8780902  87.3064353  25.6018532  15.0884227
  85.8698302  25.6195622  15.5656307 106.2881268  47.5883584   5.6843303
 106.9259678  47.4690331   4.9806643 106.1702111  48.5364428   5.7431255
 103.0970974  47.5411012   5.6204828 102.7589486  47.4252077   4.7325363
 103.9660743  47.1402177   5.6005834  98.9557790  49.3946488   1.6101719
  98.3922655  49.3036425   0.8418007  98.8410185  48.5746393   2.0904211
 103.5790757  48.6945864  11.5791034 103.5679398  48.2998662  10.7071537
 103.7411397  47.9611936  12.1724805  96.5022222  50.8897680   4.4485939
  97.2943514  50.5488505   4.0332239  96.7418872  50.9992655   5.3688093
 104.5357349  53.0617456  -3.0783816 103.8845329  53.6471537  -3.4649802
 105.3301712  53.5923651  -3.0188779  98.4612976  50.1506593  -2.6796682
  99.2343852  49.6035580  -2.8183806  98.8138375  51.0150843  -2.4682220
 100.2998019  51.4782976  10.5270218 100.0087885  52.3828606  10.4116884
 100.9355003  51.5199503  11.2414287 101.2254225  48.8559824   7.1171577
 101.8217798  48.6315846   6.4028540 101.2829197  48.1144570   7.7197025
 105.8422537  45.3135038   2.7596511 106.6285626  44.8954461   2.4086928
 106.1061241  46.2181130   2.9278160 106.0132614  50.7507888  -2.5414832
 105.3778447  50.8242515  -1.8293927 105.6830020  51.3401487  -3.2195753
 100.5175543  48.2127365  -2.8453857 100.4011801  47.5372269  -2.1772773
 100.6277802  47.7259739  -3.6621704 102.8607083  47.6737512   0.8592832
 102.4965291  47.1468133   1.5705754 103.7174199  47.2835982   0.6859318
 108.7656384  38.9631845   8.1224098 108.4339709  39.8327256   7.8985313
 108.1701997  38.6468129   8.8018129 105.2587904  51.1644391   7.5220011
 104.9588627  52.0669430   7.4135818 104.9138963  50.8976574   8.3741164
  98.7100385  47.6158188   3.5556716  97.7850882  47.4834402   3.7634407
  98.9584798  48.3952407   4.0526658 108.6585047  43.6826931   5.2017449
 107.7501925  43.6142340   4.9076209 108.6072643  44.1598876   6.0299274
 102.4801791  45.1585070  -3.1599152 102.3601417  45.6042120  -2.3213672
 101.7854380  45.5070387  -3.7185614  96.0709196  47.2591461   4.3900505
  96.2001577  47.5125940   5.3039916  95.3906647  47.8519169   4.0705160
 100.2408683  57.9288711   0.4890979 100.1632713  58.8796537   0.5679459
  99.6370327  57.5834584   1.1465905 102.7325913  45.1016577  13.1452346
 101.9559247  45.6610497  13.1355210 103.3716476  45.5873360  13.6667216
 110.5246694  41.8843370   6.9795322 109.8821074  42.1775903   6.3335117
 110.0201622  41.7696290   7.7848519 100.9872285  47.9102030  12.7070313
 101.7286970  48.4487074  12.4305136 100.2809271  48.5368319  12.8641865
 106.4627625  50.0531171  11.3042474 106.8710981  49.6113581  10.5597107
 105.7404887  49.4783798  11.5576667 102.8158695  44.9903777   8.6776031
 103.6619890  45.4143191   8.8210680 102.7557333  44.3337402   9.3714594
 106.7856440  50.6132361   5.0594763 106.1565302  50.7778075   4.3570831
 106.3982102  51.0273971   5.8305727 110.6645672  51.5486799   2.4139127
 109.9796710  51.9285701   1.8636160 110.7489521  52.1582126   3.1471075
 105.9658141  42.6508146  10.3357205 105.7219072  43.4050206   9.7991481
 106.2418071  43.0293493  11.1704452 107.9196603  49.1946758   9.0134470
 108.1313499  49.8378518   8.3368852 107.8726352  48.3609075   8.5456401
 105.5222832  41.8064579   5.9171043 104.6607311  42.1045832   6.2087780
 105.5485267  42.0234978   4.9852075 102.3384402  50.3506769   2.3244848
 102.8022747  50.6294472   1.5349471 102.0741200  49.4490214   2.1417939
  99.2308483  49.8978251   5.2624612  99.8009840  50.3265519   4.6242096
  99.8216595  49.6160836   5.9608797 101.2753288  46.4729922  -0.8665587
 101.9777331  46.9250965  -0.3991660 100.9433916  45.8313741  -0.2385693
  99.7233649  45.0641678  13.5085623  99.0932310  45.7457959  13.7421020
  99.6169737  44.9524760  12.5638761  95.0178622  44.7313474   4.4351547
  94.2277676  44.9871003   3.9591658  95.5089869  45.5461812   4.5403588
 109.0342431  52.0718714   7.1856828 109.8559875  51.6698901   6.9039509
 109.0304834  51.9686948   8.1372944  96.9693367  45.0958054   1.3935024
  96.1724530  45.2076748   1.9118519  96.7418959  45.4344706   0.5275914
 102.7999035  51.6202757   9.3417538 102.8643467  52.0823164  10.1775710
 102.0909959  50.9900122   9.4699848  93.3016325  44.9843965   6.8666538
  93.5524363  45.8690975   7.1324114  93.8375873  44.8048566   6.0941630
 102.5147052  53.2870864  -0.7903481 102.3792727  54.1322400  -0.3618634
 103.0556865  53.4890142  -1.5537548  99.0014392  39.3662444  15.8710874
  98.6081338  38.8128643  16.5458518  99.8180532  39.6773023  16.2617391
  95.9676450  50.8046302  -0.2175556  96.4800970  51.5989553  -0.0669992
  96.6199163  50.1072593  -0.2841955  97.7771334  53.9212059   1.8647197
  97.9537963  54.8430023   1.6768181  98.5728168  53.6070478   2.2941577
 101.9182353  40.7820323  13.4631130 102.6592066  41.3827476  13.3835593
 102.1500276  40.0397961  12.9049173  97.0623691  45.9676691  11.7409360
  96.9477206  45.0661948  12.0416459  96.2068209  46.2140387  11.3894177
 104.1415529  53.9094431  13.3396861 103.6979383  53.1230809  13.0217765
 104.8032742  54.0973581  12.6740751  98.9002650  55.4390232   7.8657539
  99.4510075  55.3107296   7.0934533  98.0614126  55.7385122   7.5152432
 106.2396767  54.1897231  11.3678262 106.2215242  55.0106112  10.8758531
 107.1616687  54.0651306  11.5928403 102.6969821  51.7041360  12.2101770
 103.2298158  50.9429648  11.9801078 102.1683902  51.4115012  12.9525925
 105.8639516  36.8101426   7.7395412 105.5203785  37.7003068   7.6634523
 106.2318478  36.6203084   6.8764997  93.9325366  49.1334957   0.5584014
  94.7700588  49.5431965   0.3417722  94.1103634  48.1934399   0.5284208
 103.4136910  41.6459738   1.3053086 102.5578506  41.2566589   1.1258724
 103.8263861  41.7251699   0.4452871 104.9436056  39.1806081   5.7044645
 104.4400852  39.1436217   4.8912451 105.2366663  40.0898824   5.7641302
 101.1878942  39.2644811   4.7110827 102.0531939  39.0687620   4.3516717
 101.2556451  39.0355163   5.6380184 104.0622534  50.8327353  -0.2779418
 103.5343895  50.0980112  -0.5906180 103.5610036  51.6102029  -0.5239449
 109.0415380  49.0276373   4.8387629 108.3839054  49.7175635   4.9267757
 109.8455779  49.4172805   5.1821615  98.7941261  41.4947019   2.0827194
  99.3685013  41.2722201   1.3500387  99.3812244  41.5635714   2.8355795
 107.8520838  47.3820746   2.8891570 108.3652720  48.0150738   3.3913280
 108.5022062  46.7821941   2.5234930  99.1210848  43.5251480  -3.8976921
  98.2848161  43.8626167  -3.5767646  98.9815618  43.3900460  -4.8349784
 101.0963929  38.3688268   0.8102263 100.4428341  38.0537285   0.1858878
 101.0544403  37.7464008   1.5362086 105.1143213  57.3605070  -4.3547758
 104.4404911  57.6636767  -3.7462801 105.5009035  58.1634151  -4.7042301
 104.3301669  44.8570202   5.1349911 103.4124231  45.0785149   4.9771599
 104.7461813  44.9316512   4.2761618 105.1136717  46.2561617   0.2652591
 105.8608536  46.7683014  -0.0440287 105.3828307  45.9345670   1.1256985
 103.3863367  48.7520158  -2.7520455 102.4774587  48.4679191  -2.6547985
 103.4158451  49.1719236  -3.6117148 108.6182635  52.3626747   1.0170713
 108.1644962  51.5217657   1.0735904 107.9876601  52.9988146   1.3545493
 107.0615574  54.2003244   1.9520531 107.3538548  54.7608301   1.2332897
 107.5714194  54.4931805   2.7073690  93.9551538  46.4725672   1.2294748
  93.7575937  45.8795033   0.5045814  93.3998202  46.1677882   1.9470686
 101.9348261  46.3648779   3.3489341 101.9896871  45.4122615   3.2731817
 101.1239463  46.5208218   3.8330639  99.8740621  44.9825838   1.1079720
  99.0608487  45.2820009   1.5144912 100.3699615  44.5881527   1.8254202
 102.0249199  54.9783595   3.0413984 101.9825378  55.2044442   2.1122516
 102.9411898  54.7446970   3.1899786 105.4714833  45.4467663   9.9394614
 105.8264221  45.6739136  10.7989079 106.1186964  45.7786040   9.3171869
  99.3654696  42.5544194   6.7240955 100.0054075  42.4132953   6.0263918
  98.5332227  42.2678707   6.3479557 111.2281949  50.6362626   5.6555214
 111.6618456  50.5437915   6.5038268 111.9413530  50.6120126   5.0175230
 100.1415000  51.8546624   2.8375947 100.9355598  51.3596944   2.6358522
  99.4306692  51.3264487   2.4743653 104.9609844  54.2364720   7.1888315
 105.0146867  54.8055656   7.9566031 104.0924626  54.4066605   6.8242352
  96.4497763  45.9989706  -1.0864300  95.5195351  45.9374161  -0.8694338
  96.5455235  45.4765659  -1.8827659  96.3683312  42.5244519   1.5013941
  96.6290130  43.4389852   1.3923102  97.1900485  42.0568961   1.6510554
  97.8408238  43.9382276   8.6712766  98.5131291  43.7299638   8.0225415
  97.0138024  43.7404362   8.2317998 112.0897499  50.6786326   8.1888100
 112.2833389  51.5832137   8.4347374 111.9898117  50.2193745   9.0226685
 103.7433810  40.5644217  10.6878427 103.0961725  41.2634167  10.5942903
 104.5134825  40.9980361  11.0554675 107.1512608  50.8293069  13.7628980
 106.9998114  50.6003621  12.8459064 107.1417287  51.7863670  13.7760325
 103.9197944  48.4024982   8.7475247 104.8490004  48.5536141   8.5744214
 103.4988974  48.4909003   7.8923893 102.7186276  52.4275646   6.5173784
 102.5797362  52.0594431   7.3899722 101.9300872  52.9423286   6.3457742
 103.3134428  57.5284743  -2.1400679 103.4886184  57.0572786  -1.3255057
 102.6267216  58.1550509  -1.9119419 104.2691491  51.8057249   3.9062622
 103.9341324  51.7658019   4.8020272 103.7695437  51.1401965   3.4333032
  98.2435735  47.2124879   9.4315203  98.1055533  46.4805118  10.0326742
  99.1540658  47.1233779   9.1499391 100.8718036  46.9244838   8.9198883
 101.5817654  46.2838030   8.8785501 100.8287344  47.1757733   9.8425064
 108.8604814  53.8612192  11.8405462 108.8017360  53.1771412  11.1736045
 109.2624333  54.6031182  11.3886088  99.5846970  43.9110056  10.7394522
  99.0484327  43.4600795  11.3916119  98.9963678  44.0455965   9.9964987
  97.8795513  60.6774105   4.6339181  98.1192111  61.3092630   5.3118199
  97.0364710  60.3262145   4.9204540 108.8622222  51.8251776  10.0719442
 107.9749000  51.4877697  10.1945841 109.4320773  51.0934807  10.3088207
  90.5151369  48.1575867   3.3962493  91.2022409  47.8437597   2.8083508
  90.3599497  49.0617232   3.1229744  95.3186091  43.0466064   7.8247517
  95.2344280  42.4391733   7.0897927  94.4968797  43.5375082   7.8257013
 102.3923375  56.4853228   7.0380685 102.3193546  57.2908199   7.5499989
 101.9500768  56.6845194   6.2128706 102.1813155  55.7224998   0.5483506
 101.3980677  56.2646678   0.6421731 102.8805900  56.2398978   0.9477748
 105.4909805  41.5319627   3.1917712 105.9878504  40.7789590   2.8718782
 104.7196786  41.5683944   2.6260921 113.3439562  47.2359993   4.8336003
 113.3329438  48.1184708   4.4629936 112.4756942  46.8831544   4.6390540
 104.8522059  56.3840062   9.1938844 105.5650031  57.0187527   9.1214745
 104.3612087  56.4803928   8.3778845 106.5739585  50.2891315   0.7656135
 105.6395864  50.4092777   0.5960840 106.7516254  49.3863781   0.5016145
 102.0744773  43.6737010   2.9189396 101.7042561  43.1208051   3.6070302
 102.5703866  43.0695144   2.3664396  99.9033972  54.1334505  10.0144414
 100.6043432  54.7670988  10.1673809  99.4329087  54.4749237   9.2540054
 108.0288368  52.4752455  -1.7007679 108.3048212  52.3609050  -0.7913805
 107.1592867  52.0769940  -1.7395506 107.9328800  38.4989221   5.3397071
 107.0191879  38.7293448   5.5079278 108.3621901  38.5827665   6.1911103
 107.7035258  46.6879113   7.8396965 107.0506708  46.9355020   7.1849417
 108.0815638  45.8743251   7.5059442 104.6642432  56.7238806   1.9425135
 104.8464826  55.9060462   2.4052887 105.4875418  56.9406498   1.5050025
 104.9984597  55.6506991  -0.7959817 105.5272364  55.1399446  -1.4089654
 105.2612817  55.3349521   0.0685717 103.7522831  47.4298924  14.3263002
 103.0763468  47.3293053  14.9965377 104.5750465  47.2738138  14.7898999
  95.5001690  53.6670860   6.9475517  96.0855127  52.9214548   7.0803421
  95.3026529  53.9774817   7.8312181  98.3540345  56.7022108   1.9637959
  97.6850721  57.1868235   1.4801999  98.2153215  56.9491328   2.8781338
  90.0919345  46.2376461   5.6679960  90.1303444  45.7040051   6.4617078
  89.5859638  45.7111666   5.0490937 102.4945614  58.7365851   8.5620618
 103.0463922  58.8997473   9.3269703 102.8351807  59.3270289   7.8900643
  97.4710107  41.0841001   9.1642502  97.5351434  41.9455832   8.7519900
  97.4077227  40.4715003   8.4314861  96.9462380  43.1564134  12.8115537
  97.5734418  42.7741211  13.4253061  96.0890299  42.9378336  13.1771229
 107.3456488  53.5627109  14.4169272 107.8896392  54.1757067  13.9224227
 106.7643333  54.1206687  14.9336285  93.7227922  44.9640563  -1.2566108
  94.0181364  44.0551241  -1.3099055  92.8215958  44.9428302  -1.5785106
 105.6314001  56.6847827   5.5484300 105.5065141  55.8837567   5.0395245
 106.2893092  57.1794020   5.0598270  97.2522169  43.0396559   4.7261440
  96.5308755  43.6532527   4.5868913  98.0415425  43.5754324   4.6478086
 107.6948910  54.4856847   7.1763850 106.7479245  54.3662198   7.1042177
 108.0431683  53.5979345   7.2590111 100.0548483  40.3750986  11.0002092
 100.5782885  40.6213282  11.7628401  99.8360816  41.2071021  10.5805229
  95.4515764  42.6454660  -1.1326783  95.1228470  41.7652039  -1.3151677
  95.8055135  42.5902329  -0.2450394 104.6995343  54.2809563   3.3768202
 104.5520305  53.3526271   3.5575772 105.5248836  54.3029654   2.8925278
  98.5657587  42.9327630  -0.7651306  98.9053660  43.4613551  -1.4872697
  99.0129708  43.2708036   0.0107261 108.3029465  55.1038122   4.4633075
 109.2276012  54.8980983   4.3257526 108.1344768  54.8554523   5.3722417
 101.2601028  41.3164681   8.6851762 100.9197848  40.5172494   9.0872442
 100.5540034  41.6166392   8.1128596 101.9117500  38.4013993   7.1379085
 102.7343569  37.9274472   7.0157976 102.1555563  39.1804477   7.6377772
  99.4356079  45.0933114   4.9471064  99.2900659  45.4073417   5.8395346
  98.9581282  45.7118014   4.3941963 101.2952461  42.0835662   4.9951954
 101.2814030  41.1876755   4.6584252 102.0124890  42.0906326   5.6290240
 103.1478592  42.5173002   7.0405081 102.8896370  43.4390073   7.0389412
 102.6163633  42.1203437   7.7305545 108.0924781  55.6223789  -0.1804834
 108.2661658  55.0570212  -0.9330981 108.5853672  56.4224684  -0.3625344
  93.9101741  47.6338458   7.8858725  93.3655209  48.4098266   8.0179000
  94.7881091  47.9809263   7.7277847 100.6989357  40.9650042   0.2639524
 100.8205269  40.0366688   0.4630411 100.4091400  40.9788728  -0.6482161
 103.5680548  38.6504953   3.4006244 103.5902245  38.7144286   2.4458223
 103.9848607  37.8109461   3.5946750 109.0799953  54.9390554  -3.0807935
 109.7750858  55.5597246  -2.8620621 109.4223104  54.0885905  -2.8055557
  94.6967763  46.7608355  10.7788882  93.9549499  46.9090990  11.3653513
  94.3760507  47.0216620   9.9155632 102.6411425  56.3024333  10.5769272
 102.9498552  56.0573480  11.4491972 103.4386907  56.5070971  10.0888142
 102.6632037  58.4562243   2.8074649 102.2237028  57.9638621   3.5007505
 103.4140154  57.9135210   2.5666724  95.1424376  54.6473783   2.8099277
  95.9682396  54.3477555   2.4297920  94.7918428  53.8781406   3.2589065
 100.1105909  54.0000252   4.8796950  99.4885919  53.3370957   4.5799178
 100.7810776  54.0261384   4.1970598  93.3432981  52.5660110   3.7688210
  92.5064890  52.1382284   3.5872212  93.3156627  52.7592553   4.7059002
 100.1830437  42.4782040  14.4729456 100.2318592  43.3544162  14.0907226
 100.7252951  41.9359433  13.9001100 110.6685283  53.0223163  13.7530593
 109.8780826  53.0047302  13.2135093 110.4318637  53.5611457  14.5079630
 110.7883158  49.8715629  11.0663322 110.8381163  49.7065637  12.0078845
 110.6797081  49.0042888  10.6761203  99.6719416  52.5504175  -1.6444589
  99.8207537  53.2339639  -2.2977916 100.4785860  52.5309265  -1.1295133
 108.0786920  45.8546557  12.3822629 108.9796783  45.7153022  12.0906627
 108.1534895  46.0201012  13.3220806 102.4129725  43.2313412  11.2275815
 101.5433035  43.5246978  10.9558404 102.6489206  43.8153857  11.9483079
 112.2901354  52.2912571  11.3105344 111.9986163  52.6542551  12.1468805
 111.6773486  51.5779579  11.1318676 110.5388543  47.4145185   9.7785402
 111.0142664  47.6072832   8.9704253 109.6154108  47.4704371   9.5328785
  97.4272049  48.5769353  -0.6383520  97.1818091  47.6731683  -0.4403310
  97.5967964  48.5786503  -1.5804042 105.1168759  39.4493029   8.7441235
 105.6350703  40.1854056   8.4187724 104.7623892  39.7557022   9.5787995
  96.6967697  44.3097710  -3.1397359  96.0036942  44.3842065  -3.7957323
  96.4519449  43.5458054  -2.6175842 103.1714822  55.0452305  -4.1732842
 102.5988789  55.6642493  -4.6262370 103.7447616  55.5951667  -3.6392920
 109.2390212  44.2910946   8.0113707 110.1907635  44.3909043   8.0325931
 109.0693662  43.4989214   8.5211792 107.2604591  41.3766529   8.1973108
 106.6654523  41.6571541   7.5019597 106.9754288  41.8660430   8.9689849
 106.3912082  55.3289456  -3.0424259 107.3242755  55.2635017  -2.8391384
 106.3035294  56.1645722  -3.5009727 111.7178290  47.5117065   7.1256007
 111.6854610  46.5733066   7.3115691 112.3278913  47.5901102   6.3921832
 111.8672778  44.3028109   7.1714290 111.3511827  43.5186565   6.9844219
 112.7512727  43.9746825   7.3360809 115.6170136  46.7140935   6.8636495
 114.8903300  46.5796900   6.2552986 115.2017423  47.0217763   7.6693213
 103.4400313  50.4330864  14.6283868 104.3603322  50.6109463  14.8223914
 103.4049896  49.4886910  14.4763567  92.6582478  45.6269458   3.5537142
  92.3385262  44.7734766   3.2611516  92.1115906  45.8418036   4.3095110
  96.4362385  48.3431899   7.2706649  96.6548395  49.2749007   7.2894683
  96.8488159  47.9839873   8.0561453 101.3090251  43.9165105  16.6609398
 101.2086978  44.8659462  16.5921489 101.0911793  43.5883344  15.7885468
  92.5270738  49.2472369   5.5230264  91.8334209  48.8326322   5.0100218
  93.2743729  49.2892906   4.9263683 101.1721521  47.3462244  15.4774460
 100.6888603  48.1462604  15.6838349 101.2582460  47.3570188  14.5241904
  94.4407480  49.1790623   3.3996279  94.4178169  49.2778311   2.4478162
  94.7508117  50.0255774   3.7213445  97.0994858  51.2366778   7.5142893
  98.0538112  51.2050721   7.4472825  96.9007382  50.7757402   8.3293119
  97.6894240  49.8067894  10.0813691  98.5087129  50.3011973  10.1048528
  97.9631048  48.8899862  10.0531259  95.4545087  56.7786398   4.5313091
  95.3199555  56.0186799   3.9651089  95.0377149  57.5027298   4.0641880
  98.6114213  57.6755715   4.7431534  98.4946597  58.6201147   4.6410224
  97.7906659  57.3729276   5.1317333  92.9429155  44.1406028  10.7805888
  93.5888018  43.6304982  11.2693113  92.7346306  44.8774710  11.3549313
 105.4682547  51.2086876  16.2798029 106.3373706  51.3827528  15.9184664
 104.9889298  52.0281293  16.1573758  99.6368727  58.3283977   7.9587462
 100.5395974  58.3607587   8.2753957  99.4106097  57.3984428   7.9733798
 101.3922329  57.0814963   4.6197541 100.4417960  57.0816825   4.5061913
 101.6954815  56.3347698   4.1033576  97.2826646  41.2873645  14.8780902
  98.1458107  40.9310450  15.0884227  96.7092056  40.9487540  15.5656307
 117.1275023  62.9175502   5.6843303 117.7653433  62.7982249   4.9806643
 117.0095865  63.8656346   5.7431255 113.9364729  62.8702930   5.6204828
 113.5983240  62.7543994   4.7325363 114.8054497  62.4694095   5.6005834
 109.7951545  64.7238406   1.6101719 109.2316410  64.6328343   0.8418007
 109.6803940  63.9038311   2.0904211 114.4184512  64.0237781  11.5791034
 114.4073153  63.6290580  10.7071537 114.5805151  63.2903854  12.1724805
 107.3415977  66.2189598   4.4485939 108.1337268  65.8780422   4.0332239
 107.5812627  66.3284573   5.3688093 111.1391773  66.8074893  10.5270218
 110.8481639  67.7120524  10.4116884 111.7748757  66.8491421  11.2414287
 112.0647980  64.1851742   7.1171577 112.6611552  63.9607764   6.4028540
 112.1222951  63.4436487   7.7197025 116.6816291  60.6426955   2.7596511
 117.4679380  60.2246379   2.4086928 116.9454995  61.5473048   2.9278160
 113.7000838  63.0029430   0.8592832 113.3359045  62.4760051   1.5705754
 114.5567954  62.6127899   0.6859318 119.6050139  54.2923763   8.1224098
 119.2733463  55.1619174   7.8985313 119.0095752  53.9760047   8.8018129
 116.0981658  66.4936309   7.5220011 115.7982381  67.3961348   7.4135818
 115.7532718  66.2268492   8.3741164 109.5494140  62.9450106   3.5556716
 108.6244636  62.8126320   3.7634407 109.7978553  63.7244325   4.0526658
 119.4978802  59.0118849   5.2017449 118.5895679  58.9434257   4.9076209
 119.4466398  59.4890794   6.0299274 113.3195546  60.4876987  -3.1599152
 113.1995171  60.9334038  -2.3213672 112.6248134  60.8362305  -3.7185614
 106.9102951  62.5883379   4.3900505 107.0395332  62.8417858   5.3039916
 106.2300402  63.1811087   4.0705160 113.5719668  60.4308495  13.1452346
 112.7953002  60.9902415  13.1355210 114.2110231  60.9165278  13.6667216
 121.3640448  57.2135287   6.9795322 120.7214829  57.5067821   6.3335117
 120.8595377  57.0988208   7.7848519 111.8266040  63.2393948  12.7070313
 112.5680724  63.7778992  12.4305136 111.1203025  63.8660237  12.8641865
 117.3021380  65.3823088  11.3042474 117.7104736  64.9405499  10.5597107
 116.5798641  64.8075716  11.5576667 113.6552450  60.3195695   8.6776031
 114.5013645  60.7435109   8.8210680 113.5951087  59.6629319   9.3714594
 117.6250194  65.9424279   5.0594763 116.9959057  66.1069993   4.3570831
 117.2375856  66.3565889   5.8305727 116.8051895  57.9800063  10.3357205
 116.5612827  58.7342124   9.7991481 117.0811825  58.3585411  11.1704452
 118.7590358  64.5238676   9.0134470 118.9707253  65.1670436   8.3368852
 118.7120106  63.6900992   8.5456401 116.3616587  57.1356497   5.9171043
 115.5001066  57.4337750   6.2087780 116.3879021  57.3526895   4.9852075
 113.1778156  65.6798687   2.3244848 113.6416502  65.9586390   1.5349471
 112.9134954  64.7782132   2.1417939 110.0702237  65.2270169   5.2624612
 110.6403594  65.6557437   4.6242096 110.6610349  64.9452753   5.9608797
 112.1147042  61.8021839  -0.8665587 112.8171086  62.2542883  -0.3991660
 111.7827671  61.1605658  -0.2385693 110.5627404  60.3933596  13.5085623
 109.9326064  61.0749877  13.7421020 110.4563492  60.2816678  12.5638761
 105.8572376  60.0605392   4.4351547 105.0671430  60.3162921   3.9591658
 106.3483624  60.8753730   4.5403588 119.8736186  67.4010631   7.1856828
 120.6953629  66.9990819   6.9039509 119.8698589  67.2978865   8.1372944
 107.8087122  60.4249971   1.3935024 107.0118285  60.5368666   1.9118519
 107.5812714  60.7636624   0.5275914 113.6392789  66.9494675   9.3417538
 113.7037222  67.4115082  10.1775710 112.9303713  66.3192040   9.4699848
 104.1410079  60.3135883   6.8666538 104.3918118  61.1982892   7.1324114
 104.6769628  60.1340484   6.0941630 109.8408146  54.6954362  15.8710874
 109.4475092  54.1420560  16.5458518 110.6574287  55.0064940  16.2617391
 106.8070204  66.1338220  -0.2175556 107.3194725  66.9281470  -0.0669992
 107.4592917  65.4364511  -0.2841955 108.6165089  69.2503976   1.8647197
 108.7931717  70.1721941   1.6768181 109.4121922  68.9362396   2.2941577
 112.7576107  56.1112241  13.4631130 113.4985821  56.7119394  13.3835593
 112.9894030  55.3689879  12.9049173 107.9017445  61.2968608  11.7409360
 107.7870961  60.3953866  12.0416459 107.0461963  61.5432305  11.3894177
 114.9809283  69.2386349  13.3396861 114.5373137  68.4522727  13.0217765
 115.6426497  69.4265499  12.6740751 109.7396404  70.7682150   7.8657539
 110.2903829  70.6399214   7.0934533 108.9007880  71.0677039   7.5152432
 117.0790521  69.5189149  11.3678262 117.0608997  70.3398030  10.8758531
 118.0010441  69.3943224  11.5928403 113.5363575  67.0333278  12.2101770
 114.0691912  66.2721566  11.9801078 113.0077657  66.7406930  12.9525925
 116.7033270  52.1393344   7.7395412 116.3597540  53.0294986   7.6634523
 117.0712233  51.9495002   6.8764997 104.7719121  64.4626874   0.5584014
 105.6094343  64.8723883   0.3417722 104.9497389  63.5226317   0.5284208
 114.2530664  56.9751656   1.3053086 113.3972260  56.5858506   1.1258724
 114.6657616  57.0543617   0.4452871 115.7829811  54.5097999   5.7044645
 115.2794606  54.4728134   4.8912451 116.0760418  55.4190742   5.7641302
 112.0272697  54.5936729   4.7110827 112.8925693  54.3979538   4.3516717
 112.0950206  54.3647081   5.6380184 119.8809134  64.3568291   4.8387629
 119.2232809  65.0467552   4.9267757 120.6849533  64.7464723   5.1821615
 109.6335016  56.8238937   2.0827194 110.2078768  56.6014118   1.3500387
 110.2205998  56.8927631   2.8355795 118.6914593  62.7112664   2.8891570
 119.2046475  63.3442655   3.3913280 119.3415817  62.1113859   2.5234930
 109.9604603  58.8543398  -3.8976921 109.1241915  59.1918084  -3.5767646
 109.8209372  58.7192378  -4.8349784 111.9357683  53.6980186   0.8102263
 111.2822096  53.3829203   0.1858878 111.8938158  53.0755926   1.5362086
 115.1695424  60.1862119   5.1349911 114.2517985  60.4077066   4.9771599
 115.5855567  60.2608430   4.2761618 115.9530472  61.5853535   0.2652591
 116.7002291  62.0974932  -0.0440287 116.2222061  61.2637588   1.1256985
 104.7945292  61.8017590   1.2294748 104.5969692  61.2086950   0.5045814
 104.2391956  61.4969800   1.9470686 112.7742016  61.6940696   3.3489341
 112.8290626  60.7414533   3.2731817 111.9633218  61.8500135   3.8330639
 110.7134376  60.3117756   1.1079720 109.9002241  60.6111927   1.5144912
 111.2093370  59.9173445   1.8254202 112.8642954  70.3075513   3.0413984
 112.8219132  70.5336359   2.1122516 113.7805652  70.0738887   3.1899786
 116.3108587  60.7759580   9.9394614 116.6657975  61.0031054  10.7989079
 116.9580719  61.1077957   9.3171869 110.2048450  57.8836111   6.7240955
 110.8447830  57.7424871   6.0263918 109.3725981  57.5970625   6.3479557
 122.0675704  65.9654543   5.6555214 122.5012211  65.8729832   6.5038268
 122.7807285  65.9412044   5.0175230 110.9808754  67.1838542   2.8375947
 111.7749353  66.6888862   2.6358522 110.2700447  66.6556405   2.4743653
 115.8003599  69.5656637   7.1888315 115.8540621  70.1347574   7.9566031
 114.9318380  69.7358522   6.8242352 107.2891518  61.3281624  -1.0864300
 106.3589106  61.2666079  -0.8694338 107.3848990  60.8057576  -1.8827659
 107.2077067  57.8536436   1.5013941 107.4683884  58.7681770   1.3923102
 108.0294239  57.3860879   1.6510554 108.6801992  59.2674194   8.6712766
 109.3525046  59.0591556   8.0225415 107.8531779  59.0696280   8.2317998
 122.9291253  66.0078244   8.1888100 123.1227144  66.9124054   8.4347374
 122.8291872  65.5485663   9.0226685 114.5827564  55.8936135  10.6878427
 113.9355479  56.5926084  10.5942903 115.3528580  56.3272278  11.0554675
 117.9906362  66.1584987  13.7628980 117.8391869  65.9295538  12.8459064
 117.9811042  67.1155588  13.7760325 114.7591699  63.7316899   8.7475247
 115.6883759  63.8828059   8.5744214 114.3382729  63.8200920   7.8923893
 113.5580030  67.7567564   6.5173784 113.4191116  67.3886348   7.3899722
 112.7694627  68.2715203   6.3457742 115.1085246  67.1349167   3.9062622
 114.7735078  67.0949937   4.8020272 114.6089191  66.4693882   3.4333032
 109.0829489  62.5416797   9.4315203 108.9449287  61.8097035  10.0326742
 109.9934413  62.4525697   9.1499391 111.7111790  62.2536756   8.9198883
 112.4211409  61.6129948   8.8785501 111.6681098  62.5049651   9.8425064
 119.6998569  69.1904109  11.8405462 119.6411115  68.5063329  11.1736045
 120.1018087  69.9323099  11.3886088 110.4240724  59.2401974  10.7394522
 109.8878081  58.7892712  11.3916119 109.8357433  59.3747883   9.9964987
 108.7189268  76.0066023   4.6339181 108.9585866  76.6384547   5.3118199
 107.8758464  75.6554063   4.9204540 119.7015976  67.1543693  10.0719442
 118.8142755  66.8169615  10.1945841 120.2714527  66.4226724  10.3088207
 101.3545123  63.4867785   3.3962493 102.0416163  63.1729515   2.8083508
 101.1993252  64.3909150   3.1229744 106.1579845  58.3757982   7.8247517
 106.0738034  57.7683651   7.0897927 105.3362552  58.8667000   7.8257013
 113.2317129  71.8145146   7.0380685 113.1587301  72.6200117   7.5499989
 112.7894523  72.0137111   6.2128706 116.3303559  56.8611545   3.1917712
 116.8272259  56.1081507   2.8718782 115.5590541  56.8975862   2.6260921
 124.1833317  62.5651911   4.8336003 124.1723193  63.4476626   4.4629936
 123.3150696  62.2123461   4.6390540 115.6915813  71.7131980   9.1938844
 116.4043785  72.3479444   9.1214745 115.2005842  71.8095846   8.3778845
 117.4133340  65.6183232   0.7656135 116.4789619  65.7384695   0.5960840
 117.5910008  64.7155699   0.5016145 112.9138528  59.0028928   2.9189396
 112.5436315  58.4499968   3.6070302 113.4097620  58.3987062   2.3664396
 110.7427727  69.4626423  10.0144414 111.4437186  70.0962906  10.1673809
 110.2722842  69.8041155   9.2540054 118.7722554  53.8281139   5.3397071
 117.8585634  54.0585365   5.5079278 119.2015655  53.9119583   6.1911103
 118.5429012  62.0171031   7.8396965 117.8900463  62.2646938   7.1849417
 118.9209392  61.2035169   7.5059442 114.5916586  62.7590842  14.3263002
 113.9157223  62.6584971  14.9965377 115.4144219  62.6030055  14.7898999
 106.3395445  68.9962778   6.9475517 106.9248881  68.2506466   7.0803421
 106.1420283  69.3066735   7.8312181 109.1934100  72.0314025   1.9637959
 108.5244475  72.5160153   1.4801999 109.0546970  72.2783246   2.8781338
 100.9313099  61.5668378   5.6679960 100.9697199  61.0331969   6.4617078
 100.4253392  61.0403584   5.0490937 113.3339368  74.0657769   8.5620618
 113.8857676  74.2289391   9.3269703 113.6745562  74.6562207   7.8900643
 108.3103862  56.4132919   9.1642502 108.3745188  57.2747750   8.7519900
 108.2470982  55.8006920   8.4314861 107.7856134  58.4856051  12.8115537
 108.4128173  58.1033129  13.4253061 106.9284053  58.2670253  13.1771229
 118.1850243  68.8919027  14.4169272 118.7290147  69.5048985  13.9224227
 117.6037088  69.4498605  14.9336285 104.5621677  60.2932480  -1.2566108
 104.8575118  59.3843159  -1.3099055 103.6609713  60.2720220  -1.5785106
 116.4707756  72.0139745   5.5484300 116.3458895  71.2129484   5.0395245
 117.1286847  72.5085938   5.0598270 108.0915924  58.3688477   4.7261440
 107.3702510  58.9824445   4.5868913 108.8809180  58.9046242   4.6478086
 118.5342664  69.8148765   7.1763850 117.5873000  69.6954116   7.1042177
 118.8825437  68.9271263   7.2590111 110.8942237  55.7042904  11.0002092
 111.4176639  55.9505200  11.7628401 110.6754571  56.5362938  10.5805229
 106.2909518  57.9746578  -1.1326783 105.9622225  57.0943957  -1.3151677
 106.6448889  57.9194247  -0.2450394 115.5389097  69.6101481   3.3768202
 115.3914060  68.6818188   3.5575772 116.3642591  69.6321572   2.8925278
 109.4051342  58.2619548  -0.7651306 109.7447414  58.7905469  -1.4872697
 109.8523462  58.5999954   0.0107261 119.1423219  70.4330040   4.4633075
 120.0669767  70.2272901   4.3257526 118.9738523  70.1846441   5.3722417
 112.0994782  56.6456599   8.6851762 111.7591603  55.8464412   9.0872442
 111.3933789  56.9458309   8.1128596 112.7511254  53.7305911   7.1379085
 113.5737324  53.2566389   7.0157976 112.9949318  54.5096395   7.6377772
 110.2749833  60.4225032   4.9471064 110.1294414  60.7365335   5.8395346
 109.7975037  61.0409932   4.3941963 112.1346216  57.4127580   4.9951954
 112.1207785  56.5168673   4.6584252 112.8518644  57.4198243   5.6290240
 113.9872347  57.8464920   7.0405081 113.7290124  58.7681991   7.0389412
 113.4557387  57.4495354   7.7305545 104.7495495  62.9630376   7.8858725
 104.2048963  63.7390184   8.0179000 105.6274845  63.3101181   7.7277847
 111.5383112  56.2941960   0.2639524 111.6599023  55.3658606   0.4630411
 111.2485154  56.3080646  -0.6482161 114.4074302  53.9796870   3.4006244
 114.4295999  54.0436203   2.4458223 114.8242361  53.1401379   3.5946750
 105.5361517  62.0900272  10.7788882 104.7943253  62.2382908  11.3653513
 105.2154261  62.3508538   9.9155632 113.4805180  71.6316251  10.5769272
 113.7892306  71.3865397  11.4491972 114.2780662  71.8362889  10.0888142
 105.9818131  69.9765701   2.8099277 106.8076151  69.6769473   2.4297920
 105.6312183  69.2073324   3.2589065 110.9499664  69.3292169   4.8796950
 110.3279673  68.6662874   4.5799178 111.6204531  69.3553301   4.1970598
 104.1826736  67.8952028   3.7688210 103.3458644  67.4674202   3.5872212
 104.1550381  68.0884471   4.7059002 111.0224191  57.8073957  14.4729456
 111.0712347  58.6836080  14.0907226 111.5646706  57.2651350  13.9001100
 121.5079037  68.3515081  13.7530593 120.7174581  68.3339219  13.2135093
 121.2712392  68.8903374  14.5079630 121.6276912  65.2007547  11.0663322
 121.6774917  65.0357554  12.0078845 121.5190835  64.3334806  10.6761203
 118.9180675  61.1838475  12.3822629 119.8190537  61.0444940  12.0906627
 118.9928649  61.3492930  13.3220806 113.2523480  58.5605330  11.2275815
 112.3826789  58.8538896  10.9558404 113.4882960  59.1445775  11.9483079
 123.1295109  67.6204488  11.3105344 122.8379917  67.9834469  12.1468805
 122.5167240  66.9071497  11.1318676 121.3782297  62.7437103   9.7785402
 121.8536419  62.9364749   8.9704253 120.4547863  62.7996289   9.5328785
 108.2665804  63.9061270  -0.6383520 108.0211846  63.0023600  -0.4403310
 108.4361718  63.9078421  -1.5804042 115.9562514  54.7784947   8.7441235
 116.4744458  55.5145974   8.4187724 115.6017646  55.0848940   9.5787995
 107.5361451  59.6389628  -3.1397359 106.8430696  59.7133983  -3.7957323
 107.2913203  58.8749972  -2.6175842 120.0783966  59.6202863   8.0113707
 121.0301389  59.7200961   8.0325931 119.9087417  58.8281132   8.5211792
 118.0998346  56.7058446   8.1973108 117.5048278  56.9863459   7.5019597
 117.8148042  57.1952347   8.9689849 122.5572044  62.8408983   7.1256007
 122.5248364  61.9024984   7.3115691 123.1672668  62.9193020   6.3921832
 122.7066532  59.6320026   7.1714290 122.1905581  58.8478483   6.9844219
 123.5906481  59.3038743   7.3360809 126.4563891  62.0432852   6.8636495
 125.7297055  61.9088817   6.2552986 126.0411178  62.3509681   7.6693213
 114.2794067  65.7622782  14.6283868 115.1997077  65.9401381  14.8223914
 114.2443650  64.8178827  14.4763567 103.4976232  60.9561376   3.5537142
 103.1779017  60.1026684   3.2611516 102.9509661  61.1709954   4.3095110
 107.2756140  63.6723817   7.2706649 107.4942150  64.6040924   7.2894683
 107.6881914  63.3131791   8.0561453 112.1484005  59.2457022  16.6609398
 112.0480732  60.1951379  16.5921489 111.9305547  58.9175261  15.7885468
 103.3664492  64.5764287   5.5230264 102.6727964  64.1618240   5.0100218
 104.1137483  64.6184824   4.9263683 112.0115275  62.6754161  15.4774460
 111.5282357  63.4754521  15.6838349 112.0976214  62.6862106  14.5241904
 105.2801235  64.5082541   3.3996279 105.2571923  64.6070228   2.4478162
 105.5901871  65.3547692   3.7213445 107.9388613  66.5658696   7.5142893
 108.8931866  66.5342638   7.4472825 107.7401136  66.1049320   8.3293119
 108.5287995  65.1359812  10.0813691 109.3480884  65.6303891  10.1048528
 108.8024803  64.2191780  10.0531259 106.2938842  72.1078315   4.5313091
 106.1593310  71.3478716   3.9651089 105.8770904  72.8319215   4.0641880
 109.4507967  73.0047632   4.7431534 109.3340352  73.9493065   4.6410224
 108.6300414  72.7021194   5.1317333 103.7822909  59.4697946  10.7805888
 104.4281773  58.9596900  11.2693113 103.5740060  60.2066628  11.3549313
 116.3076301  66.5378793  16.2798029 117.1767461  66.7119446  15.9184664
 115.8283053  67.3573210  16.1573758 110.4762482  73.6575894   7.9587462
 111.3789728  73.6899505   8.2753957 110.2499852  72.7276345   7.9733798
 112.2316084  72.4106881   4.6197541 111.2811715  72.4108743   4.5061913
 112.5348570  71.6639615   4.1033576 108.1220400  56.6165563  14.8780902
 108.9851862  56.2602368  15.0884227 107.5485811  56.2779458  15.5656307
 124.4113422  75.7600412  13.1452346 123.6346756  76.3194332  13.1355210
 125.0503985  76.2457195  13.6667216 122.6659794  78.5685866  12.7070313
 123.4074479  79.1070910  12.4305136 121.9596780  79.1952154  12.8641865
 127.6445649  73.3091981  10.3357205 127.4006581  74.0634042   9.7991481
 127.9205580  73.6877329  11.1704452 121.4021158  75.7225514  13.5085623
 120.7719819  76.4041795  13.7421020 121.2957246  75.6108595  12.5638761
 114.9803834  75.6427800   6.8666538 115.2311872  76.5274810   7.1324114
 115.5163382  75.4632402   6.0941630 120.6801901  70.0246280  15.8710874
 120.2868847  69.4712478  16.5458518 121.4968041  70.3356858  16.2617391
 123.5969862  71.4404159  13.4631130 124.3379575  72.0411312  13.3835593
 123.8287785  70.6981796  12.9049173 118.7411200  76.6260526  11.7409360
 118.6264715  75.7245783  12.0416459 117.8855718  76.8724223  11.3894177
 127.5427025  67.4685262   7.7395412 127.1991294  68.3586903   7.6634523
 127.9105987  67.2786919   6.8764997 119.5195747  74.5966111   8.6712766
 120.1918800  74.3883473   8.0225415 118.6925533  74.3988197   8.2317998
 125.4221319  71.2228052  10.6878427 124.7749234  71.9218002  10.5942903
 126.1922334  71.6564196  11.0554675 119.9223244  77.8708714   9.4315203
 119.7843042  77.1388953  10.0326742 120.8328167  77.7817614   9.1499391
 121.2634479  74.5693891  10.7394522 120.7271836  74.1184630  11.3916119
 120.6751187  74.7039800   9.9964987 116.9973600  73.7049899   7.8247517
 116.9131789  73.0975569   7.0897927 116.1756306  74.1958917   7.8257013
 125.4310340  78.0882759  14.3263002 124.7550977  77.9876889  14.9965377
 126.2537974  77.9321973  14.7898999 111.7706854  76.8960296   5.6679960
 111.8090953  76.3623887   6.4617078 111.2647147  76.3695501   5.0490937
 119.1497616  71.7424836   9.1642502 119.2138943  72.6039667   8.7519900
 119.0864736  71.1298838   8.4314861 118.6249889  73.8147969  12.8115537
 119.2521927  73.4325046  13.4253061 117.7677807  73.5962171  13.1771229
 121.7335992  71.0334821  11.0002092 122.2570394  71.2797118  11.7628401
 121.5148325  71.8654856  10.5805229 122.9388537  71.9748516   8.6851762
 122.5985357  71.1756329   9.0872442 122.2327543  72.2750227   8.1128596
 123.5905009  69.0597829   7.1379085 124.4131078  68.5858307   7.0157976
 123.8343072  69.8388313   7.6377772 115.5889250  78.2922294   7.8858725
 115.0442718  79.0682102   8.0179000 116.4668600  78.6393098   7.7277847
 116.3755272  77.4192190  10.7788882 115.6337008  77.5674825  11.3653513
 116.0548016  77.6800456   9.9155632 121.8617946  73.1365875  14.4729456
 121.9106101  74.0127998  14.0907226 122.4040460  72.5943268  13.9001100
 124.0917234  73.8897247  11.2275815 123.2220544  74.1830813  10.9558404
 124.3276715  74.4737692  11.9483079 126.7956268  70.1076864   8.7441235
 127.3138212  70.8437891   8.4187724 126.4411401  70.4140858   9.5787995
 125.1187822  81.0914700  14.6283868 126.0390831  81.2693299  14.8223914
 125.0837405  80.1470745  14.4763567 122.9877760  74.5748940  16.6609398
 122.8874487  75.5243297  16.5921489 122.7699302  74.2467179  15.7885468
 122.8509030  78.0046079  15.4774460 122.3676111  78.8046439  15.6838349
 122.9369969  78.0154024  14.5241904 114.6216664  74.7989864  10.7805888
 115.2675527  74.2888818  11.2693113 114.4133815  75.5358545  11.3549313
 127.1470056  81.8670711  16.2798029 128.0161215  82.0411363  15.9184664
 126.6676807  82.6865128  16.1573758 118.9614155  71.9457481  14.8780902
 119.8245616  71.5894285  15.0884227 118.3879565  71.6071375  15.5656307
   2.8493410  98.9031989  96.5912340   3.5818582  98.3331206  96.8250170
   2.0932766  98.5153590  97.0318846   2.1309140  95.5365088  99.9078173
   1.4883520  95.8297621  99.2617967   1.6264069  95.4218008 100.7131370
   2.2708118 105.2008517  95.3421977   1.5859156 105.5807419  94.7919011
   2.3551967 105.8103844  96.0753925   0.6404878 105.7240432 100.1139678
   1.4622321 105.3220619  99.8322360   0.6367280 105.6208666 101.0655794
   8.7310871 102.0679180  96.4624650   7.9774579 101.4986578  96.3068654
   8.8658412 102.0341845  97.4095284   2.4086519 103.2064110  91.1103871
   1.6315962 102.8675270  90.6659033   3.0878000 103.2116733  90.4358836
   2.8075016 102.2207817  93.5726793   2.6692915 102.4109413  92.6447982
   2.4511235 102.9827200  94.0294844   2.8344396 104.2884344  98.5838065
   3.2680902 104.1959633  99.4321119   3.5475976 104.2641844  97.9458081
   3.6959945 104.3308044 101.1170950   3.8895835 105.2353855 101.3630225
   3.5960563 103.8715463 101.9509535   4.9502008 100.8881711  97.7618854
   4.9391885 101.7706426  97.3912787   4.0819388 100.5353262  97.5673391
   1.5674583  99.7830352  94.2289020   2.0335035 100.6158344  94.1549322
   2.0182084  99.3175334  94.9334278   5.5526618 102.0381930  94.3668317
   5.9957764 101.2889256  93.9687440   4.6753129 102.0292067  93.9842049
   0.6862400 108.5912272  89.8474915   1.3813304 109.2118965  90.0662230
   1.0285550 107.7407623  90.1227293   2.5853823 106.0411977  91.3762246
   3.1105147 106.3799250  90.6511566   2.4976175 105.1058993  91.1925381
   2.2747729 106.6744881 106.6813444   1.4843273 106.6569020 106.1417943
   2.0381083 107.2133175 107.4362481   2.3945604 103.5237347 103.9946172
   2.4443609 103.3587355 104.9361695   2.2859527 102.6564606 103.6044053
   3.8963801 105.9434289 104.2388194   3.6048609 106.3064269 105.0751655
   3.2835932 105.2301297 104.0601526   5.0959483 103.5087169  96.7590764
   5.9306374 103.9476973  96.9228325   5.2318612 103.0325822  95.9399010
   2.1450989 101.0666904 102.7068252   2.6205111 101.2594550 101.8987103
   1.2216554 101.1226089 102.4611636   0.8452658  97.9432664 100.9396558
   1.7970081  98.0430761 100.9608782   0.6756108  97.1510932 101.4494642
   0.6262545 108.2977044  86.8462539   0.5476176 107.9636908  87.7398297
   1.4472211 108.7898812  86.8454011   3.3240736 101.1638783 100.0538857
   3.2917056 100.2254784 100.2398541   3.9341359 101.2422820  99.3204682
   3.4735224  97.9549827 100.0997140   2.9574273  97.1708283  99.9127069
   4.3575173  97.6268543 100.2643660   1.1345951  91.6990842  96.0592953
   0.9370772  91.3905930  96.9436285   1.7445657  92.4252481  96.1890883
   9.1417286 102.2254790  99.1944894   9.8720674 101.9640078  99.7552597
   8.5324231 101.4883512  99.2346962   7.2232583 100.3662653  99.7919345
   6.4965746 100.2318618  99.1835837   6.8079870 100.6739481 100.5976063
   2.4037819  95.8746886  96.0878836   3.1798209  96.3643338  96.3603453
   1.6785953  96.3004940  96.5450706   4.8410378  96.5874505  97.1452777
   5.4354868  96.3470241  96.4346085   4.9136961  95.8681635  97.7726313
   2.8369113  97.1544633  93.4124907   2.5806047  96.7541268  94.2433114
   2.2121981  97.8688426  93.2875046   7.1481450  99.8940706  95.9196198
   6.5881008  99.9633895  96.6927760   6.5424954  99.7181690  95.1995694
   8.7337469 116.5697220  98.6126154   9.3715879 116.4503967  97.9089494
   8.6158312 117.5178064  98.6714106   5.5427175 116.5224648  98.5487678
   5.2045687 116.4065713  97.6608213   6.4116943 116.1215813  98.5288685
   1.4013991 118.3760124  94.5384569   0.8378856 118.2850061  93.7700857
   1.2866386 117.5560029  95.0187062   6.0246958 117.6759500 104.5073884
   6.0135599 117.2812298 103.6354388   6.1867598 116.9425572 105.1007655
   0.9069177 119.1320229  90.2486169   1.6800053 118.5849216  90.1099044
   1.2594576 119.9964478  90.4600630   3.6710426 117.8373460 100.0454428
   4.2673998 117.6129482  99.3311391   3.7285398 117.0958205 100.6479875
   3.2435455 115.2912895  87.8804619   3.4960975 114.7694416  87.1188082
   2.3060014 115.1279041  87.9831302   8.2878737 114.2948674  95.6879362
   9.0741827 113.8768097  95.3369779   8.5517442 115.1994766  95.8561010
   8.4588815 119.7321524  90.3868019   7.8234648 119.8056150  91.0988923
   8.1286221 120.3215123  89.7087098  13.6887165 114.2323907  96.5912340
  14.4212336 113.6623124  96.8250170  12.9326520 113.8445507  97.0318846
   2.9631743 117.1941001  90.0828994   2.8468001 116.5185905  90.7510078
   3.0734003 116.7073375  89.2661147   5.3063284 116.6551148  93.7875683
   4.9421491 116.1281769  94.4988604   6.1630400 116.2649617  93.6142168
  11.2112585 107.9445481 101.0506949  10.8795910 108.8140892 100.8268164
  10.6158198 107.6281765 101.7300979   4.9468771 111.6841048  88.7837031
   5.1143174 112.5521284  89.1507502   4.7565940 111.8468330  87.8598321
   7.7044104 120.1458027 100.4502862   7.4044827 121.0483066 100.3418669
   7.3595164 119.8790210 101.3024015  11.1041248 112.6640567  98.1300299
  10.1958126 112.5955975  97.8359060  11.0528844 113.1412512  98.9582124
   4.9257992 114.1398705  89.7683698   4.8057617 114.5855756  90.6069178
   4.2310580 114.4884023  89.2097236   5.1782114 114.0830213 106.0735196
   4.4015448 114.6424133 106.0638061   5.8172677 114.5686996 106.5950066
  12.9702895 110.8657005  99.9078173  12.3277275 111.1589539  99.2617967
  12.4657823 110.7509926 100.7131370  10.6243058 114.6120179  90.5964032
  11.5360914 114.8447565  90.4211730  10.1152705 115.1957223  90.0339111
   8.9083826 119.0344806 104.2325325   9.3167182 118.5927217 103.4879957
   8.1861087 118.4597434 104.4859518   5.2614896 113.9717413 101.6058882
   6.1076091 114.3956827 101.7493531   5.2013534 113.3151038 102.2997445
   9.2312641 119.5945997  97.9877614   8.6021503 119.7591711  97.2853681
   8.8438303 120.0087607  98.7588578  13.1101872 120.5300435  95.3421977
  12.4252911 120.9099336  94.7919011  13.1945722 121.1395762  96.0753925
   8.4114341 111.6321782 103.2640055   8.1675273 112.3863842 102.7274331
   8.6874272 112.0107129 104.0987302  10.3652804 118.1760394 101.9417321
  10.5769699 118.8192154 101.2651702  10.3182552 117.3422711 101.4739251
   7.9679033 110.7878215  98.8453893   7.1063512 111.0859468  99.1370631
   7.9941468 111.0048614  97.9134926   4.7840602 119.3320405  95.2527699
   5.2478948 119.6108108  94.4632321   4.5197401 118.4303850  95.0700789
   1.6764683 118.8791887  98.1907462   2.2466041 119.3079155  97.5524946
   2.2672795 118.5974471  98.8891648   3.7209488 115.4543558  92.0617264
   4.4233532 115.9064601  92.5291190   3.3890117 114.8127376  92.6897157
  11.4798632 121.0532349 100.1139678  12.3016076 120.6512537  99.8322360
  11.4761035 120.9500584 101.0655794  19.5704625 117.3971098  96.4624650
  18.8168333 116.8278496  96.3068654  19.7052166 117.3633762  97.4095284
   4.3638554 109.7633959 106.3913981   5.1048267 110.3641112 106.3118443
   4.5956477 109.0211597 105.8332023   8.3095717 105.7915062 100.6678263
   7.9659986 106.6816704 100.5917373   8.6774679 105.6016720  99.8047848
   8.2745999 115.7823673  89.1750698   7.7592623 116.5528278  89.4139085
   8.0023308 115.1088809  89.7983759   5.8593110 110.6273374  94.2335936
   5.0034707 110.2380224  94.0541575   6.2720062 110.7065335  93.3735722
   7.3892257 108.1619717  98.6327496   6.8857053 108.1249852  97.8195301
   7.6822864 109.0712460  98.6924152   3.6335143 108.2458447  97.6393678
   4.4988140 108.0501256  97.2799567   3.7012652 108.0168799  98.5663034
  13.2480274 118.5356028  91.1103871  12.4709716 118.1967187  90.6659033
  13.9271755 118.5408651  90.4358836   8.0632303 113.6550765  91.0010479
   7.7582438 113.9696914  91.8520622   9.0162745 113.7332185  91.0437812
   6.5078734 119.8140989  92.6503433   5.9800096 119.0793748  92.3376670
   6.0066237 120.5915665  92.4043401  11.4871580 118.0090009  97.7670479
  10.8295255 118.6989270  97.8550608  12.2911980 118.3986441  98.1104465
   1.2397462 110.4760655  95.0110044   1.8141214 110.2535836  94.2783237
   1.8268444 110.5449349  95.7638646  10.2977039 116.3634382  95.8174421
  10.8108921 116.9964374  96.3196131  10.9478263 115.7635577  95.4517781
   1.5667049 112.5065116  89.0305930   0.7304361 112.8439802  89.3515204
   1.4271819 112.3714096  88.0933067   3.5420130 107.3501904  93.7385114
   2.8884542 107.0350921  93.1141729   3.5000604 106.7277644  94.4644937
   4.6531335 117.6321199  85.6538406   3.7458396 117.4010452  85.8529555
   5.1502367 116.8358818  85.8412387   6.7757870 113.8383837  98.0632761
   5.8580431 114.0598784  97.9054449   7.1918014 113.9130148  97.2044469
   7.5592918 115.2375253  93.1935442   8.3064737 115.7496650  92.8842564
   7.8284507 114.9159306  94.0539835   5.8319568 117.7333794  90.1762396
   4.9230787 117.4492827  90.2734866   5.8614652 118.1532872  89.3165703
  11.0638835 121.3440383  93.9453564  10.6101163 120.5031293  94.0018754
  10.4332802 121.9801782  94.2828344  10.0071755 112.2732369  95.1754231
   9.2694512 111.7609755  95.5064474  10.2598529 111.8332751  94.3637508
   9.5071775 123.1816880  94.8803382   9.7994749 123.7421937  94.1615747
  10.0170395 123.4745441  95.6356541  10.1083382 105.0508621  95.7696000
  10.4142259 104.1905985  95.4821915  10.8335987 105.6426241  95.5694994
   4.3804462 115.3462414  96.2772191   4.4353072 114.3936251  96.2014668
   3.5695664 115.5021853  96.7613490   5.5295656 119.2742537  87.5150475
   5.0915086 118.5578396  87.0556112   6.2706097 119.5018652  86.9535566
   2.3196822 113.9639474  94.0362570   1.5064688 114.2633645  94.4427762
   2.8155816 113.5695163  94.7537052   7.9171034 114.4281299 102.8677464
   8.2720421 114.6552772 103.7271930   8.5643165 114.7599675 102.2454719
  13.6468771 117.5499734  93.5726793  13.5086669 117.7401330  92.6447982
  13.2904989 118.3119117  94.0294844   1.8110897 111.5357830  99.6523805
   2.4510276 111.3946589  98.9546768   0.9788427 111.2492343  99.2762407
  13.6738150 119.6176261  98.5838065  14.1074657 119.5251551  99.4321119
  14.3869731 119.5933762  97.9458081   2.5871201 120.8360260  95.7658798
   3.3811799 120.3410580  95.5641373   1.8762893 120.3078123  95.4026503
  14.5353700 119.6599962 101.1170950  14.7289590 120.5645773 101.3630225
  14.4354318 119.2007381 101.9509535   6.1890011 109.5457853 103.6161277
   5.5417926 110.2447802 103.5225754   6.9591026 109.9793997 103.9837526
   9.5968808 119.8106705 106.6911831   9.4454315 119.5817257 105.7741914
   9.5873488 120.7677306 106.7043176   6.3654145 117.3838618 101.6758097
   7.2946205 117.5349777 101.5027064   5.9445175 117.4722638 100.8206744
   6.7147692 120.7870885  96.8345472   6.3797524 120.7471655  97.7303122
   6.2151637 120.1215601  96.3615883   9.6506883 118.1326919  87.1082532
   9.0336054 117.4073747  87.0115585   9.1823372 118.8936279  86.7649606
   3.3174236 115.9058474 101.8481733   4.0273855 115.2651666 101.8068352
   3.2743545 116.1571369 102.7707914  11.3061015 122.8425827 104.7688312
  11.2473561 122.1585047 104.1018895  11.7080533 123.5844817 104.3168938
   2.0303170 112.8923692 103.6677373   1.4940527 112.4414430 104.3198969
   1.4419879 113.0269601 102.9247837   1.4405429 112.3512343  86.2303836
   0.5634896 112.2301144  85.8666083   1.9163182 111.5598422  85.9782725
  11.3078422 120.8065411 103.0002292  10.4205201 120.4691333 103.1228691
  11.8776973 120.0748443 103.2371058   7.9366006 110.5133263  96.1200562
   8.4334705 109.7603225  95.8001633   7.1652987 110.5497580  95.5543772
  15.7895763 116.2173629  97.7618854  15.7785639 117.0998344  97.3912787
  14.9213142 115.8645179  97.5673391   9.0195786 119.2704950  93.6938986
   8.0852065 119.3906413  93.5243690   9.1972455 118.3677417  93.4298996
   4.5200974 112.6550646  95.8472247   4.1498762 112.1021687  96.5353152
   5.0160067 112.0508780  95.2947247  12.4068338 115.1122270  94.2289020
  12.8728790 115.9450261  94.1549322  12.8575838 114.6467251  94.9334278
  10.4744569 121.4566091  91.2275172  10.7504413 121.3422686  92.1369046
   9.6049067 121.0583576  91.1887345  10.3785000 107.4802857  98.2679921
   9.4648080 107.7107083  98.4362128  10.8078102 107.5641301  99.1193954
  10.1491459 115.6692749 100.7679815   9.4962909 115.9168656 100.1132268
  10.5271839 114.8556887 100.4342292  10.1405110 123.4670483 100.1046700
   9.1935446 123.3475834 100.0325027  10.4887883 122.5792981 100.1872962
   2.5004684 109.3564622 103.9284942   3.0239086 109.6026918 104.6911252
   2.2817017 110.1884656 103.5088080   1.0113788 111.9141266  92.1631545
   1.3509860 112.4427187  91.4410153   1.4585908 112.2521672  92.9390111
  10.7485665 124.0851758  97.3915925  11.6732213 123.8794619  97.2540377
  10.5800969 123.8368159  98.3005267   3.7057229 110.2978317 101.6134613
   3.3654049 109.4986130 102.0155293   2.9996235 110.5980028 101.0411446
   4.3573701 107.3827629 100.0661936   5.1799770 106.9088107  99.9440826
   4.6011764 108.1618113 100.5660622   2.9981935 110.4115888  90.3624838
   3.7190298 110.7897140  89.8588554   2.3747239 111.1304764  90.4659816
   7.1413058 111.1161037  91.2983170   7.3576672 111.9985674  90.9971998
   6.6607125 110.7247250  90.5688812   1.8812279 114.0746750  97.8753915
   1.7356860 114.3887053  98.7678196   1.4037483 114.6931650  97.3224813
   3.7408662 111.0649298  97.9234804   3.7270231 110.1690391  97.5867102
   4.4581090 111.0719962  98.5573090   5.5934793 111.4986638  99.9687932
   5.3352571 112.4203709  99.9672262   5.0619833 111.1017073 100.6588396
   3.1445558 109.9463678  93.1922374   3.2661469 109.0180324  93.3913262
   2.8547601 109.9602364  92.2800690   6.0136749 107.6318589  96.3289094
   6.0358445 107.6957922  95.3741074   6.4304808 106.7923097  96.5229600
  16.3920373 117.3673848  94.3668317  16.8351519 116.6181173  93.9687440
  15.5146883 117.3583984  93.9842049  11.5256154 123.9204190  89.8474915
  12.2207059 124.5410882  90.0662230  11.8679304 123.0699541  90.1227293
  13.4247577 121.3703895  91.3762246  13.9498901 121.7091168  90.6511566
  13.3369930 120.4350910  91.1925381  13.1141483 122.0036799 106.6813444
  12.3237027 121.9860938 106.1417943  12.8774838 122.5425092 107.4362481
  13.2339358 118.8529265 103.9946172  13.2837363 118.6879273 104.9361695
  13.1253282 117.9856524 103.6044053  10.5243121 114.8360193 105.3105479
  11.4252984 114.6966658 105.0189477  10.5991095 115.0014648 106.2503657
   4.8585926 112.2127048 104.1558666   3.9889236 112.5060614 103.8841254
   5.0945407 112.7967493 104.8765929  14.7357555 121.2726207 104.2388194
  14.4442364 121.6356187 105.0751655  14.1229687 120.5593215 104.0601526
  15.9353238 118.8379086  96.7590764  16.7700129 119.2768890  96.9228325
  16.0712366 118.3617740  95.9399010  12.9844744 116.3958821 102.7068252
  13.4598865 116.5886468 101.8987103  12.0610309 116.4518007 102.4611636
   7.5624960 108.4306665 101.6724086   8.0806904 109.1667692 101.3470574
   7.2080093 108.7370658 102.5070845   7.8137554 104.8506947  97.1924983
   8.0939308 104.1830136  97.8185409   8.5988161 105.0436043  96.6799646
  11.6846413 113.2724581 100.9396558  12.6363835 113.3722679 100.9608782
  11.5149863 112.4802850 101.4494642   9.7060792 110.3580165 101.1255959
   9.1110724 110.6385177 100.4302447   9.4210489 110.8474065 101.8972700
  11.4656299 123.6268962  86.8462539  11.3869931 123.2928825  87.7398297
  12.2865966 124.1190730  86.8454011  14.1634490 116.4930701 100.0538857
  14.1310810 115.5546702 100.2398541  14.7735114 116.5714738  99.3204682
   6.0017821 115.3626754  86.0966061   6.9476926 115.2332962  86.1654479
   5.6232066 114.6241416  86.5735489  14.3128979 113.2841744 100.0997140
  13.7968027 112.5000201  99.9127069  15.1968927 112.9560461 100.2643660
  11.9739706 107.0282760  96.0592953  11.7764527 106.7197848  96.9436285
  12.5839411 107.7544399  96.1890883  19.9811040 117.5546708  99.1944894
  20.7114429 117.2931996  99.7552597  19.3717986 116.8175430  99.2346962
  18.0626337 115.6954570  99.7919345  17.3359501 115.5610535  99.1835837
  17.6473624 116.0031399 100.5976063   4.1860738 113.2876730  86.0320947
   3.2792194 112.9909843  86.1083660   4.4636719 112.9906548  85.1655233
   5.8022804 107.8313620  92.1865188   4.9923532 107.4860705  92.5620434
   6.4907221 107.5221164  92.7752799   7.7313352 106.9091667  93.8089484
   8.2844391 107.3287120  94.4679508   7.9683439 105.9827415  93.8512440
   2.9559523 110.1463666  86.1732926   3.8178687 110.4718564  86.4328743
   3.1409867 109.3595161  85.6605992  11.1092159 109.0192192  93.3168149
  10.5290828 109.6776996  92.9346201  10.8428092 108.1969537  92.9055566
   9.5595726 108.4197250  95.5189469  10.0595504 108.5313784  94.7103788
  10.2031334 108.1158303  96.1590277   9.8917037 111.1792282  92.3724497
   9.0042892 111.4641933  92.1544692  10.3071026 111.0186046  91.5251774
  13.2431574 111.2038803  96.0878836  14.0191964 111.6935256  96.3603453
  12.5179708 111.6296858  96.5450706  15.6804132 111.9166423  97.1452777
  16.2748623 111.6762159  96.4346085  15.7530716 111.1973553  97.7726313
   9.0360251 120.9436957  86.4672517   9.7396101 121.1486960  87.0830173
   8.3122900 121.5113719  86.7321600   9.8658061 116.6946818  92.5874787
   9.8093263 117.1515370  91.7482420  10.4186404 115.9337503  92.4097630
  13.6762867 112.4836550  93.4124907  13.4199801 112.0833186  94.2433114
  13.0515735 113.1980344  93.2875046  17.9875205 115.2232623  95.9196198
  17.4274763 115.2925813  96.6927760  17.3818708 115.0473608  95.1995694
  10.9446948 121.3819486  88.5170977  11.7792552 120.9500685  88.3348452
  10.7831291 121.2101500  89.4447871  10.5992840 117.8851600  89.8827316
  10.5441644 117.7195871  88.9415760   9.9738896 118.5927632  90.0389506
   3.9088966 107.3859709  89.4612635   3.8967636 108.3301549  89.6180906
   4.8012388 107.2029854  89.1672096   7.7241085 103.9802485  93.7158572
   6.9573481 103.4260972  93.8615254   8.1351790 104.0524354  94.5772723
  22.0506339 123.2737399 101.0506949  21.7189664 124.1432810 100.8268164
  21.4551953 122.9573683 101.7300979  23.8096649 126.1948923  99.9078173
  23.1671029 126.4881456  99.2617967  23.3051578 126.0801843 100.7131370
  18.8072788 126.1170132  98.8453893  17.9457267 126.4151386  99.1370631
  18.8335222 126.3340531  97.9134926  15.2032308 125.0925877 106.3913981
  15.9442022 125.6933030 106.3118443  15.4350231 124.3503515 105.8332023
  19.1489471 121.1206980 100.6678263  18.8053741 122.0108621 100.5917373
  19.5168434 120.9308637  99.8047848  16.6986865 125.9565292  94.2335936
  15.8428461 125.5672142  94.0541575  17.1113817 126.0357252  93.3735722
  18.2286012 123.4911635  98.6327496  17.7250807 123.4541770  97.8195301
  18.5216618 124.4004378  98.6924152  14.4728897 123.5750365  97.6393678
  15.3381894 123.3793173  97.2799567  14.5406406 123.3460716  98.5663034
  14.3813884 122.6793821  93.7385114  13.7278297 122.3642839  93.1141729
  14.3394358 122.0569562  94.4644937  20.8465510 127.6024287  95.1754231
  20.1088266 127.0901673  95.5064474  21.0992283 127.1624669  94.3637508
  20.9477137 120.3800539  95.7696000  21.2536014 119.5197902  95.4821915
  21.6729742 120.9718159  95.5694994  17.0283765 124.8749770 103.6161277
  16.3811680 125.5739720 103.5225754  17.7984780 125.3085914 103.9837526
  18.7759760 125.8425181  96.1200562  19.2728460 125.0895143  95.8001633
  18.0046742 125.8789497  95.5543772  21.2178755 122.8094774  98.2679921
  20.3041835 123.0399001  98.4362128  21.6471856 122.8933218  99.1193954
  15.1967455 122.7119547 100.0661936  16.0193524 122.2380025  99.9440826
  15.4405519 123.4910031 100.5660622  16.8530503 122.9610506  96.3289094
  16.8752200 123.0249839  95.3741074  17.2698562 122.1215015  96.5229600
  18.4018714 123.7598582 101.6724086  18.9200658 124.4959609 101.3470574
  18.0473847 124.0662576 102.5070845  18.6531309 120.1798865  97.1924983
  18.9333062 119.5122054  97.8185409  19.4381916 120.3727961  96.6799646
  20.5454546 125.6872082 101.1255959  19.9504479 125.9677095 100.4302447
  20.2604243 126.1765983 101.8972700  25.1522733 128.6133662 100.0997140
  24.6361782 127.8292119  99.9127069  26.0362682 128.2852379 100.2643660
  22.8133460 122.3574678  96.0592953  22.6158281 122.0489766  96.9436285
  23.4233166 123.0836317  96.1890883  16.6416559 123.1605538  92.1865188
  15.8317287 122.8152623  92.5620434  17.3300975 122.8513081  92.7752799
  18.5707107 122.2383585  93.8089484  19.1238145 122.6579038  94.4679508
  18.8077193 121.3119333  93.8512440  21.9485914 124.3484110  93.3168149
  21.3684583 125.0068914  92.9346201  21.6821847 123.5261454  92.9055566
  20.3989480 123.7489167  95.5189469  20.8989259 123.8605702  94.7103788
  21.0425088 123.4450220  96.1590277  20.7310792 126.5084200  92.3724497
  19.8436647 126.7933851  92.1544692  21.1464781 126.3477963  91.5251774
  24.0825328 126.5330721  96.0878836  24.8585718 127.0227174  96.3603453
  23.3573462 126.9588775  96.5450706  26.5197887 127.2458340  97.1452777
  27.1142377 127.0054076  96.4346085  26.5924470 126.5265471  97.7726313
  24.5156622 127.8128468  93.4124907  24.2593556 127.4125104  94.2433114
  23.8909490 128.5272262  93.2875046  14.7482720 122.7151626  89.4612635
  14.7361390 123.6593466  89.6180906  15.6406142 122.5321772  89.1672096
  18.5634840 119.3094403  93.7158572  17.7967236 118.7552890  93.8615254
  18.9745545 119.3816272  94.5772723   2.8493411  75.9094112  83.3157647
   3.5818583  75.3393328  83.5495476   2.0932767  75.5215712  83.7564153
   2.1309141  72.5427210  86.6323480   1.4883522  72.8359744  85.9863274
   1.6264070  72.4280131  87.4376676   2.2708119  82.2070640  82.0667284
   1.5859157  82.5869541  81.5164317   2.3551969  82.8165967  82.7999232
   0.6404879  82.7302554  86.8384985   1.4622322  82.3282742  86.5567667
   0.6367282  82.6270788  87.7901101   8.7310872  79.0741303  83.1869956
   7.9774580  78.5048701  83.0313961   8.8658413  79.0403967  84.1340591
   2.4086520  80.2126233  77.8349178   1.6315963  79.8737392  77.3904340
   3.0878001  80.2178856  77.1604143   2.8075017  79.2269939  80.2972100
   2.6692916  79.4171535  79.3693289   2.4511236  79.9889322  80.7540151
   2.8344397  81.2946466  85.3083371   3.2680904  81.2021755  86.1566425
   3.5475978  81.2703967  84.6703387   3.6959947  81.3370167  87.8416257
   3.8895837  82.2415977  88.0875532   3.5960565  80.8777586  88.6754842
   4.9502010  77.8943834  84.4864160   4.9391886  78.7768549  84.1158094
   4.0819389  77.5415384  84.2918697   1.5674584  76.7892475  80.9534326
   2.0335037  77.6220466  80.8794629   2.0182085  76.3237456  81.6579585
   5.5526620  79.0444053  81.0913623   5.9957766  78.2951378  80.6932747
   4.6753130  79.0354189  80.7087355   0.6862401  85.5974394  76.5720222
   1.3813306  86.2181087  76.7907536   1.0285551  84.7469746  76.8472600
   2.5853824  83.0474100  78.1007553   3.1105148  83.3861373  77.3756873
   2.4976177  82.1121115  77.9170687   2.2747730  83.6807004  93.4058751
   1.4843274  83.6631142  92.8663250   2.0381085  84.2195297  94.1607787
   2.3945605  80.5299470  90.7191479   2.4443610  80.3649477  91.6607002
   2.2859529  79.6626729  90.3289360   3.8963802  82.9496411  90.9633501
   3.6048610  83.3126392  91.7996962   3.2835933  82.2363420  90.7846833
   5.0959484  80.5149291  83.4836071   5.9306376  80.9539095  83.6473631
   5.2318613  80.0387944  82.6644317   2.1450990  78.0729026  89.4313559
   2.6205112  78.2656672  88.6232410   1.2216556  78.1288212  89.1856942
   0.8452659  74.9494786  87.6641864   1.7970082  75.0492884  87.6854088
   0.6756110  74.1573055  88.1739949   0.6262546  85.3039167  73.5707845
   0.5476177  84.9699030  74.4643603   1.4472213  85.7960935  73.5699318
   3.3240737  78.1700906  86.7784164   3.2917057  77.2316907  86.9643848
   3.9341361  78.2484943  86.0449989   3.4735226  74.9611949  86.8242447
   2.9574274  74.1770406  86.6372376   4.3575174  74.6330666  86.9888967
   1.1345952  68.7052965  82.7838260   0.9370774  68.3968053  83.6681592
   1.7445658  69.4314604  82.9136190   9.1417287  79.2316913  85.9190201
   9.8720675  78.9702201  86.4797904   8.5324232  78.4945635  85.9592269
   7.2232584  77.3724775  86.5164652   6.4965748  77.2380740  85.9081143
   6.8079871  77.6801604  87.3221370   2.4037820  72.8809008  82.8124143
   3.1798210  73.3705461  83.0848760   1.6785954  73.3067062  83.2696012
   4.8410379  73.5936628  83.8698084   5.4354870  73.3532363  83.1591392
   4.9136963  72.8743758  84.4971620   2.8369114  74.1606755  80.1370213
   2.5806048  73.7603391  80.9678421   2.2121982  74.8750549  80.0120352
   7.1481452  76.9002828  82.6441505   6.5881010  76.9696018  83.4173067
   6.5424955  76.7243813  81.9241001   8.7337470  93.5759342  85.3371460
   9.3715880  93.4566090  84.6334800   8.6158313  94.5240186  85.3959413
   5.5427176  93.5286770  85.2732985   5.2045688  93.4127835  84.3853520
   6.4116945  93.1277935  85.2533991   1.4013992  95.3822247  81.2629876
   0.8378857  95.2912184  80.4946164   1.2866387  94.5622151  81.7432369
   6.0246959  94.6821622  91.2319191   6.0135600  94.2874420  90.3599694
   6.1867599  93.9487695  91.8252962   6.9813551  99.0493215  76.5744341
   6.3301531  99.6347295  76.1878355   7.7757914  99.5799409  76.6339378
   0.9069178  96.1382352  76.9731475   1.6800054  95.5911339  76.8344351
   1.2594577  97.0026601  77.1845937   2.7454221  97.4658734  90.1798375
   2.4544087  98.3704365  90.0645041   3.3811205  97.5075262  90.8942444
   3.6710427  94.8435582  86.7699734   4.2674000  94.6191605  86.0556697
   3.7285399  94.1020328  87.3725182   3.2435456  92.2975018  74.6049925
   3.4960977  91.7756539  73.8433388   2.3060015  92.1341163  74.7076609
   8.2878739  91.3010796  82.4124668   9.0741828  90.8830219  82.0615085
   8.5517443  92.2056888  82.5806317   8.4588816  96.7383646  77.1113325
   7.8234649  96.8118273  77.8234230   8.1286222  97.3277245  76.4332405
  13.6887166  91.2386029  83.3157647  14.4212338  90.6685246  83.5495476
  12.9326521  90.8507630  83.7564153   2.9631745  94.2003124  76.8074300
   2.8468003  93.5248027  77.4755384   3.0734004  93.7135498  75.9906453
   5.3063285  93.6613271  80.5120989   4.9421493  93.1343892  81.2233911
   6.1630401  93.2711740  80.3387475  11.2112586  84.9507603  87.7752256
  10.8795911  85.8203014  87.5513471  10.6158200  84.6343887  88.4546286
   4.9468772  88.6903171  75.5082338   5.1143175  89.5583407  75.8752809
   4.7565942  88.8530452  74.5843627   7.7044106  97.1520149  87.1748168
   7.4044829  98.0545188  87.0663976   7.3595165  96.8852333  88.0269321
  11.1041249  89.6702690  84.8545606  10.1958127  89.6018098  84.5604367
  11.0528845  90.1474635  85.6827431   4.9257993  91.1460828  76.4929005
   4.8057619  91.5917879  77.3314485   4.2310582  91.4946146  75.9342543
   2.6864885 103.9164470  80.1419136   2.6088915 104.8672295  80.2207617
   2.0826529 103.5710342  80.7994062   5.1782115  91.0892335  92.7980503
   4.4015449  91.6486255  92.7883368   5.8172678  91.5749118  93.3195373
  12.9702896  87.8719128  86.6323480  12.3277276  88.1651661  85.9863274
  12.4657824  87.7572048  87.4376676  10.6243060  91.6182301  77.3209339
  11.5360916  91.8509688  77.1457036  10.1152707  92.2019345  76.7584417
   3.4328488  93.8977789  92.3598470   4.1743172  94.4362833  92.0833294
   2.7265473  94.5244077  92.5170022   8.9083827  96.0406929  90.9570631
   9.3167183  95.5989340  90.2125264   8.1861089  95.4659557  91.2104824
   5.2614897  90.9779536  88.3304188   6.1076092  91.4018949  88.4738837
   5.2013535  90.3213160  89.0242751   9.2312642  96.6008120  84.7122920
   8.6021504  96.7653834  84.0098988   8.8438304  97.0149729  85.4833884
  13.1101874  97.5362558  82.0667284  12.4252912  97.9161459  81.5164317
  13.1945723  98.1457884  82.7999232   8.4114343  88.6383904  89.9885362
   8.1675274  89.3925965  89.4519638   8.6874273  89.0169252  90.8232609
  10.3652805  95.1822517  88.6662628  10.5769701  95.8254276  87.9897009
  10.3182554  94.3484833  88.1984558   7.9679034  87.7940337  85.5699200
   7.1063513  88.0921591  85.8615937   7.9941469  88.0110736  84.6380232
   4.7840604  96.3382528  81.9773005   5.2478949  96.6170231  81.1877628
   4.5197402  95.4365972  81.7946096   1.6764685  95.8854009  84.9152769
   2.2466042  96.3141278  84.2770253   2.2672797  95.6036594  85.6136954
   3.7209490  92.4605680  78.7862570   4.4233533  92.9126724  79.2536497
   3.3890118  91.8189499  79.4142464   2.1689851  91.0517437  93.1613780
   1.5388512  91.7333718  93.3949177   2.0625939  90.9400518  92.2166918
  11.4798633  98.0594472  86.8384985  12.3016077  97.6574659  86.5567667
  11.4761036  97.9562706  87.7901101   5.2455237  97.6078515  88.9945695
   5.3099669  98.0698923  89.8303867   4.5366161  96.9775880  89.1228005
  19.5704626  94.4033220  83.1869956  18.8168335  93.8340619  83.0313961
  19.7052168  94.3695885  84.1340591   4.9603254  99.2746623  78.8624676
   4.8248929 100.1198158  79.2909524   5.5013067  99.4765900  78.0990610
   1.4470594  85.3538203  95.5239031   1.0537540  84.8004401  96.1986675
   2.2636734  85.6648781  95.9145548   4.3638555  86.7696082  93.1159288
   5.1048268  87.3703235  93.0363750   4.5956478  86.0273719  92.5577330
   6.5871731  99.8970189  92.9925018   6.1435585  99.1106568  92.6745922
   7.2488944 100.0849340  92.3268909   1.3458852 101.4265991  87.5185696
   1.8966277 101.2983054  86.7462690   0.5070328 101.7260880  87.1680589
   8.6852969 100.1772989  91.0206419   8.6671444 100.9981870  90.5286688
   9.6072889 100.0527064  91.2456560   5.1426023  97.6917119  91.8629927
   5.6754360  96.9305407  91.6329235   4.6140104  97.3990770  92.6054082
   8.3095718  82.7977185  87.3923569   7.9659987  83.6878826  87.3162680
   8.6774681  82.6078842  86.5293154   8.2746001  92.7885796  75.8996004
   7.7592624  93.5590400  76.1384392   8.0023309  92.1150932  76.5229066
   5.8593112  87.6335497  80.9581243   5.0034708  87.2442347  80.7786881
   6.2720063  87.7127457  80.0981028   7.3892258  85.1681840  85.3572802
   6.8857054  85.1311975  84.5440608   7.6822865  86.0774583  85.4169459
   3.6335144  85.2520570  84.3638984   4.4988141  85.0563378  84.0044874
   3.7012653  85.0230921  85.2908341  13.2480275  95.5418150  77.8349178
  12.4709718  95.2029310  77.3904340  13.9271756  95.5470774  77.1604143
   8.0632304  90.6612888  77.7255785   7.7582439  90.9759037  78.5765929
   9.0162746  90.7394308  77.7683118   6.5078736  96.8203111  79.3748739
   5.9800097  96.0855871  79.0621977   6.0066238  97.5977788  79.1288708
  11.4871582  95.0152132  84.4915786  10.8295256  95.7051393  84.5795914
  12.2911981  95.4048564  84.8349772   1.2397463  87.4822777  81.7355351
   1.8141215  87.2597959  81.0028544   1.8268446  87.5511472  82.4883952
  10.2977040  93.3696504  82.5419728  10.8108922  94.0026496  83.0441437
  10.9478264  92.7697700  82.1763088   1.5667050  89.5127238  75.7551236
   0.7304363  89.8501925  76.0760511   1.4271820  89.3776218  74.8178373
   3.5420131  84.3564026  80.4630420   2.8884543  84.0413044  79.8387035
   3.5000605  83.7339767  81.1890243   4.6531336  94.6383321  72.3783712
   3.7458398  94.4072575  72.5774861   5.1502368  93.8420941  72.5657694
   7.5599415 103.3480829  75.2980399   6.8861113 103.6512525  75.9065356
   7.9465237 104.1509909  74.9485856   6.7757871  90.8445960  84.7878068
   5.8580433  91.0660907  84.6299756   7.1918015  90.9192270  83.9289775
   7.5592919  92.2437376  79.9180748   8.3064738  92.7558773  79.6087870
   7.8284509  91.9221428  80.7785142   5.8319569  94.7395916  76.9007703
   4.9230789  94.4554949  76.9980172   5.8614653  95.1594995  76.0411009
  11.0638837  98.3502506  80.6698870  10.6101164  97.5093416  80.7264061
  10.4332803  98.9863904  81.0073650  10.0071756  89.2794492  81.8999538
   9.2694513  88.7671878  82.2309780  10.2598530  88.8394873  81.0882814
   9.5071776 100.1879002  81.6048688   9.7994750 100.7484060  80.8861054
  10.0170397 100.4807563  82.3601847  10.1083384  82.0570744  82.4941307
  10.4142260  81.1968107  82.2067222  10.8335988  82.6488364  82.2940301
   4.3804463  92.3524537  83.0017498   4.4353073  91.3998373  82.9259975
   3.5695665  92.5083976  83.4858796   5.5295657  96.2804660  74.2395781
   5.0915087  95.5640519  73.7801418   6.2706098  96.5080775  73.6780873
   2.3196823  90.9701597  80.7607877   1.5064689  91.2695767  81.1673069
   2.8155817  90.5757285  81.4782359   4.4705401 100.9659354  82.6942141
   4.4281580 101.1920200  81.7650674   5.3868100 100.7322728  82.8427943
   7.9171035  91.4343421  89.5922771   8.2720423  91.6614894  90.4517236
   8.5643166  91.7661798  88.9700026  13.6468772  94.5561857  80.2972100
  13.5086670  94.7463453  79.3693289  13.2904991  95.3181240  80.7540151
   1.8110898  88.5419952  86.3769112   2.4510277  88.4008711  85.6792075
   0.9788429  88.2554466  86.0007714  13.6738151  96.6238384  85.3083371
  14.1074658  96.5313673  86.1566425  14.3869732  96.5995884  84.6703387
   2.5871202  97.8422383  82.4904104   3.3811800  97.3472703  82.2886679
   1.8762894  97.3140246  82.1271810   7.4066046 100.2240478  86.8416472
   7.4603069 100.7931414  87.6094188   6.5380828 100.3942363  86.4770509
  14.5353701  96.6662085  87.8416257  14.7289591  97.5707895  88.0875532
  14.4354319  96.2069504  88.6754842   6.1890012  86.5519975  90.3406584
   5.5417927  87.2509925  90.2471060   6.9591027  86.9856119  90.7082832
   9.5968810  96.8168827  93.4157137   9.4454316  96.5879379  92.4987221
   9.5873489  97.7739429  93.4288482   6.3654146  94.3900740  88.4003404
   7.2946206  94.5411900  88.2272371   5.9445176  94.4784761  87.5452050
   5.1642478  98.4151405  86.1701941   5.0253564  98.0470189  87.0427879
   4.3757074  98.9299044  85.9985899   5.7590630 103.5160501  77.5127478
   5.9342386 103.0448544  78.3273101   5.0723418 104.1426267  77.7408739
   6.7147693  97.7933007  83.5590779   6.3797526  97.7533777  84.4548429
   6.2151639  97.1277723  83.0861189   0.6891937  93.2000637  89.0843360
   0.5511735  92.4680876  89.6854899   1.5996860  93.1109537  88.8027548
   9.6506885  95.1389042  73.8327839   9.0336055  94.4135870  73.7360891
   9.1823373  95.8998402  73.4894913   3.3174238  92.9120597  88.5727040
   4.0273856  92.2713789  88.5313658   3.2743546  93.1633491  89.4953221
  11.3061016  99.8487950  91.4933619  11.2473563  99.1647170  90.8264202
  11.7080535 100.5906940  91.0414245   2.0303172  89.8985815  90.3922679
   1.4940529  89.4476553  91.0444276   1.4419880  90.0331723  89.6493144
   1.4405431  89.3574466  72.9549143   0.5634897  89.2363267  72.5911390
   1.9163184  88.5660544  72.7028032  11.3078424  97.8127534  89.7247599
  10.4205202  97.4753456  89.8473998  11.8776975  97.0810565  89.9616364
   4.8379577 102.4728986  86.6908842   4.7649749 103.2783958  87.2028147
   4.3956970 102.6720952  85.8656863   4.6269357 101.7100756  80.2011664
   3.8436879 102.2522436  80.2949888   5.3262102 102.2274736  80.6005905
   7.9366007  87.5195386  82.8445869   8.4334706  86.7665348  82.5246939
   7.1652988  87.5559702  82.2789078  15.7895764  93.2235751  84.4864160
  15.7785640  94.1060467  84.1158094  14.9213144  92.8707302  84.2918697
   7.2978261 102.3715820  88.8467001   8.0106233 103.0063285  88.7742902
   6.8068289 102.4679686  88.0307002   9.0195787  96.2767073  80.4184292
   8.0852066  96.3968535  80.2488997   9.1972456  95.3739540  80.1544302
   4.5200976  89.6612769  82.5717554   4.1498763  89.1083809  83.2598459
   5.0160068  89.0570902  82.0192554  12.4068339  92.1184392  80.9534326
  12.8728791  92.9512384  80.8794629  12.8575839  91.6529374  81.6579585
   2.3490174 100.1210264  89.6672571   3.0499634 100.7546747  89.8201966
   1.8785289 100.4624995  88.9068211  10.4744570  98.4628214  77.9520478
  10.7504414  98.3484808  78.8614353   9.6049069  98.0645698  77.9132652
  10.3785002  84.4864979  84.9925228   9.4648081  84.7169206  85.1607435
  10.8078103  84.5703423  85.8439260  10.1491460  92.6754871  87.4925122
   9.4962910  92.9230779  86.8377575  10.5271840  91.8619009  87.1587599
   7.1098634 102.7114564  81.5953292   7.2921028 101.8936220  82.0581044
   7.9331620 102.9282257  81.1578182   7.4440799 101.6382749  78.8568341
   7.9728566 101.1275204  78.2438503   7.7069019 101.3225280  79.7213874
   6.1979033  93.4174682  93.9791159   5.5219670  93.3168812  94.6493534
   7.0206667  93.2613896  94.4427156   4.9401816 104.7241610  88.2148775
   5.4920124 104.8873231  88.9797860   5.2808009 105.3146048  87.5428800
   9.7912690  99.5502867  94.0697429  10.3352594 100.1632825  93.5752384
   9.2099535 100.1082446  94.5864442   8.0770203 102.6723585  85.2012457
   7.9521343 101.8713325  84.6923403   8.7349294 103.1669779  84.7126427
  10.1405112 100.4732605  86.8292007   9.1935447 100.3537956  86.7570334
  10.4887885  99.5855103  86.9118269   2.5004685  86.3626744  90.6530249
   3.0239087  86.6089041  91.4156558   2.2817018  87.1946779  90.2333386
   7.1451545 100.2685322  83.0296359   6.9976507  99.3402029  83.2103929
   7.9705038 100.2905412  82.5453435   1.0113789  88.9203389  78.8876852
   1.3509862  89.4489310  78.1655460   1.4585910  89.2583795  79.6635418
  10.7485667 101.0913880  84.1161232  11.6732214 100.8856742  83.9785683
  10.5800970 100.8430281  85.0250574   3.7057230  87.3040439  88.3379920
   3.3654050  86.5048252  88.7400599   2.9996236  87.6042150  87.7656753
   4.3573702  84.3889752  86.7907243   5.1799771  83.9150230  86.6686133
   4.6011765  85.1680236  87.2905929   2.9981936  87.4178010  77.0870144
   3.7190299  87.7959263  76.5833861   2.3747240  88.1366887  77.1905122
   7.1413059  88.1223159  78.0228477   7.3576674  89.0047797  77.7217305
   6.6607126  87.7309373  77.2934119   1.8812281  91.0808872  84.5999221
   1.7356861  91.3949175  85.4923503   1.4037484  91.6993773  84.0470120
   3.7408663  88.0711420  84.6480111   3.7270232  87.1752514  84.3112409
   4.4581092  88.0782084  85.2818397   5.5934794  88.5048761  86.6933238
   5.3352572  89.4265831  86.6917569   5.0619835  88.1079195  87.3833702
  10.5380983 101.6099548  79.4723324  10.7117860 101.0445970  78.7197176
  11.0309874 102.4100443  79.2902814   3.1445559  86.9525801  79.9167681
   3.2661471  86.0242447  80.1158568   2.8547602  86.9664487  79.0045996
   6.0136750  84.6380711  83.0534401   6.0358447  84.7020044  82.0986380
   6.4304809  83.7985220  83.2474907  16.3920374  94.3735971  81.0913623
  16.8351520  93.6243296  80.6932747  15.5146884  94.3646107  80.7087355
  11.5256155 100.9266312  76.5720222  12.2207060 101.5473005  76.7907536
  11.8679306 100.0761663  76.8472600  13.4247579  98.3766018  78.1007553
  13.9498903  98.7153290  77.3756873  13.3369931  97.4413033  77.9170687
   5.0867627 102.2900091  90.2297429   5.3954754 102.0449238  91.1020129
   5.8843109 102.4946730  89.7416299   5.1088239 104.4438001  82.4602806
   4.6693230 103.9514380  83.1535663   5.8596356 103.9010969  82.2194881
   2.5562111  99.9876010  84.5325107   1.9342121  99.3246715  84.2327335
   3.2266978 100.0137142  83.8498755   2.6286639  88.4657798  94.1257614
   2.6774794  89.3419921  93.7435383   3.1709153  87.9235191  93.5529257
  13.1141485  99.0098921  93.4058751  12.3237028  98.9923060  92.8663250
  12.8774839  99.5487215  94.1607787  13.2339360  95.8591388  90.7191479
  13.2837365  95.6941395  91.6607002  13.1253283  94.9918647  90.3289360
   2.1175618  98.5379933  78.0083568   2.2663739  99.2215398  77.3550241
   2.9242062  98.5185023  78.5233024  10.5243122  91.8422316  92.0350786
  11.4252985  91.7028781  91.7434784  10.5991097  92.0076771  92.9748963
   4.8585927  89.2189170  90.8803972   3.9889237  89.5122736  90.6086561
   5.0945408  89.8029615  91.6011236  14.7357557  98.2788329  90.9633501
  14.4442365  98.6418310  91.7996962  14.1229688  97.5655337  90.7846833
  15.9353239  95.8441209  83.4836071  16.7700130  96.2831013  83.6473631
  16.0712368  95.3679862  82.6644317  12.9844745  93.4020944  89.4313559
  13.4598866  93.5948590  88.6232410  12.0610310  93.4580130  89.1856942
   7.5624961  85.4368787  88.3969393   8.0806905  86.1729814  88.0715881
   7.2080094  85.7432781  89.2316152   7.8137555  81.8569070  83.9170289
   8.0939309  81.1892259  84.5430716   8.5988162  82.0498166  83.4044953
   5.6171024 101.0328064  75.4795315   5.0444991 101.6518251  75.0265787
   6.1903818 101.5827425  76.0135237  11.6846414  90.2786704  87.6641864
  12.6363837  90.3784802  87.6854088  11.5149864  89.4864972  88.1739949
   9.7060793  87.3642287  87.8501265   9.1110725  87.6447300  87.1547754
   9.4210490  87.8536188  88.6218006   8.8368284 101.3165214  76.6103898
   9.7698957 101.2510776  76.8136773   8.7491497 102.1521481  76.1518430
  11.4656300 100.6331084  73.5707845  11.3869932 100.2990948  74.4643603
  12.2865967 101.1252852  73.5699318  14.1634492  93.4992824  86.7784164
  14.1310812  92.5608824  86.9643848  14.7735115  93.5776860  86.0449989
   6.0017822  92.3688877  72.8211368   6.9476927  92.2395085  72.8899786
   5.6232067  91.6303538  73.2980796  14.3128980  90.2903867  86.8242447
  13.7968029  89.5062324  86.6372376  15.1968929  89.9622584  86.9888967
  11.9739707  84.0344883  82.7838260  11.7764528  83.7259971  83.6681592
  12.5839413  84.7606521  82.9136190  19.9811041  94.5608830  85.9190201
  20.7114430  94.2994119  86.4797904  19.3717987  93.8237552  85.9592269
  18.0626339  92.7016693  86.5164652  17.3359502  92.5672658  85.9081143
  17.6473625  93.0093522  87.3221370   5.8856515  96.4206623  94.2812025
   6.8059524  96.5985222  94.4752071   5.8506098  95.4762668  94.1291724
   4.1860740  90.2938853  72.7566253   3.2792195  89.9971966  72.8328967
   4.4636721  89.9968671  71.8900539   5.8022805  84.8375743  78.9110494
   4.9923534  84.4922828  79.2865741   6.4907222  84.5283286  79.4998106
   7.7313354  83.9153789  80.5334791   8.2844392  84.3349243  81.1924814
   7.9683440  82.9889538  80.5757747   3.7546453  89.9040863  96.3137555
   3.6543180  90.8535220  96.2449646   3.5367995  89.5759102  95.4413625
   2.9559524  87.1525788  72.8978232   3.8178688  87.4780686  73.1574050
   3.1409868  86.3657284  72.3851298  11.1092161  86.0254315  80.0413455
  10.5290830  86.6839119  79.6591508  10.8428093  85.2031659  79.6300873
   9.5595727  85.4259372  82.2434776  10.0595505  85.5375907  81.4349095
  10.2031335  85.1220425  82.8835584   3.6177723  93.3338002  95.1302617
   3.1344805  94.1338362  95.3366506   3.7038662  93.3445947  94.1770061
   9.8917039  88.1854405  79.0969804   9.0042894  88.4704056  78.8789998
  10.3071028  88.0248168  78.2497081  13.2431575  88.2100926  82.8124143
  14.0191965  88.6997378  83.0848760  12.5179709  88.6358980  83.2696012
  15.6804133  88.9228545  83.8698084  16.2748624  88.6824281  83.1591392
  15.7530717  88.2035676  84.4971620   9.0360252  97.9499080  73.1917824
   9.7396102  98.1549082  73.8075479   8.3122901  98.5175842  73.4566907
   9.8658062  93.7008941  79.3120094   9.8093264  94.1577492  78.4727726
  10.4186405  92.9399626  79.1342937  13.6762868  89.4898673  80.1370213
  13.4199803  89.0895308  80.9678421  13.0515736  90.2042467  80.0120352
  17.9875206  92.2294746  82.6441505  17.4274764  92.2987935  83.4173067
  17.3818710  92.0535731  81.9241001  10.9446950  98.3881609  75.2416284
  11.7792553  97.9562807  75.0593758  10.7831292  98.2163623  76.1693178
  10.5992842  94.8913722  76.6072623  10.5441646  94.7257994  75.6661067
   9.9738897  95.5989755  76.7634813   7.9138749  97.1962634  95.9326186
   8.7829909  97.3703286  95.5712821   7.4345500  98.0157051  95.8101915
   3.9088967  84.3921831  76.1857941   3.8967637  85.3363671  76.3426212
   4.8012389  84.2091977  75.8917403   2.0824929 104.3159735  87.6115619
   2.9852176 104.3483345  87.9282114   1.8562299 103.3860186  87.6261955
   3.8378531 103.0690722  84.2725698   2.8874162 103.0692583  84.1590070
   4.1411017 102.3223456  83.7561733   7.7241087  80.9864608  80.4403878
   6.9573482  80.4323095  80.5860561   8.1351792  81.0586477  81.3018030
  19.5731225 108.9051260  85.3371460  20.2109635 108.7858007  84.6334800
  19.4552068 109.8532104  85.3959413  16.3820931 108.8578688  85.2732985
  16.0439442 108.7419753  84.3853520  17.2510699 108.4569853  85.2533991
  12.2407747 110.7114164  81.2629876  11.6772612 110.6204101  80.4946164
  12.1260142 109.8914069  81.7432369  16.8640714 110.0113540  91.2319191
  16.8529355 109.6166338  90.3599694  17.0261353 109.2779612  91.8252962
   9.7872179 112.2065356  84.1014097  10.5793470 111.8656181  83.6860396
  10.0268829 112.3160331  85.0216250  17.8207305 114.3785132  76.5744341
  17.1695285 114.9639213  76.1878355  18.6151668 114.9091327  76.6339378
  11.7462932 111.4674269  76.9731475  12.5193808 110.9203256  76.8344351
  12.0988331 112.3318519  77.1845937  13.5847975 112.7950652  90.1798375
  13.2937841 113.6996282  90.0645041  14.2204959 112.8367179  90.8942444
  14.5104182 110.1727500  86.7699734  15.1067754 109.9483523  86.0556697
  14.5679153 109.4312246  87.3725182  14.0829210 107.6266935  74.6049925
  14.3354731 107.1048457  73.8433388  13.1453769 107.4633081  74.7076609
  19.1272493 106.6302714  82.4124668  19.9135582 106.2122137  82.0615085
  19.3911197 107.5348806  82.5806317  19.2982570 112.0675564  77.1113325
  18.6628403 112.1410191  77.8234230  18.9679977 112.6569163  76.4332405
  24.5280920 106.5677947  83.3157647  25.2606092 105.9977164  83.5495476
  23.7720276 106.1799547  83.7564153  13.8025499 109.5295041  76.8074300
  13.6861757 108.8539945  77.4755384  13.9127759 109.0427415  75.9906453
  16.1457040 108.9905189  80.5120989  15.7815247 108.4635810  81.2233911
  17.0024156 108.6003658  80.3387475  22.0506341 100.2799521  87.7752256
  21.7189665 101.1494932  87.5513471  21.4551954  99.9635805  88.4546286
  15.7862527 104.0195088  75.5082338  15.9536929 104.8875325  75.8752809
  15.5959696 104.1822370  74.5843627  18.5437860 112.4812067  87.1748168
  18.2438583 113.3837106  87.0663976  18.1988920 112.2144250  88.0269321
  11.9950342 108.9325864  83.2084873  11.0700838 108.8002078  83.4162564
  12.2434755 109.7120083  83.7054815  21.9435004 104.9994607  84.8545606
  21.0351881 104.9310016  84.5604367  21.8922600 105.4766552  85.6827431
  15.7651748 106.4752746  76.4929005  15.6451373 106.9209796  77.3314485
  15.0704336 106.8238063  75.9342543   9.3559153 108.5759138  84.0428662
   9.4851534 108.8293616  84.9568074   8.6756604 109.1686846  83.7233317
  13.5258640 119.2456387  80.1419136  13.4482670 120.1964213  80.2207617
  12.9220284 118.9002260  80.7994062  16.0175870 106.4184253  92.7980503
  15.2409204 106.9778173  92.7883368  16.6566433 106.9041036  93.3195373
  23.8096650 103.2011046  86.6323480  23.1671031 103.4943579  85.9863274
  23.3051579 103.0863966  87.4376676  21.4636814 106.9474219  77.3209339
  22.3754670 107.1801606  77.1457036  20.9546461 107.5311263  76.7584417
  14.2722242 109.2269706  92.3598470  15.0136926 109.7654750  92.0833294
  13.5659227 109.8535995  92.5170022  19.7477582 111.3698847  90.9570631
  20.1560938 110.9281257  90.2125264  19.0254843 110.7951474  91.2104824
  16.1008652 106.3071453  88.3304188  16.9469847 106.7310867  88.4738837
  16.0407289 105.6505078  89.0242751  20.0706396 111.9300037  84.7122920
  19.4415259 112.0945751  84.0098988  19.6832058 112.3441647  85.4833884
  23.9495628 112.8654475  82.0667284  23.2646666 113.2453377  81.5164317
  24.0339478 113.4749802  82.7999232  19.2508097 103.9675822  89.9885362
  19.0069029 104.7217882  89.4519638  19.5268028 104.3461169  90.8232609
  21.2046560 110.5114434  88.6662628  21.4163455 111.1546194  87.9897009
  21.1576308 109.6776751  88.1984558  18.8072789 103.1232255  85.5699200
  17.9457268 103.4213508  85.8615937  18.8335223 103.3402654  84.6380232
  15.6234358 111.6674445  81.9773005  16.0872704 111.9462148  81.1877628
  15.3591156 110.7657890  81.7946096  12.5158439 111.2145927  84.9152769
  13.0859796 111.6433195  84.2770253  13.1066551 110.9328512  85.6136954
  14.5603244 107.7897598  78.7862570  15.2627288 108.2418641  79.2536497
  14.2283873 107.1481417  79.4142464  13.0083606 106.3809354  93.1613780
  12.3782266 107.0625635  93.3949177  12.9019694 106.2692436  92.2166918
   8.3028578 106.0481150  84.0879704   7.5127632 106.3038679  83.6119815
   8.7939826 106.8629488  84.1931745  22.3192388 113.3886390  86.8384985
  23.1409831 112.9866577  86.5567667  22.3154791 113.2854624  87.7901101
  10.2543324 106.4125730  81.0463181   9.4574487 106.5244424  81.5646676
  10.0268916 106.7512382  80.1804071  16.0848991 112.9370433  88.9945695
  16.1493424 113.3990840  89.8303867  15.3759915 112.3067798  89.1228005
   6.5866281 106.3011641  86.5194695   6.8374320 107.1858651  86.7852271
   7.1225830 106.1216242  85.7469787  30.4098381 109.7325138  83.1869956
  29.6562089 109.1632536  83.0313961  30.5445922 109.6987803  84.1340591
  15.7997009 114.6038540  78.8624676  15.6642684 115.4490076  79.2909524
  16.3406821 114.8057818  78.0990610  12.2864348 100.6830120  95.5239031
  11.8931294 100.1296319  96.1986675  13.1030489 100.9940699  95.9145548
   9.2526406 112.1213978  79.4352601   9.7650927 112.9157229  79.5858165
   9.9049119 111.4240269  79.3686202  11.0621291 115.2379735  81.5175354
  11.2387919 116.1597699  81.3296338  11.8578124 114.9238154  81.9469734
  15.2032309 102.0987999  93.1159288  15.9442023 102.6995153  93.0363750
  15.4350232 101.3565637  92.5577330  10.3473647 107.2844367  91.3937517
  10.2327163 106.3829624  91.6944616   9.4918165 107.5308063  91.0422334
  17.4265485 115.2262107  92.9925018  16.9829339 114.4398486  92.6745922
  18.0882699 115.4141257  92.3268909  12.1852606 116.7557909  87.5185696
  12.7360032 116.6274972  86.7462690  11.3464082 117.0552798  87.1680589
  19.5246723 115.5064907  91.0206419  19.5065199 116.3273788  90.5286688
  20.4466643 115.3818982  91.2456560  15.9819777 113.0209036  91.8629927
  16.5148114 112.2597325  91.6329235  15.4533859 112.7282688  92.6054082
  19.1489472  98.1269102  87.3923569  18.8053742  99.0170744  87.3162680
  19.5168435  97.9370760  86.5293154   7.2175323 110.4502633  80.2112171
   8.0550545 110.8599641  79.9945879   7.3953591 109.5102075  80.1812365
  19.1139755 108.1177713  75.8996004  18.5986379 108.8882318  76.1384392
  18.8417064 107.4442850  76.5229066  16.6986866 102.9627414  80.9581243
  15.8428463 102.5734265  80.7786881  17.1113818 103.0419375  80.0981028
  18.2286013 100.4973757  85.3572802  17.7250808 100.4603893  84.5440608
  18.5216620 101.4066500  85.4169459  14.4728899 100.5812487  84.3638984
  15.3381895 100.3855296  84.0044874  14.5406408 100.3522839  85.2908341
  24.0874029 110.8710068  77.8349178  23.3103472 110.5321228  77.3904340
  24.7665510 110.8762691  77.1604143  18.9026058 105.9904806  77.7255785
  18.5976194 106.3050955  78.5765929  19.8556500 106.0686225  77.7683118
  17.3472490 112.1495029  79.3748739  16.8193852 111.4147788  79.0621977
  16.8459993 112.9269705  79.1288708  22.3265336 110.3444049  84.4915786
  21.6689011 111.0343311  84.5795914  23.1305735 110.7340481  84.8349772
  12.0791218 102.8114695  81.7355351  12.6534970 102.5889877  81.0028544
  12.6662200 102.8803390  82.4883952  21.1370795 108.6988422  82.5419728
  21.6502677 109.3318414  83.0441437  21.7872019 108.0989618  82.1763088
  12.4060805 104.8419156  75.7551236  11.5698117 105.1793843  76.0760511
  12.2665575 104.7068136  74.8178373  14.3813885  99.6855944  80.4630420
  13.7278298  99.3704961  79.8387035  14.3394360  99.0631684  81.1890243
  15.4925090 109.9675239  72.3783712  14.5852152 109.7364493  72.5774861
  15.9896122 109.1712858  72.5657694  18.3993169 118.6772746  75.2980399
  17.7254868 118.9804443  75.9065356  18.7858991 119.4801827  74.9485856
  17.6151626 106.1737878  84.7878068  16.6974187 106.3952825  84.6299756
  18.0311769 106.2484188  83.9289775  18.3986674 107.5729293  79.9180748
  19.1458493 108.0850690  79.6087870  18.6678263 107.2513346  80.7785142
  16.6713324 110.0687834  76.9007703  15.7624543 109.7846867  76.9980172
  16.7008408 110.4886913  76.0411009  21.9032591 113.6794423  80.6698870
  21.4494918 112.8385333  80.7264061  21.2726558 114.3155822  81.0073650
  20.8465511 104.6086410  81.8999538  20.1088268 104.0963796  82.2309780
  21.0992284 104.1686791  81.0882814  20.3465530 115.5170920  81.6048688
  20.6388505 116.0775977  80.8861054  20.8564151 115.8099481  82.3601847
  20.9477138  97.3862662  82.4941307  21.2536015  96.5260025  82.2067222
  21.6729743  97.9780282  82.2940301   7.2401494 107.7893348  80.8822905
   7.0425894 107.1962709  80.1573971   6.6848158 107.4845558  81.5998844
  15.2198218 107.6816455  83.0017498  15.2746828 106.7290291  82.9259975
  14.4089420 107.8375894  83.4858796  16.3689412 111.6096578  74.2395781
  15.9308842 110.8932437  73.7801418  17.1099852 111.8372692  73.6780873
  13.1590578 106.2993514  80.7607877  12.3458443 106.5987685  81.1673069
  13.6549572 105.9049203  81.4782359  15.3099156 116.2951271  82.6942141
  15.2675334 116.5212118  81.7650674  16.2261854 116.0614646  82.8427943
  18.7564789 106.7635339  89.5922771  19.1114177 106.9906812  90.4517236
  19.4036921 107.0953716  88.9700026  24.4862526 109.8853775  80.2972100
  24.3480425 110.0755371  79.3693289  24.1298745 110.6473157  80.7540151
  12.6504653 103.8711870  86.3769112  13.2904032 103.7300629  85.6792075
  11.8182183 103.5846383  86.0007714  24.5131906 111.9530302  85.3083371
  24.9468413 111.8605591  86.1566425  25.2263487 111.9287802  84.6703387
  13.4264956 113.1714300  82.4904104  14.2205555 112.6764620  82.2886679
  12.7156649 112.6432163  82.1271810  18.2459801 115.5532396  86.8416472
  18.2996823 116.1223332  87.6094188  17.3774582 115.7234281  86.4770509
   9.7347720 107.3157382  78.5663857   8.8045308 107.2541837  78.7833819
   9.8305192 106.7933335  77.7700498   9.6533269 103.8412195  81.1542099
   9.9140086 104.7557528  81.0451259  10.4750441 103.3736637  81.3038711
  11.1258194 105.2549952  88.3240923  11.7981248 105.0467314  87.6753572
  10.2987981 105.0572038  87.8846155  25.3747456 111.9954002  87.8416257
  25.5683346 112.8999813  88.0875532  25.2748074 111.5361421  88.6754842
  17.0283766 101.8811893  90.3406584  16.3811681 102.5801843  90.2471060
  17.7984782 102.3148037  90.7082832  20.4362564 112.1460745  93.4157137
  20.2848071 111.9171297  92.4987221  20.4267244 113.1031347  93.4288482
  17.2047901 109.7192658  88.4003404  18.1339961 109.8703817  88.2272371
  16.7838931 109.8076679  87.5452050  16.0036232 113.7443322  86.1701941
  15.8647318 113.3762107  87.0427879  15.2150829 114.2590962  85.9985899
  16.5984384 118.8452419  77.5127478  16.7736140 118.3740462  78.3273101
  15.9117172 119.4718185  77.7408739  17.5541448 113.1224925  83.5590779
  17.2191280 113.0825695  84.4548429  17.0545393 112.4569641  83.0861189
  11.5285692 108.5292555  89.0843360  11.3905489 107.7972794  89.6854899
  12.4390615 108.4401455  88.8027548  20.4900639 110.4680959  73.8327839
  19.8729810 109.7427787  73.7360891  20.0217128 111.2290320  73.4894913
  14.1567992 108.2412514  88.5727040  14.8667611 107.6005706  88.5313658
  14.1137300 108.4925409  89.4953221  22.1454771 115.1779868  91.4933619
  22.0867317 114.4939088  90.8264202  22.5474289 115.9198858  91.0414245
  12.8696926 105.2277732  90.3922679  12.3334283 104.7768471  91.0444276
  12.2813635 105.3623641  89.6493144  11.1645470 121.9941781  84.2867338
  11.4042068 122.6260306  84.9646357  10.3214666 121.6429821  84.5732697
  12.2799185 104.6866384  72.9549143  11.4028651 104.5655184  72.5911390
  12.7556938 103.8952462  72.7028032  22.1472178 113.1419452  89.7247599
  21.2598957 112.8045373  89.8473998  22.7170729 112.4102483  89.9616364
   3.8001325 109.4743543  83.0490650   4.4872365 109.1605273  82.4611665
   3.6449454 110.3784908  82.7757902   8.6036047 104.3633740  87.4775674
   8.5194236 103.7559409  86.7426084   7.7818754 104.8542758  87.4785170
  15.6773332 117.8020904  86.6908842  15.6043503 118.6075875  87.2028147
  15.2350725 118.0012870  85.8656863  15.4663111 117.0392674  80.2011664
  14.6830633 117.5814354  80.2949888  16.1655856 117.5566654  80.6005905
  18.7759761 102.8487303  82.8445869  19.2728461 102.0957266  82.5246939
  18.0046743 102.8851620  82.2789078  26.6289519 108.5527669  84.4864160
  26.6179395 109.4352384  84.1158094  25.7606898 108.1999220  84.2918697
  18.1372015 117.7007738  88.8467001  18.8499987 118.3355203  88.7742902
  17.6462044 117.7971604  88.0307002  19.8589542 111.6058991  80.4184292
  18.9245821 111.7260453  80.2488997  20.0366210 110.7031457  80.1544302
  15.3594730 104.9904686  82.5717554  14.9892518 104.4375727  83.2598459
  15.8553822 104.3862820  82.0192554  23.2462093 107.4476310  80.9534326
  23.7122545 108.2804302  80.8794629  23.6969594 106.9821291  81.6579585
  13.1883929 115.4502181  89.6672571  13.8893388 116.0838664  89.8201966
  12.7179044 115.7916913  88.9068211  21.3138324 113.7920131  77.9520478
  21.5898168 113.6776726  78.8614353  20.4442823 113.3937616  77.9132652
  21.2178756  99.8156897  84.9925228  20.3041836 100.0461124  85.1607435
  21.6471858  99.8995341  85.8439260  20.9885215 108.0046789  87.4925122
  20.3356665 108.2522696  86.8377575  21.3665594 107.1910927  87.1587599
  17.9492388 118.0406482  81.5953292  18.1314783 117.2228138  82.0581044
  18.7725374 118.2574174  81.1578182  18.2834554 116.9674667  78.8568341
  18.8122320 116.4567122  78.2438503  18.5462774 116.6517197  79.7213874
  17.0372788 108.7466600  93.9791159  16.3613425 108.6460729  94.6493534
  17.8600421 108.5905814  94.4427156   8.7851647 114.9838536  86.6003674
   9.3705083 114.2382224  86.7331578   8.5876485 115.2942493  87.4840338
  11.6390302 118.0189784  81.6166117  10.9700677 118.5035911  81.1330157
  11.5003172 118.2659004  82.5309495   3.3769301 107.5544137  85.3208117
   3.4153401 107.0207727  86.1145235   2.8709594 107.0279342  84.7019094
  15.7795570 120.0533527  88.2148775  16.3313878 120.2165149  88.9797860
  16.1201764 120.6437965  87.5428800  10.7560064 102.4008677  88.8170660
  10.8201390 103.2623508  88.4048057  10.6927184 101.7882679  88.0843018
  10.2312336 104.4731810  92.4643694  10.8584375 104.0908887  93.0781218
   9.3740255 104.2546012  92.8299386  20.6306445 114.8794785  94.0697429
  21.1746349 115.4924743  93.5752384  20.0493290 115.4374363  94.5864442
   7.0077879 106.2808239  78.3962049   7.3031320 105.3718917  78.3429102
   6.1065915 106.2595978  78.0743051  18.9163958 118.0015503  85.2012457
  18.7915097 117.2005243  84.6923403  19.5743049 118.4961696  84.7126427
  10.5372126 104.3564235  84.3789597   9.8158712 104.9700203  84.2397071
  11.3265382 104.8922000  84.3006243  20.9798866 115.8024523  86.8292007
  20.0329202 115.6829874  86.7570334  21.3281639 114.9147021  86.9118269
  13.3398439 101.6918662  90.6530249  13.8632841 101.9380958  91.4156558
  13.1210773 102.5238697  90.2333386   8.7365721 103.9622336  78.5201374
   8.4078427 103.0819715  78.3376480   9.0905091 103.9070005  79.4077763
  17.9845299 115.5977239  83.0296359  17.8370262 114.6693947  83.2103929
  18.8098793 115.6197330  82.5453435  11.8507544 104.2495306  78.8876852
  12.1903616 104.7781228  78.1655460  12.2979664 104.5875712  79.6635418
  21.5879421 116.4205798  84.1161232  22.5125969 116.2148659  83.9785683
  21.4194725 116.1722199  85.0250574  14.5450985 102.6332357  88.3379920
  14.2047805 101.8340170  88.7400599  13.8389991 102.9334068  87.7656753
  15.1967456  99.7181669  86.7907243  16.0193526  99.2442148  86.6686133
  15.4405520 100.4972153  87.2905929  13.8375691 102.7469928  77.0870144
  14.5584053 103.1251181  76.5833861  13.2140995 103.4658805  77.1905122
  17.9806814 103.4515077  78.0228477  18.1970428 104.3339715  77.7217305
  17.5000881 103.0601290  77.2934119  12.7206035 106.4100790  84.5999221
  12.5750616 106.7241093  85.4923503  12.2431239 107.0285690  84.0470120
  14.5802418 103.4003338  84.6480111  14.5663987 102.5044431  84.3112409
  15.2974846 103.4074002  85.2818397  16.4328549 103.8340678  86.6933238
  16.1746327 104.7557749  86.6917569  15.9013589 103.4371113  87.3833702
  21.3774737 116.9391465  79.4723324  21.5511615 116.3737888  78.7197176
  21.8703629 117.7392360  79.2902814   7.1951697 108.9506134  87.5386882
   6.6505165 109.7265942  87.6707157   8.0731047 109.2976939  87.3806004
  13.9839314 102.2817718  79.9167681  14.1055225 101.3534365  80.1158568
  13.6941356 102.2956404  79.0045996  16.8530504  99.9672629  83.0534401
  16.8752201 100.0311962  82.0986380  17.2698563  99.1277137  83.2474907
  27.2314129 109.7027888  81.0913623  27.6745275 108.9535214  80.6932747
  26.3540639 109.6938025  80.7087355  22.3649910 116.2558230  76.5720222
  23.0600815 116.8764922  76.7907536  22.7073060 115.4053581  76.8472600
   7.9817719 108.0776031  90.4317039   7.2399455 108.2258666  91.0181670
   7.6610463 108.3384296  89.5683789  24.2641333 113.7057935  78.1007553
  24.7892657 114.0445208  77.3756873  24.1763686 112.7704951  77.9170687
  15.9261382 117.6192009  90.2297429  16.2348508 117.3741156  91.1020129
  16.7236864 117.8238647  89.7416299  15.9481994 119.7729919  82.4602806
  15.5086984 119.2806297  83.1535663  16.6990111 119.2302886  82.2194881
   8.4274333 115.9641459  82.4627434   9.2532353 115.6645231  82.0826077
   8.0768385 115.1949082  82.9117223  13.3955866 115.3167928  84.5325107
  12.7735875 114.6538633  84.2327335  14.0660733 115.3429060  83.8498755
   6.6282938 113.8827786  83.4216367   5.7914846 113.4549960  83.2400369
   6.6006583 114.0760229  84.3587159  13.4680393 103.7949716  94.1257614
  13.5168549 104.6711839  93.7435383  14.0102908 103.2527109  93.5529257
  23.9535239 114.3390839  93.4058751  23.1630783 114.3214978  92.8663250
  23.7168594 114.8779133  94.1607787  24.0733114 111.1883305  90.7191479
  24.1231119 111.0233313  91.6607002  23.9647038 110.3210564  90.3289360
  12.9569373 113.8671851  78.0083568  13.1057493 114.5507315  77.3550241
  13.7635816 113.8476941  78.5233024  21.3636877 107.1714233  92.0350786
  22.2646739 107.0320698  91.7434784  21.4384851 107.3368688  92.9748963
  15.6979682 104.5481088  90.8803972  14.8282991 104.8414654  90.6086561
  15.9339162 105.1321533  91.6011236  25.5751311 113.6080247  90.9633501
  25.2836119 113.9710227  91.7996962  24.9623442 112.8947255  90.7846833
  26.7746993 111.1733127  83.4836071  27.6093885 111.6122931  83.6473631
  26.9106122 110.6971780  82.6644317  23.8238499 108.7312861  89.4313559
  24.2992621 108.9240508  88.6232410  22.9004065 108.7872047  89.1856942
  10.7122006 109.8937029  79.0144637  10.4668048 108.9899359  79.2124847
  10.8817920 109.8954179  78.0724115  18.4018716 100.7660705  88.3969393
  18.9200660 101.5021732  88.0715881  18.0473849 101.0724698  89.2316152
   9.9817653 105.6265386  76.5130798   9.2886898 105.7009741  75.8570834
   9.7369405 104.8625730  77.0352315  18.6531310  97.1860988  83.9170289
  18.9333064  96.5184177  84.5430716  19.4381917  97.3790083  83.4044953
  16.4564778 116.3619981  75.4795315  15.8838745 116.9810169  75.0265787
  17.0297572 116.9119343  76.0135237  22.5240168 105.6078622  87.6641864
  23.4757591 105.7076719  87.6854088  22.3543619 104.8156890  88.1739949
  20.5454548 102.6934205  87.8501265  19.9504480 102.9739217  87.1547754
  20.2604244 103.1828106  88.6218006  19.6762038 116.6457132  76.6103898
  20.6092711 116.5802693  76.8136773  19.5885251 117.4813398  76.1518430
  22.3050055 115.9623002  73.5707845  22.2263686 115.6282866  74.4643603
  23.1259722 116.4544770  73.5699318  25.0028246 108.8284741  86.7784164
  24.9704566 107.8900742  86.9643848  25.6128870 108.9068778  86.0449989
  16.8411577 107.6980794  72.8211368  17.7870682 107.5687002  72.8899786
  16.4625822 106.9595456  73.2980796  25.1522735 105.6195785  86.8242447
  24.6361783 104.8354241  86.6372376  26.0362683 105.2914501  86.9888967
  22.8133461  99.3636800  82.7838260  22.6158283  99.0551888  83.6681592
  23.4233167 100.0898439  82.9136190  30.8204796 109.8900748  85.9190201
  31.5508184 109.6286036  86.4797904  30.2111741 109.1529470  85.9592269
  28.9020093 108.0308611  86.5164652  28.1753257 107.8964576  85.9081143
  28.4867380 108.3385439  87.3221370  16.7250269 111.7498540  94.2812025
  17.6453279 111.9277139  94.4752071  16.6899852 110.8054586  94.1291724
  15.0254494 105.6230771  72.7566253  14.1185949 105.3263883  72.8328967
  15.3030475 105.3260589  71.8900539   5.9432434 106.9437134  83.2065300
   5.6235219 106.0902442  82.9139674   5.3965863 107.1585712  83.9623267
   9.7212342 109.6599575  86.9234806   9.9398352 110.5916683  86.9422840
  10.1338116 109.3007549  87.7089610  16.6416560 100.1667660  78.9110494
  15.8317288  99.8214745  79.2865741  17.3300977  99.8575204  79.4998106
  18.5707108  99.2445707  80.5334791  19.1238147  99.6641161  81.1924814
  18.8077194  98.3181455  80.5757747  14.5940207 105.2332781  96.3137555
  14.4936934 106.1827138  96.2449646  14.3761749 104.9051020  95.4413625
  13.7953279 102.4817706  72.8978232  14.6572443 102.8072604  73.1574050
  13.9803623 101.6949202  72.3851298   5.8120694 110.5640046  85.1758421
   5.1184166 110.1493998  84.6628376   6.5593685 110.6060582  84.5791840
  21.9485915 101.3546232  80.0413455  21.3684584 102.0131036  79.6591508
  21.6821848 100.5323577  79.6300873  20.3989482 100.7551290  82.2434776
  20.8989260 100.8667825  81.4349095  21.0425089 100.4512343  82.8835584
  14.4571477 108.6629920  95.1302617  13.9738559 109.4630280  95.3366506
  14.5432416 108.6737864  94.1770061   7.7257437 110.4958299  83.0524436
   7.7028125 110.5945987  82.1006319   8.0358073 111.3423450  83.3741602
  10.3844815 112.5534454  87.1671050  11.3388068 112.5218397  87.1000982
  10.1857338 112.0925078  87.9821276  10.9744197 111.1235570  89.7341848
  11.7937086 111.6179649  89.7576685  11.2481005 110.2067539  89.7059416
  20.7310793 103.5146323  79.0969804  19.8436648 103.7995973  78.8789998
  21.1464782 103.3540086  78.2497081  24.0825329 103.5392844  82.8124143
  24.8585719 104.0289296  83.0848760  23.3573463 103.9650898  83.2696012
  26.5197888 104.2520463  83.8698084  27.1142379 104.0116199  83.1591392
  26.5924472 103.5327593  84.4971620   8.7395044 118.0954074  84.1841248
   8.6049512 117.3354475  83.6179246   8.3227106 118.8194974  83.7170037
  19.8754007 113.2790997  73.1917824  20.5789857 113.4841000  73.8075479
  19.1516655 113.8467759  73.4566907  20.7051817 109.0300859  79.3120094
  20.6487018 109.4869410  78.4727726  21.2580159 108.2691543  79.1342937
  24.5156623 104.8190590  80.1370213  24.2593557 104.4187226  80.9678421
  23.8909491 105.5334384  80.0120352  28.8268961 107.5586664  82.6441505
  28.2668519 107.6279853  83.4173067  28.2212464 107.3827648  81.9241001
  11.8964169 118.9923391  84.3959691  11.7796554 119.9368823  84.2938381
  11.0756616 118.6896952  84.7845490  21.7840704 113.7173527  75.2416284
  22.6186308 113.2854725  75.0593758  21.6225047 113.5455540  76.1693178
  21.4386596 110.2205640  76.6072623  21.3835400 110.0549911  75.6661067
  20.8132651 110.9281673  76.7634813   6.2279111 105.4573704  90.4334045
   6.8737975 104.9472658  90.9221270   6.0196262 106.1942386  91.0077470
  18.7532503 112.5254552  95.9326186  19.6223663 112.6995204  95.5712821
  18.2739255 113.3448969  95.8101915  14.7482722  99.7213749  76.1857941
  14.7361392 100.6655589  76.3426212  15.6406144  99.5383894  75.8917403
  12.9218684 119.6451653  87.6115619  13.8245930 119.6775263  87.9282114
  12.6956054 118.7152104  87.6261955  14.6772286 118.3982639  84.2725698
  13.7267917 118.3984501  84.1590070  14.9804772 117.6515374  83.7561733
  18.5634841  96.3156525  80.4403878  17.7967237  95.7615012  80.5860561
  18.9745546  96.3878394  81.3018030  10.5676602 102.6041321  94.5309059
  11.4308064 102.2478126  94.7412384   9.9942013 102.2655216  95.2184464
  30.4124979 124.2343178  85.3371460  31.0503389 124.1149925  84.6334800
  30.2945822 125.1824022  85.3959413  27.2214685 124.1870606  85.2732985
  26.8833197 124.0711670  84.3853520  28.0904454 123.7861771  85.2533991
  23.0801501 126.0406082  81.2629876  22.5166366 125.9496019  80.4946164
  22.9653896 125.2205987  81.7432369  27.7034468 125.3405457  91.2319191
  27.6923109 124.9458256  90.3599694  27.8655108 124.6071530  91.8252962
  20.6265933 127.5357274  84.1014097  21.4187225 127.1948098  83.6860396
  20.8662583 127.6452249  85.0216250  22.5856687 126.7966187  76.9731475
  23.3587563 126.2495174  76.8344351  22.9382086 127.6610436  77.1845937
  25.3497936 125.5019418  86.7699734  25.9461509 125.2775440  86.0556697
  25.4072908 124.7604163  87.3725182  24.9222965 122.9558853  74.6049925
  25.1748485 122.4340374  73.8433388  23.9847524 122.7924999  74.7076609
  29.9666248 121.9594632  82.4124668  30.7529337 121.5414055  82.0615085
  30.2304952 122.8640724  82.5806317  30.1376325 127.3967482  77.1113325
  29.5022158 127.4702108  77.8234230  29.8073731 127.9861081  76.4332405
  35.3674675 121.8969865  83.3157647  36.0999847 121.3269082  83.5495476
  34.6114030 121.5091465  83.7564153  24.6419254 124.8586959  76.8074300
  24.5255512 124.1831862  77.4755384  24.7521513 124.3719333  75.9906453
  26.9850794 124.3197106  80.5120989  26.6209002 123.7927727  81.2233911
  27.8417910 123.9295575  80.3387475  32.8900095 115.6091439  87.7752256
  32.5583420 116.4786850  87.5513471  32.2945708 115.2927723  88.4546286
  26.6256281 119.3487006  75.5082338  26.7930684 120.2167242  75.8752809
  26.4353451 119.5114288  74.5843627  29.3831615 127.8103985  87.1748168
  29.0832338 128.7129024  87.0663976  29.0382674 127.5436168  88.0269321
  22.8344096 124.2617782  83.2084873  21.9094593 124.1293996  83.4162564
  23.0828509 125.0412001  83.7054815  32.7828758 120.3286525  84.8545606
  31.8745636 120.2601933  84.5604367  32.7316354 120.8058470  85.6827431
  26.6045502 121.8044663  76.4929005  26.4845128 122.2501714  77.3314485
  25.9098091 122.1529981  75.9342543  20.1952907 123.9051055  84.0428662
  20.3245288 124.1585534  84.9568074  19.5150358 124.4978763  83.7233317
  26.8569624 121.7476171  92.7980503  26.0802958 122.3070091  92.7883368
  27.4960187 122.2332954  93.3195373  34.6490405 118.5302963  86.6323480
  34.0064785 118.8235497  85.9863274  34.1445333 118.4155884  87.4376676
  32.3030568 122.2766137  77.3209339  33.2148425 122.5093523  77.1457036
  31.7940216 122.8603181  76.7584417  25.1115997 124.5561624  92.3598470
  25.8530681 125.0946668  92.0833294  24.4052982 125.1827913  92.5170022
  30.5871336 126.6990764  90.9570631  30.9954692 126.2573175  90.2125264
  29.8648598 126.1243392  91.2104824  26.9402406 121.6363371  88.3304188
  27.7863601 122.0602785  88.4738837  26.8801044 120.9796995  89.0242751
  30.9100151 127.2591955  84.7122920  30.2809013 127.4237669  84.0098988
  30.5225813 127.6733565  85.4833884  34.7889383 128.1946393  82.0667284
  34.1040421 128.5745294  81.5164317  34.8733232 128.8041720  82.7999232
  30.0901852 119.2967740  89.9885362  29.8462783 120.0509800  89.4519638
  30.3661782 119.6753087  90.8232609  32.0440314 125.8406352  88.6662628
  32.2557210 126.4838112  87.9897009  31.9970063 125.0068668  88.1984558
  29.6466543 118.4524173  85.5699200  28.7851022 118.7505426  85.8615937
  29.6728978 118.6694571  84.6380232  26.4628113 126.9966363  81.9773005
  26.9266458 127.2754066  81.1877628  26.1984911 126.0949808  81.7946096
  23.3552194 126.5437845  84.9152769  23.9253551 126.9725113  84.2770253
  23.9460306 126.2620429  85.6136954  25.3996999 123.1189515  78.7862570
  26.1021042 123.5710559  79.2536497  25.0677627 122.4773334  79.4142464
  23.8477360 121.7101272  93.1613780  23.2176021 122.3917553  93.3949177
  23.7413448 121.5984354  92.2166918  19.1422333 121.3773068  84.0879704
  18.3521387 121.6330597  83.6119815  19.6333580 122.1921406  84.1931745
  33.1586142 128.7178307  86.8384985  33.9803586 128.3158495  86.5567667
  33.1548545 128.6146541  87.7901101  21.0937078 121.7417647  81.0463181
  20.2968241 121.8536342  81.5646676  20.8662670 122.0804300  80.1804071
  26.9242746 128.2662351  88.9945695  26.9887178 128.7282758  89.8303867
  26.2153670 127.6359716  89.1228005  17.4260036 121.6303559  86.5194695
  17.6768074 122.5150569  86.7852271  17.9619584 121.4508160  85.7469787
  41.2492135 125.0617056  83.1869956  40.4955844 124.4924454  83.0313961
  41.3839677 125.0279720  84.1340591  23.1258103 116.0122038  95.5239031
  22.7325049 115.4588237  96.1986675  23.9424243 116.3232616  95.9145548
  26.0426064 117.4279917  93.1159288  26.7835777 118.0287070  93.0363750
  26.2743987 116.6857555  92.5577330  21.1867402 122.6136284  91.3937517
  21.0720917 121.7121542  91.6944616  20.3311920 122.8599981  91.0422334
  26.8213532 128.3500954  91.8629927  27.3541869 127.5889242  91.6329235
  26.2927613 128.0574606  92.6054082  29.9883227 113.4561020  87.3923569
  29.6447496 114.3462662  87.3162680  30.3562190 113.2662678  86.5293154
  18.0569078 125.7794550  80.2112171  18.8944300 126.1891559  79.9945879
  18.2347345 124.8393993  80.1812365  29.9533510 123.4469631  75.8996004
  29.4380133 124.2174236  76.1384392  29.6810818 122.7734767  76.5229066
  27.5380621 118.2919332  80.9581243  26.6822217 117.9026182  80.7786881
  27.9507572 118.3711293  80.0981028  29.0679767 115.8265675  85.3572802
  28.5644563 115.7895810  84.5440608  29.3610374 116.7358418  85.4169459
  25.3122653 115.9104405  84.3638984  26.1775650 115.7147214  84.0044874
  25.3800162 115.6814757  85.2908341  34.9267784 126.2001986  77.8349178
  34.1497227 125.8613145  77.3904340  35.6059265 126.2054609  77.1604143
  29.7419813 121.3196723  77.7255785  29.4369948 121.6342872  78.5765929
  30.6950255 121.3978143  77.7683118  28.1866245 127.4786947  79.3748739
  27.6587606 126.7439706  79.0621977  27.6853747 128.2561623  79.1288708
  33.1659091 125.6735967  84.4915786  32.5082765 126.3635228  84.5795914
  33.9699490 126.0632399  84.8349772  22.9184972 118.1406613  81.7355351
  23.4928724 117.9181794  81.0028544  23.5055955 118.2095307  82.4883952
  31.9764549 124.0280340  82.5419728  32.4896431 124.6610332  83.0441437
  32.6265773 123.4281535  82.1763088  23.2454559 120.1711074  75.7551236
  22.4091872 120.5085760  76.0760511  23.1059329 120.0360054  74.8178373
  25.2207640 115.0147862  80.4630420  24.5672052 114.6996879  79.8387035
  25.1788114 114.3923602  81.1890243  26.3318845 125.2967157  72.3783712
  25.4245907 125.0656410  72.5774861  26.8289877 124.5004776  72.5657694
  28.4545380 121.5029795  84.7878068  27.5367942 121.7244742  84.6299756
  28.8705524 121.5776106  83.9289775  29.2380428 122.9021211  79.9180748
  29.9852247 123.4142608  79.6087870  29.5072018 122.5805264  80.7785142
  27.5107078 125.3979752  76.9007703  26.6018298 125.1138784  76.9980172
  27.5402162 125.8178830  76.0411009  32.7426346 129.0086341  80.6698870
  32.2888673 128.1677251  80.7264061  32.1120312 129.6447740  81.0073650
  31.6859265 119.9378327  81.8999538  30.9482022 119.4255713  82.2309780
  31.9386039 119.4978709  81.0882814  31.1859285 130.8462838  81.6048688
  31.4782259 131.4067895  80.8861054  31.6957905 131.1391399  82.3601847
  31.7870893 112.7154579  82.4941307  32.0929769 111.8551943  82.2067222
  32.5123497 113.3072199  82.2940301  18.0795249 123.1185266  80.8822905
  17.8819648 122.5254626  80.1573971  17.5241913 122.8137476  81.5998844
  26.0591972 123.0108372  83.0017498  26.1140582 122.0582209  82.9259975
  25.2483174 123.1667811  83.4858796  27.2083166 126.9388495  74.2395781
  26.7702596 126.2224354  73.7801418  27.9493607 127.1664610  73.6780873
  23.9984332 121.6285432  80.7607877  23.1852198 121.9279603  81.1673069
  24.4943326 121.2341121  81.4782359  29.5958544 122.0927256  89.5922771
  29.9507932 122.3198730  90.4517236  30.2430675 122.4245633  88.9700026
  35.3256281 125.2145692  80.2972100  35.1874179 125.4047288  79.3693289
  34.9692500 125.9765075  80.7540151  23.4898407 119.2003788  86.3769112
  24.1297786 119.0592547  85.6792075  22.6575938 118.9138301  86.0007714
  35.3525660 127.2822219  85.3083371  35.7862167 127.1897508  86.1566425
  36.0657241 127.2579720  84.6703387  24.2658711 128.5006218  82.4904104
  25.0599309 128.0056538  82.2886679  23.5550403 127.9724081  82.1271810
  20.5741474 122.6449300  78.5663857  19.6439062 122.5833755  78.7833819
  20.6698946 122.1225252  77.7700498  20.4927023 119.1704113  81.1542099
  20.7533841 120.0849446  81.0451259  21.3144196 118.7028555  81.3038711
  21.9651949 120.5841870  88.3240923  22.6375002 120.3759232  87.6753572
  21.1381735 120.3863956  87.8846155  36.2141210 127.3245920  87.8416257
  36.4077100 128.2291731  88.0875532  36.1141828 126.8653339  88.6754842
  27.8677521 117.2103811  90.3406584  27.2205436 117.9093760  90.2471060
  28.6378536 117.6439955  90.7082832  31.2756319 127.4752663  93.4157137
  31.1241825 127.2463214  92.4987221  31.2660998 128.4323264  93.4288482
  28.0441655 125.0484576  88.4003404  28.9733715 125.1995735  88.2272371
  27.6232685 125.1368596  87.5452050  28.3935202 128.4516843  83.5590779
  28.0585035 128.4117613  84.4548429  27.8939148 127.7861559  83.0861189
  22.3679446 123.8584473  89.0843360  22.2299244 123.1264711  89.6854899
  23.2784369 123.7693373  88.8027548  31.3294394 125.7972877  73.8327839
  30.7123564 125.0719705  73.7360891  30.8610882 126.5582237  73.4894913
  24.9961747 123.5704432  88.5727040  25.7061365 122.9297624  88.5313658
  24.9531055 123.8217327  89.4953221  32.9848525 130.5071785  91.4933619
  32.9261072 129.8231005  90.8264202  33.3868044 131.2490775  91.0414245
  23.7090681 120.5569650  90.3922679  23.1728038 120.1060388  91.0444276
  23.1207389 120.6915559  89.6493144  23.1192940 120.0158301  72.9549143
  22.2422406 119.8947102  72.5911390  23.5950693 119.2244380  72.7028032
  32.9865933 128.4711369  89.7247599  32.0992711 128.1337291  89.8473998
  33.5564484 127.7394400  89.9616364  19.4429802 119.6925658  87.4775674
  19.3587991 119.0851327  86.7426084  18.6212508 120.1834676  87.4785170
  29.6153516 118.1779221  82.8445869  30.1122215 117.4249183  82.5246939
  28.8440497 118.2143538  82.2789078  37.4683273 123.8819587  84.4864160
  37.4573149 124.7644302  84.1158094  36.6000653 123.5291137  84.2918697
  30.6983296 126.9350908  80.4184292  29.7639575 127.0552371  80.2488997
  30.8759965 126.0323375  80.1544302  26.1988484 120.3196604  82.5717554
  25.8286272 119.7667644  83.2598459  26.6947577 119.7154738  82.0192554
  34.0855848 122.7768228  80.9534326  34.5516300 123.6096219  80.8794629
  34.5363348 122.3113209  81.6579585  32.1532079 129.1212049  77.9520478
  32.4291923 129.0068643  78.8614353  31.2836578 128.7229534  77.9132652
  32.0572511 115.1448815  84.9925228  31.1435590 115.3753041  85.1607435
  32.4865612 115.2287259  85.8439260  31.8278969 123.3338707  87.4925122
  31.1750419 123.5814614  86.8377575  32.2059349 122.5202845  87.1587599
  27.8766542 124.0758518  93.9791159  27.2007179 123.9752647  94.6493534
  28.6994176 123.9197731  94.4427156  14.2163056 122.8836054  85.3208117
  14.2547155 122.3499645  86.1145235  13.7103349 122.3571260  84.7019094
  21.5953818 117.7300595  88.8170660  21.6595145 118.5915426  88.4048057
  21.5320938 117.1174597  88.0843018  21.0706091 119.8023727  92.4643694
  21.6978129 119.4200805  93.0781218  20.2134010 119.5837929  92.8299386
  31.4700199 130.2086703  94.0697429  32.0140103 130.8216661  93.5752384
  30.8887044 130.7666281  94.5864442  17.8471633 121.6100157  78.3962049
  18.1425075 120.7010835  78.3429102  16.9459669 121.5887896  78.0743051
  21.3765880 119.6856153  84.3789597  20.6552466 120.2992121  84.2397071
  22.1659136 120.2213918  84.3006243  31.8192621 131.1316441  86.8292007
  30.8722956 131.0121792  86.7570334  32.1675394 130.2438939  86.9118269
  24.1792194 117.0210580  90.6530249  24.7026596 117.2672876  91.4156558
  23.9604527 117.8530614  90.2333386  19.5759475 119.2914254  78.5201374
  19.2472181 118.4111633  78.3376480  19.9298846 119.2361923  79.4077763
  22.6901298 119.5787224  78.8876852  23.0297371 120.1073145  78.1655460
  23.1373419 119.9167630  79.6635418  32.4273176 131.7497716  84.1161232
  33.3519723 131.5440577  83.9785683  32.2588479 131.5014117  85.0250574
  25.3844739 117.9624275  88.3379920  25.0441559 117.1632088  88.7400599
  24.6783745 118.2625986  87.7656753  26.0361211 115.0473587  86.7907243
  26.8587280 114.5734065  86.6686133  26.2799274 115.8264071  87.2905929
  24.6769445 118.0761846  77.0870144  25.3977808 118.4543098  76.5833861
  24.0534749 118.7950722  77.1905122  28.8200568 118.7806995  78.0228477
  29.0364183 119.6631632  77.7217305  28.3394635 118.3893208  77.2934119
  23.5599790 121.7392708  84.5999221  23.4144370 122.0533011  85.4923503
  23.0824993 122.3577608  84.0470120  25.4196172 118.7295256  84.6480111
  25.4057741 117.8336349  84.3112409  26.1368601 118.7365919  85.2818397
  27.2722303 119.1632596  86.6933238  27.0140081 120.0849667  86.6917569
  26.7407344 118.7663030  87.3833702  18.0345452 124.2798052  87.5386882
  17.4898920 125.0557860  87.6707157  18.9124802 124.6268857  87.3806004
  24.8233068 117.6109636  79.9167681  24.9448980 116.6826282  80.1158568
  24.5335111 117.6248322  79.0045996  27.6924259 115.2964546  83.0534401
  27.7145956 115.3603880  82.0986380  28.1092318 114.4569055  83.2474907
  38.0707883 125.0319806  81.0913623  38.5139029 124.2827131  80.6932747
  37.1934393 125.0229942  80.7087355  33.2043664 131.5850147  76.5720222
  33.8994569 132.2056840  76.7907536  33.5466815 130.7345499  76.8472600
  18.8211474 123.4067948  90.4317039  18.0793210 123.5550584  91.0181670
  18.5004218 123.6676214  89.5683789  35.1035088 129.0349853  78.1007553
  35.6286412 129.3737126  77.3756873  35.0157440 128.0996868  77.9170687
  24.3074148 119.1241633  94.1257614  24.3562303 120.0003756  93.7435383
  24.8496662 118.5819026  93.5529257  34.7928994 129.6682757  93.4058751
  34.0024537 129.6506895  92.8663250  34.5562348 130.2071050  94.1607787
  34.9126869 126.5175223  90.7191479  34.9624874 126.3525230  91.6607002
  34.8040792 125.6502482  90.3289360  32.2030631 122.5006151  92.0350786
  33.1040494 122.3612616  91.7434784  32.2778606 122.6660606  92.9748963
  26.5373436 119.8773006  90.8803972  25.6676746 120.1706572  90.6086561
  26.7732917 120.4613451  91.6011236  36.4145065 128.9372165  90.9633501
  36.1229874 129.3002145  91.7996962  35.8017197 128.2239173  90.7846833
  37.6140748 126.5025044  83.4836071  38.4487639 126.9414848  83.6473631
  37.7499877 126.0263698  82.6644317  34.6632254 124.0604779  89.4313559
  35.1386375 124.2532425  88.6232410  33.7397819 124.1163965  89.1856942
  21.5515760 125.2228946  79.0144637  21.3061802 124.3191276  79.2124847
  21.7211675 125.2246097  78.0724115  29.2412470 116.0952623  88.3969393
  29.7594414 116.8313650  88.0715881  28.8867603 116.4016616  89.2316152
  20.8211408 120.9557304  76.5130798  20.1280653 121.0301659  75.8570834
  20.5763160 120.1917648  77.0352315  29.4925064 112.5152905  83.9170289
  29.7726818 111.8476094  84.5430716  30.2775671 112.7082001  83.4044953
  33.3633923 120.9370539  87.6641864  34.3151346 121.0368637  87.6854088
  33.1937373 120.1448808  88.1739949  31.3848302 118.0226122  87.8501265
  30.7898234 118.3031135  87.1547754  31.0997999 118.5120023  88.6218006
  33.1443809 131.2914920  73.5707845  33.0657441 130.9574783  74.4643603
  33.9653476 131.7836688  73.5699318  35.8422001 124.1576659  86.7784164
  35.8098321 123.2192660  86.9643848  36.4522624 124.2360696  86.0449989
  27.6805331 123.0272712  72.8211368  28.6264436 122.8978920  72.8899786
  27.3019576 122.2887374  73.2980796  35.9916489 120.9487702  86.8242447
  35.4755538 120.1646159  86.6372376  36.8756438 120.6206419  86.9888967
  33.6527216 114.6928718  82.7838260  33.4552037 114.3843806  83.6681592
  34.2626922 115.4190357  82.9136190  41.6598550 125.2192666  85.9190201
  42.3901939 124.9577954  86.4797904  41.0505496 124.4821388  85.9592269
  39.7413847 123.3600528  86.5164652  39.0147011 123.2256493  85.9081143
  39.3261134 123.6677357  87.3221370  27.5644024 127.0790458  94.2812025
  28.4847033 127.2569057  94.4752071  27.5293607 126.1346503  94.1291724
  25.8648249 120.9522688  72.7566253  24.9579704 120.6555801  72.8328967
  26.1424230 120.6552506  71.8900539  16.7826189 122.2729052  83.2065300
  16.4628973 121.4194360  82.9139674  16.2359617 122.4877630  83.9623267
  20.5606096 124.9891493  86.9234806  20.7792106 125.9208601  86.9422840
  20.9731870 124.6299467  87.7089610  27.4810314 115.4959578  78.9110494
  26.6711043 115.1506663  79.2865741  28.1694731 115.1867122  79.4998106
  29.4100863 114.5737625  80.5334791  29.9631901 114.9933078  81.1924814
  29.6470949 113.6473373  80.5757747  25.4333962 120.5624698  96.3137555
  25.3330689 121.5119055  96.2449646  25.2155504 120.2342937  95.4413625
  24.6347033 117.8109624  72.8978232  25.4966197 118.1364522  73.1574050
  24.8197377 117.0241119  72.3851298  16.6514449 125.8931963  85.1758421
  15.9577920 125.4785916  84.6628376  17.3987440 125.9352500  84.5791840
  32.7879670 116.6838150  80.0413455  32.2078339 117.3422954  79.6591508
  32.5215602 115.8615495  79.6300873  31.2383236 116.0843208  82.2434776
  31.7383014 116.1959742  81.4349095  31.8818844 115.7804261  82.8835584
  25.2965232 123.9921837  95.1302617  24.8132314 124.7922197  95.3366506
  25.3826171 124.0029782  94.1770061  18.5651191 125.8250217  83.0524436
  18.5421880 125.9237904  82.1006319  18.8751828 126.6715368  83.3741602
  21.8137951 126.4527488  89.7341848  22.6330840 126.9471567  89.7576685
  22.0874759 125.5359456  89.7059416  31.5704548 118.8438240  79.0969804
  30.6830403 119.1287891  78.8789998  31.9858537 118.6832004  78.2497081
  34.9219084 118.8684761  82.8124143  35.6979474 119.3581214  83.0848760
  34.1967218 119.2942816  83.2696012  37.3591642 119.5812381  83.8698084
  37.9536133 119.3408117  83.1591392  37.4318226 118.8619511  84.4971620
  30.7147761 128.6082915  73.1917824  31.4183611 128.8132918  73.8075479
  29.9910410 129.1759677  73.4566907  31.5445571 124.3592776  79.3120094
  31.4880773 124.8161328  78.4727726  32.0973914 123.5983461  79.1342937
  35.3550377 120.1482508  80.1370213  35.0987312 119.7479144  80.9678421
  34.7303245 120.8626302  80.0120352  39.6662715 122.8878581  82.6441505
  39.1062273 122.9571771  83.4173067  39.0606219 122.7119566  81.9241001
  32.6234459 129.0465444  75.2416284  33.4580062 128.6146643  75.0593758
  32.4618801 128.8747458  76.1693178  32.2780351 125.5497558  76.6072623
  32.2229155 125.3841829  75.6661067  31.6526406 126.2573590  76.7634813
  17.0672866 120.7865622  90.4334045  17.7131729 120.2764576  90.9221270
  16.8590017 121.5234304  91.0077470  29.5926258 127.8546469  95.9326186
  30.4617418 128.0287122  95.5712821  29.1133009 128.6740886  95.8101915
  25.5876476 115.0505667  76.1857941  25.5755146 115.9947506  76.3426212
  26.4799898 114.8675812  75.8917403  29.4028596 111.6448443  80.4403878
  28.6360991 111.0906930  80.5860561  29.8139301 111.7170312  81.3018030
  21.4070357 117.9333239  94.5309059  22.2701818 117.5770044  94.7412384
  20.8335767 117.5947134  95.2184464  43.7293850 130.9383356  87.7752256
  43.3977174 131.8078767  87.5513471  43.1339463 130.6219640  88.4546286
  45.4884159 133.8594881  86.6323480  44.8458540 134.1527414  85.9863274
  44.9839088 133.7447801  87.4376676  40.4860298 133.7816090  85.5699200
  39.6244777 134.0797344  85.8615937  40.5122732 133.9986489  84.6380232
  33.9651857 131.3413956  95.5239031  33.5718803 130.7880154  96.1986675
  34.7817998 131.6524534  95.9145548  36.8819818 132.7571835  93.1159288
  37.6229532 133.3578988  93.0363750  37.1137741 132.0149473  92.5577330
  40.8276981 128.7852938  87.3923569  40.4841251 129.6754579  87.3162680
  41.1955944 128.5954595  86.5293154  38.3774375 133.6211250  80.9581243
  37.5215971 133.2318100  80.7786881  38.7901327 133.7003210  80.0981028
  39.9073522 131.1557593  85.3572802  39.4038317 131.1187728  84.5440608
  40.2004129 132.0650336  85.4169459  36.1516408 131.2396323  84.3638984
  37.0169404 131.0439131  84.0044874  36.2193917 131.0106674  85.2908341
  36.0601394 130.3439779  80.4630420  35.4065807 130.0288797  79.8387035
  36.0181869 129.7215520  81.1890243  42.5253020 135.2670245  81.8999538
  41.7875777 134.7547631  82.2309780  42.7779793 134.8270626  81.0882814
  42.6264647 128.0446497  82.4941307  42.9323524 127.1843860  82.2067222
  43.3517252 128.6364117  82.2940301  38.7071275 132.5395728  90.3406584
  38.0599190 133.2385678  90.2471060  39.4772291 132.9731872  90.7082832
  40.4547270 133.5071139  82.8445869  40.9515970 132.7541101  82.5246939
  39.6834252 133.5435455  82.2789078  42.8966265 130.4740732  84.9925228
  41.9829345 130.7044959  85.1607435  43.3259366 130.5579176  85.8439260
  36.8754965 130.3765505  86.7907243  37.6981035 129.9025983  86.6686133
  37.1193029 131.1555989  87.2905929  38.5318013 130.6256464  83.0534401
  38.5539710 130.6895797  82.0986380  38.9486072 129.7860973  83.2474907
  40.0806225 131.4244540  88.3969393  40.5988169 132.1605567  88.0715881
  39.7261357 131.7308534  89.2316152  40.3318819 127.8444823  83.9170289
  40.6120573 127.1768012  84.5430716  41.1169426 128.0373919  83.4044953
  42.2242057 133.3518040  87.8501265  41.6291989 133.6323053  87.1547754
  41.9391753 133.8411941  88.6218006  46.8310244 136.2779620  86.8242447
  46.3149292 135.4938077  86.6372376  47.7150192 135.9498337  86.9888967
  44.4920970 130.0220636  82.7838260  44.2945792 129.7135724  83.6681592
  45.1020676 130.7482275  82.9136190  38.3204069 130.8251496  78.9110494
  37.5104797 130.4798581  79.2865741  39.0088486 130.5159039  79.4998106
  40.2494617 129.9029542  80.5334791  40.8025656 130.3224996  81.1924814
  40.4864703 128.9765291  80.5757747  43.6273424 132.0130068  80.0413455
  43.0472093 132.6714872  79.6591508  43.3609357 131.1907412  79.6300873
  42.0776991 131.4135125  82.2434776  42.5776769 131.5251660  81.4349095
  42.7212598 131.1096178  82.8835584  42.4098302 134.1730158  79.0969804
  41.5224157 134.4579809  78.8789998  42.8252291 134.0123921  78.2497081
  45.7612838 134.1976679  82.8124143  46.5373228 134.6873131  83.0848760
  45.0360972 134.6234733  83.2696012  48.1985397 134.9104298  83.8698084
  48.7929888 134.6700034  83.1591392  48.2711981 134.1911429  84.4971620
  46.1944132 135.4774426  80.1370213  45.9381066 135.0771061  80.9678421
  45.5697000 136.1918220  80.0120352  36.4270231 130.3797584  76.1857941
  36.4148900 131.3239424  76.3426212  37.3193653 130.1967730  75.8917403
  40.2422350 126.9740361  80.4403878  39.4754746 126.4198848  80.5860561
  40.6533055 127.0462230  81.3018030   2.8493413  52.9156234  70.0402954
   3.5818584  52.3455451  70.2740783   2.0932768  52.5277835  70.4809459
   2.1309143  49.5489333  73.3568786   1.4883523  49.8421866  72.7108581
   1.6264071  49.4342253  74.1621983   2.2708120  59.2132762  68.7912591
   1.5859159  59.5931664  68.2409624   2.3551970  59.8228089  69.5244538
   0.6404880  59.7364677  73.5630292   1.4622324  59.3344864  73.2812973
   0.6367283  59.6332911  74.5146407   8.7310873  56.0803425  69.9115263
   7.9774581  55.5110823  69.7559267   8.8658414  56.0466090  70.8585898
   2.4086522  57.2188355  64.5594484   1.6315964  56.8799515  64.1149646
   3.0878003  57.2240978  63.8849449   2.8075019  56.2332062  67.0217406
   2.6692917  56.4233658  66.0938596   2.4511237  56.9951445  67.4785457
   2.8344398  58.3008589  72.0328678   3.2680905  58.2083878  72.8811732
   3.5475979  58.2766089  71.3948694   3.6959948  58.3432290  74.5661563
   3.8895838  59.2478100  74.8120838   3.5960566  57.8839709  75.4000148
   4.9502011  54.9005956  71.2109467   4.9391887  55.7830672  70.8403400
   4.0819390  54.5477507  71.0164004   1.5674586  53.7954597  67.6779633
   2.0335038  54.6282589  67.6039936   2.0182086  53.3299579  68.3824892
   5.5526621  56.0506176  67.8158930   5.9957767  55.3013501  67.4178053
   4.6753131  56.0416312  67.4332662   0.6862402  62.6036517  63.2965528
   1.3813307  63.2243210  63.5152843   1.0285552  61.7531868  63.5717906
   2.5853825  60.0536223  64.8252859   3.1105149  60.3923495  64.1002179
   2.4976178  59.1183238  64.6415994   2.2747731  60.6869126  80.1304057
   1.4843275  60.6693265  79.5908557   2.0381086  61.2257420  80.8853094
   2.3945606  57.5361593  77.4436786   2.4443611  57.3711600  78.3852309
   2.2859530  56.6688852  77.0534667   3.8963803  59.9558534  77.6878807
   3.6048612  60.3188515  78.5242268   3.2835935  59.2425542  77.5092139
   5.0959486  57.5211414  70.2081378   5.9306377  57.9601218  70.3718938
   5.2318614  57.0450067  69.3889623   2.1450992  55.0791149  76.1558865
   2.6205113  55.2718795  75.3477717   1.2216557  55.1350335  75.9102249
   0.8452661  51.9556909  74.3887171   1.7970083  52.0555006  74.4099395
   0.6756111  51.1635177  74.8985255   0.6262547  62.3101289  60.2953152
   0.5476179  61.9761153  61.1888910   1.4472214  62.8023057  60.2944624
   3.3240738  55.1763029  73.5029471   3.2917058  54.2379029  73.6889154
   3.9341362  55.2547065  72.7695295   3.4735227  51.9674072  73.5487754
   2.9574275  51.1832529  73.3617683   4.3575175  51.6392789  73.7134273
   1.1345954  45.7115088  69.5083566   0.9370775  45.4030176  70.3926898
   1.7445659  46.4376726  69.6381496   9.1417288  56.2379035  72.6435507
   9.8720677  55.9764323  73.2043211   8.5324234  55.5007757  72.6837575
   7.2232585  54.3786898  73.2409959   6.4965749  54.2442863  72.6326450
   6.8079872  54.6863727  74.0466677   2.4037822  49.8871131  69.5369450
   3.1798212  50.3767583  69.8094066   1.6785956  50.3129185  69.9941319
   4.8410380  50.5998750  70.5943390   5.4354871  50.3594486  69.8836698
   4.9136964  49.8805881  71.2216926   2.8369115  51.1668878  66.8615520
   2.5806049  50.7665513  67.6923728   2.2121983  51.8812672  66.7365659
   7.1481453  53.9064951  69.3686811   6.5881011  53.9758140  70.1418373
   6.5424956  53.7305936  68.6486308   8.7337471  70.5821465  72.0616767
   9.3715881  70.4628212  71.3580107   8.6158314  71.5302309  72.1204719
   5.5427178  70.5348893  71.9978292   5.2045689  70.4189958  71.1098827
   6.4116946  70.1340058  71.9779298   1.4013993  72.3884369  67.9875183
   0.8378859  72.2974306  67.2191470   1.2866388  71.5684274  68.4677675
   6.0246961  71.6883745  77.9564497   6.0135601  71.2936543  77.0845001
   6.1867600  70.9549817  78.5498269   6.9813552  76.0555337  63.2989648
   6.3301532  76.6409418  62.9123661   7.7757915  76.5861532  63.3584685
   0.9069179  73.1444474  63.6976782   1.6800055  72.5973461  63.5589658
   1.2594578  74.0088724  63.9091243   2.7454222  74.4720857  76.9043681
   2.4544088  75.3766487  76.7890348   3.3811206  74.5137384  77.6187751
   3.6710429  71.8497705  73.4945041   4.2674001  71.6253727  72.7802004
   3.7285400  71.1082451  74.0970489   3.2435457  69.3037140  61.3295232
   3.4960978  68.7818662  60.5678695   2.3060016  69.1403286  61.4321915
   8.2878740  68.3072919  69.1369975   9.0741829  67.8892342  68.7860392
   8.5517444  69.2119011  69.3051623   8.4588817  73.7445769  63.8358632
   7.8234650  73.8180396  64.5479537   8.1286224  74.3339368  63.1577711
  13.6887167  68.2448152  70.0402954  14.4212339  67.6747369  70.2740783
  12.9326523  67.8569752  70.4809459   2.9631746  71.2065246  63.5319607
   2.8468004  70.5310150  64.2000691   3.0734006  70.7197620  62.7151760
   5.3063287  70.6675393  67.2366296   4.9421494  70.1406014  67.9479218
   6.1630403  70.2773863  67.0632781  11.2112587  61.9569726  74.4997562
  10.8795912  62.8265137  74.2758777  10.6158201  61.6406010  75.1791593
   4.9468774  65.6965293  62.2327645   5.1143176  66.5645530  62.5998116
   4.7565943  65.8592575  61.3088934   7.7044107  74.1582272  73.8993475
   7.4044830  75.0607311  73.7909282   7.3595166  73.8914455  74.7514628
  11.1041251  66.6764812  71.5790912  10.1958128  66.6080221  71.2849673
  11.0528846  67.1536757  72.4072738   4.9257995  68.1522951  63.2174311
   4.8057620  68.5980001  64.0559792   4.2310583  68.5008268  62.6587850
   2.6864887  80.9226592  66.8664443   2.6088916  81.8734417  66.9452923
   2.0826530  80.5772465  67.5239369   5.1782116  68.0954458  79.5225810
   4.4015451  68.6548378  79.5128674   5.8172680  68.5811241  80.0440680
  12.9702897  64.8781251  73.3568786  12.3277277  65.1713784  72.7108581
  12.4657826  64.7634171  74.1621983  10.6243061  68.6244424  64.0454645
  11.5360917  68.8571811  63.8702343  10.1152708  69.2081468  63.4829724
   3.4328489  70.9039911  79.0843777   4.1743173  71.4424955  78.8078600
   2.7265474  71.5306200  79.2415328   8.9083828  73.0469052  77.6815938
   9.3167184  72.6051462  76.9370570   8.1861090  72.4721679  77.9350131
   5.2614898  67.9841658  75.0549495   6.1076094  68.4081072  75.1984144
   5.2013536  67.3275283  75.7488058   9.2312643  73.6070242  71.4368227
   8.6021506  73.7715956  70.7344295   8.8438305  74.0211852  72.2079191
  13.1101875  74.5424680  68.7912591  12.4252913  74.9223581  68.2409624
  13.1945724  75.1520007  69.5244538   8.4114344  65.6446027  76.7130669
   8.1675276  66.3988087  76.1764944   8.6874274  66.0231374  77.5477916
  10.3652807  72.1884639  75.3907934  10.5769702  72.8316399  74.7142315
  10.3182555  71.3546956  74.9229864   7.9679036  64.8002460  72.2944506
   7.1063515  65.0983713  72.5861244   7.9941470  65.0172859  71.3625539
   4.7840605  73.3444650  68.7018312   5.2478950  73.6232353  67.9122934
   4.5197403  72.4428095  68.5191403   1.6764686  72.8916132  71.6398075
   2.2466043  73.3203400  71.0015560   2.2672798  72.6098717  72.3382261
   3.7209491  69.4667803  65.5107877   4.4233534  69.9188846  65.9781803
   3.3890119  68.8251622  66.1387770   2.1689853  68.0579559  79.8859087
   1.5388513  68.7395840  80.1194483   2.0625940  67.9462641  78.9412225
  11.4798635  75.0656595  73.5630292  12.3016078  74.6636782  73.2812973
  11.4761037  74.9624829  74.5146407   5.2455238  74.6140638  75.7191002
   5.3099670  75.0761045  76.5549174   4.5366162  73.9838003  75.8473312
  19.5704628  71.4095343  69.9115263  18.8168336  70.8402741  69.7559267
  19.7052169  71.3758008  70.8585898   4.9603256  76.2808745  65.5869982
   4.8248930  77.1260281  66.0154830   5.5013068  76.4828023  64.8235916
   1.4470595  62.3600325  82.2484338   1.0537541  61.8066524  82.9231982
   2.2636736  62.6710904  82.6390855   4.3638556  63.7758204  79.8404594
   5.1048270  64.3765357  79.7609057   4.5956479  63.0335842  79.2822637
   6.5871732  76.9032312  79.7170324   6.1435586  76.1168690  79.3991229
   7.2488946  77.0911462  79.0514215   1.3458853  78.4328113  74.2431003
   1.8966278  78.3045177  73.4707997   0.5070329  78.7323002  73.8925896
   8.6852970  77.1835112  77.7451726   8.6671445  78.0043993  77.2531995
   9.6072890  77.0589187  77.9701867   5.1426024  74.6979241  78.5875234
   5.6754361  73.9367529  78.3574542   4.6140105  74.4052893  79.3299389
   8.3095719  59.8039307  74.1168876   7.9659989  60.6940949  74.0407986
   8.6774682  59.6140965  73.2538461   8.2746002  69.7947918  62.6241311
   7.7592625  70.5652523  62.8629698   8.0023310  69.1213055  63.2474372
   5.8593113  64.6397619  67.6826549   5.0034709  64.2504470  67.5032188
   6.2720065  64.7189580  66.8226335   7.3892260  62.1743962  72.0818109
   6.8857055  62.1374098  71.2685914   7.6822866  63.0836705  72.1414766
   3.6335145  62.2582692  71.0884291   4.4988142  62.0625501  70.7290180
   3.7012654  62.0293044  72.0153648  13.2480276  72.5480273  64.5594484
  12.4709719  72.2091432  64.1149646  13.9271757  72.5532896  63.8849449
   8.0632305  67.6675010  64.4501092   7.7582441  67.9821160  65.3011235
   9.0162747  67.7456430  64.4928425   6.5078737  73.8265234  66.0994046
   5.9800099  73.0917993  65.7867284   6.0066240  74.6039910  65.8534014
  11.4871583  72.0214254  71.2161092  10.8295257  72.7113516  71.3041221
  12.2911982  72.4110686  71.5595079   1.2397465  64.4884900  68.4600658
   1.8141216  64.2660082  67.7273851   1.8268447  64.5573595  69.2129259
  10.2977042  70.3758627  69.2665034  10.8108923  71.0088619  69.7686744
  10.9478266  69.7759822  68.9008394   1.5667052  66.5189361  62.4796543
   0.7304364  66.8564048  62.8005818   1.4271821  66.3838341  61.5423680
   3.5420132  61.3626149  67.1875727   2.8884545  61.0475166  66.5632342
   3.5000606  60.7401889  67.9135550   4.6531337  71.6445444  59.1029019
   3.7458399  71.4134697  59.3020168   5.1502369  70.8483063  59.2903001
   7.5599416  80.3542951  62.0225705   6.8861115  80.6574648  62.6310663
   7.9465238  81.1572032  61.6731162   6.7757873  67.8508082  71.5123375
   5.8580434  68.0723029  71.3545063   7.1918016  67.9254393  70.6535082
   7.5592920  69.2499498  66.6426055   8.3064739  69.7620895  66.3333177
   7.8284510  68.9283551  67.5030448   5.8319571  71.7458039  63.6253009
   4.9230790  71.4617072  63.7225479   5.8614654  72.1657117  62.7656316
  11.0638838  75.3564628  67.3944177  10.6101165  74.5155538  67.4509367
  10.4332805  75.9926027  67.7318957  10.0071758  66.2856614  68.6244844
   9.2694514  65.7734001  68.9555087  10.2598531  65.8456996  67.8128121
   9.5071777  77.1941125  68.3293995   9.7994752  77.7546182  67.6106361
  10.0170398  77.4869686  69.0847154  10.1083385  59.0632866  69.2186614
  10.4142262  58.2030230  68.9312529  10.8335990  59.6550487  69.0185607
   4.3804465  69.3586659  69.7262805   4.4353074  68.4060496  69.6505281
   3.5695667  69.5146099  70.2104103   5.5295658  73.2866783  60.9641088
   5.0915088  72.5702641  60.5046725   6.2706099  73.5142897  60.4026179
   2.3196825  67.9763719  67.4853183   1.5064690  68.2757890  67.8918376
   2.8155819  67.5819408  68.2027666   4.4705402  77.9721476  69.4187448
   4.4281581  78.1982322  68.4895980   5.3868101  77.7384851  69.5673249
   7.9171036  68.4405544  76.3168077   8.2720424  68.6677017  77.1762543
   8.5643167  68.7723920  75.6945333  13.6468773  71.5623980  67.0217406
  13.5086672  71.7525576  66.0938596  13.2904992  72.3243362  67.4785457
   1.8110899  65.5482075  73.1014418   2.4510279  65.4070834  72.4037382
   0.9788430  65.2616588  72.7253020  13.6738153  73.6300507  72.0328678
  14.1074659  73.5375796  72.8811732  14.3869733  73.6058007  71.3948694
   2.5871203  74.8484505  69.2149411   3.3811802  74.3534825  69.0131986
   1.8762896  74.3202368  68.8517116   7.4066048  77.2302601  73.5661778
   7.4603070  77.7993537  74.3339494   6.5380829  77.4004486  73.2015816
  14.5353702  73.6724207  74.5661563  14.7289592  74.5770018  74.8120838
  14.4354320  73.2131626  75.4000148   6.1890013  63.5582098  77.0651891
   5.5417928  64.2572047  76.9716367   6.9591028  63.9918242  77.4328139
   9.5968811  73.8230950  80.1402444   9.4454317  73.5941502  79.2232528
   9.5873490  74.7801551  80.1533789   6.3654147  71.3962863  75.1248710
   7.2946207  71.5474022  74.9517678   5.9445177  71.4846884  74.2697357
   5.1642479  75.4213527  72.8947248   5.0253565  75.0532312  73.7673186
   4.3757075  75.9361167  72.7231206   5.7590631  80.5222624  64.2372784
   5.9342387  80.0510667  65.0518407   5.0723419  81.1488390  64.4654045
   6.7147694  74.7995130  70.2836086   6.3797527  74.7595900  71.1793736
   6.2151640  74.1339846  69.8106496   0.6891938  70.2062760  75.8088667
   0.5511736  69.4742999  76.4100206   1.5996862  70.1171660  75.5272855
   9.6506886  72.1451164  60.5573145   9.0336057  71.4197992  60.4606198
   9.1823374  72.9060524  60.2140220   3.3174239  69.9182719  75.2972347
   4.0273857  69.2775911  75.2558965   3.2743547  70.1695614  76.2198527
  11.3061018  76.8550073  78.2178926  11.2473564  76.1709293  77.5509509
  11.7080536  77.5969063  77.7659552   2.0303173  66.9047937  77.1167986
   1.4940530  66.4538676  77.7689582   1.4419881  67.0393846  76.3738450
   1.4405432  66.3636589  59.6794450   0.5634898  66.2425389  59.3156696
   1.9163185  65.5722667  59.4273338  11.3078425  74.8189656  76.4492905
  10.4205204  74.4815578  76.5719304  11.8776976  74.0872688  76.6861671
   4.8379578  79.4791109  73.4154149   4.7649750  80.2846080  73.9273453
   4.3956971  79.6783075  72.5902170   4.6269358  78.7162879  66.9256970
   3.8436880  79.2584559  67.0195195   5.3262103  79.2336859  67.3251211
   7.9366008  64.5257508  69.5691176   8.4334708  63.7727471  69.2492246
   7.1652990  64.5621825  69.0034385  15.7895765  70.2297874  71.2109467
  15.7785642  71.1122589  70.8403400  14.9213145  69.8769425  71.0164004
   7.2978262  79.3777943  75.5712307   8.0106234  80.0125408  75.4988209
   6.8068290  79.4741809  74.7552309   9.0195789  73.2829196  67.1429599
   8.0852067  73.4030658  66.9734303   9.1972457  72.3801662  66.8789609
   4.5200977  66.6674891  69.2962860   4.1498764  66.1145932  69.9843766
   5.0160069  66.0633025  68.7437860  12.4068340  69.1246515  67.6779633
  12.8728792  69.9574506  67.6039936  12.8575841  68.6591496  68.3824892
   2.3490175  77.1272386  76.3917878   3.0499635  77.7608869  76.5447272
   1.8785290  77.4687118  75.6313517  10.4744571  75.4690336  64.6765785
  10.7504415  75.3546931  65.5859659   9.6049070  75.0707821  64.6377958
  10.3785003  61.4927102  71.7170534   9.4648083  61.7231329  71.8852741
  10.8078104  61.5765546  72.5684567  10.1491461  69.6816994  74.2170428
   9.4962912  69.9292901  73.5622881  10.5271841  68.8681132  73.8832906
   7.1098635  79.7176687  68.3198599   7.2921030  78.8998343  68.7826351
   7.9331621  79.9344379  67.8823489   7.4440801  78.6444872  65.5813647
   7.9728567  78.1337327  64.9683809   7.7069020  78.3287402  66.4459180
   6.1979034  70.4236805  80.7036466   5.5219671  70.3230934  81.3738841
   7.0206668  70.2676019  81.1672463   4.9401817  81.7303732  74.9394082
   5.4920125  81.8935354  75.7043167   5.2808011  82.3208170  74.2674106
   9.7912692  76.5564990  80.7942736  10.3352596  77.1694948  80.2997691
   9.2099536  77.1144568  81.3109749   8.0770204  79.6785708  71.9257764
   7.9521344  78.8775448  71.4168709   8.7349296  80.1731901  71.4371734
  10.1405113  77.4794728  73.5537314   9.1935448  77.3600079  73.4815641
  10.4887886  76.5917226  73.6363575   2.5004686  63.3688867  77.3775556
   3.0239088  63.6151163  78.1401865   2.2817020  64.2008902  76.9578693
   7.1451546  77.2747444  69.7541666   6.9976509  76.3464152  69.9349236
   7.9705040  77.2967535  69.2698741   1.0113790  65.9265511  65.6122158
   1.3509863  66.4551432  64.8900767   1.4585911  66.2645917  66.3880725
  10.7485668  78.0976003  70.8406539  11.6732215  77.8918864  70.7030990
  10.5800971  77.8492404  71.7495880   3.7057231  64.3102562  75.0625226
   3.3654052  63.5110375  75.4645906   2.9996238  64.6104273  74.4902059
   4.3573703  61.3951874  73.5152549   5.1799772  60.9212353  73.3931440
   4.6011767  62.1742358  74.0151236   2.9981938  64.4240133  63.8115451
   3.7190300  64.8021386  63.3079168   2.3747242  65.1429010  63.9150429
   7.1413060  65.1285282  64.7473783   7.3576675  66.0109920  64.4462611
   6.6607128  64.7371495  64.0179425   1.8812282  68.0870995  71.3244528
   1.7356863  68.4011298  72.2168809   1.4037485  68.7055895  70.7715426
   3.7408665  65.0773543  71.3725417   3.7270234  64.1814636  71.0357715
   4.4581093  65.0844207  72.0063703   5.5934795  65.5110883  73.4178545
   5.3352573  66.4327954  73.4162875   5.0619836  65.1141318  74.1079009
  10.5380984  78.6161670  66.1968630  10.7117862  78.0508093  65.4442483
  11.0309875  79.4162565  66.0148120   3.1445561  63.9587923  66.6412988
   3.2661472  63.0304569  66.8403875   2.8547603  63.9726609  65.7291303
   6.0136751  61.6442834  69.7779707   6.0358448  61.7082167  68.8231687
   6.4304810  60.8047342  69.9720214  16.3920375  71.3798093  67.8158930
  16.8351521  70.6305418  67.4178053  15.5146886  71.3708230  67.4332662
  11.5256157  77.9328435  63.2965528  12.2207061  78.5535127  63.5152843
  11.8679307  77.0823786  63.5717906  13.4247580  75.3828140  64.8252859
  13.9498904  75.7215413  64.1002179  13.3369932  74.4475156  64.6415994
   5.0867629  79.2962214  76.9542736   5.3954755  79.0511361  77.8265435
   5.8843111  79.5008852  76.4661606   5.1088241  81.4500124  69.1848112
   4.6693231  80.9576502  69.8780969   5.8596358  80.9073091  68.9440188
   2.5562113  76.9938133  71.2570414   1.9342122  76.3308838  70.9572642
   3.2266980  77.0199264  70.5744062   2.6286640  65.4719921  80.8502920
   2.6774796  66.3482043  80.4680690   3.1709154  64.9297314  80.2774563
  13.1141486  76.0161044  80.1304057  12.3237030  75.9985183  79.5908557
  12.8774840  76.5549338  80.8853094  13.2339361  72.8653510  77.4436786
  13.2837366  72.7003518  78.3852309  13.1253284  71.9980769  77.0534667
   2.1175620  75.5442056  64.7328875   2.2663740  76.2277520  64.0795547
   2.9242063  75.5247146  65.2478330  10.5243123  68.8484438  78.7596092
  11.4252986  68.7090903  78.4680090  10.5991098  69.0138893  79.6994270
   4.8585929  66.2251293  77.6049279   3.9889238  66.5184859  77.3331867
   5.0945409  66.8091738  78.3256542  14.7357558  75.2850452  77.6878807
  14.4442366  75.6480432  78.5242268  14.1229689  74.5717460  77.5092139
  15.9353240  72.8503332  70.2081378  16.7700131  73.2893136  70.3718938
  16.0712369  72.3741985  69.3889623  12.9844746  70.4083066  76.1558865
  13.4598868  70.6010713  75.3477717  12.0610311  70.4642252  75.9102249
   7.5624963  62.4430910  75.1214699   8.0806906  63.1791937  74.7961188
   7.2080095  62.7494903  75.9561458   7.8137557  58.8631192  70.6415596
   8.0939310  58.1954382  71.2676022   8.5988164  59.0560288  70.1290260
   5.6171025  78.0390186  62.2040622   5.0444992  78.6580374  61.7511094
   6.1903819  78.5889548  62.7380544  11.6846415  67.2848826  74.3887171
  12.6363838  67.3846924  74.4099395  11.5149865  66.4927095  74.8985255
   9.7060794  64.3704410  74.5746572   9.1110727  64.6509422  73.8793060
   9.4210491  64.8598311  75.3463313   8.8368285  78.3227337  63.3349204
   9.7698958  78.2572898  63.5382080   8.7491498  79.1583603  62.8763737
  11.4656302  77.6393207  60.2953152  11.3869933  77.3053070  61.1888910
  12.2865968  78.1314975  60.2944624  14.1634493  70.5054946  73.5029471
  14.1310813  69.5670947  73.6889154  14.7735116  70.5838983  72.7695295
   6.0017824  69.3750999  59.5456675   6.9476928  69.2457207  59.6145093
   5.6232069  68.6365661  60.0226103  14.3128981  67.2965990  73.5487754
  13.7968030  66.5124446  73.3617683  15.1968930  66.9684706  73.7134273
  11.9739708  61.0407005  69.5083566  11.7764529  60.7322093  70.3926898
  12.5839414  61.7668644  69.6381496  19.9811043  71.5670953  72.6435507
  20.7114431  71.3056241  73.2043211  19.3717988  70.8299675  72.6837575
  18.0626340  69.7078816  73.2409959  17.3359503  69.5734781  72.6326450
  17.6473627  70.0155644  74.0466677   5.8856516  73.4268745  81.0057332
   6.8059526  73.6047344  81.1997378   5.8506099  72.4824791  80.8537031
   4.1860741  67.3000976  59.4811560   3.2792196  67.0034088  59.5574273
   4.4636722  67.0030794  58.6145846   5.8022807  61.8437865  65.6355801
   4.9923535  61.4984950  66.0111047   6.4907223  61.5345409  66.2243413
   7.7313355  60.9215912  67.2580098   8.2844393  61.3411365  67.9170121
   7.9683441  59.9951660  67.3003054   3.7546454  66.9102986  83.0382862
   3.6543181  67.8597343  82.9694953   3.5367996  66.5821225  82.1658932
   2.9559525  64.1587911  59.6223539   3.8178689  64.4842809  59.8819356
   3.1409870  63.3719407  59.1096605  11.1092162  63.0316437  66.7658762
  10.5290831  63.6901241  66.3836814  10.8428095  62.2093782  66.3546179
   9.5595728  62.4321495  68.9680082  10.0595507  62.5438029  68.1594401
  10.2031336  62.1282548  69.6080891   3.6177724  70.3400125  81.8547923
   3.1344806  71.1400485  82.0611812   3.7038663  70.3508069  80.9015367
   9.8917040  65.1916528  65.8215110   9.0042895  65.4766178  65.6035305
  10.3071029  65.0310291  64.9742387  13.2431576  65.2163049  69.5369450
  14.0191966  65.7059501  69.8094066  12.5179710  65.6421103  69.9941319
  15.6804135  65.9290668  70.5943390  16.2748626  65.6886404  69.8836698
  15.7530718  65.2097798  71.2216926   9.0360253  74.9561202  59.9163130
   9.7396104  75.1611205  60.5320786   8.3122902  75.5237964  60.1812214
   9.8658064  70.7071064  66.0365400   9.8093265  71.1639615  65.1973033
  10.4186406  69.9461748  65.8588243  13.6762870  66.4960795  66.8615520
  13.4199804  66.0957431  67.6923728  13.0515738  67.2104589  66.7365659
  17.9875207  69.2356869  69.3686811  17.4274765  69.3050058  70.1418373
  17.3818711  69.0597853  68.6486308  10.9446951  75.3943731  61.9661590
  11.7792555  74.9624930  61.7839065  10.7831294  75.2225745  62.8938485
  10.5992843  71.8975845  63.3317930  10.5441647  71.7320116  62.3906374
   9.9738898  72.6051878  63.4880119   7.9138750  74.2024757  82.6571492
   8.7829910  74.3765409  82.2958127   7.4345502  75.0219173  82.5347222
   3.9088968  61.3983954  62.9103248   3.8967638  62.3425794  63.0671519
   4.8012390  61.2154099  62.6162709   2.0824930  81.3221858  74.3360926
   2.9852177  81.3545468  74.6527421   1.8562300  80.3922309  74.3507262
   3.8378532  80.0752844  70.9971005   2.8874163  80.0754706  70.8835377
   4.1411019  79.3285579  70.4807039   7.7241088  57.9926730  67.1649185
   6.9573484  57.4385217  67.3105867   8.1351793  58.0648599  68.0263336
  19.5731226  85.9113383  72.0616767  20.2109636  85.7920130  71.3580107
  19.4552069  86.8594227  72.1204719  16.3820932  85.8640811  71.9978292
  16.0439444  85.7481875  71.1098827  17.2510700  85.4631976  71.9779298
  12.2407748  87.7176287  67.9875183  11.6772613  87.6266224  67.2191470
  12.1260143  86.8976192  68.4677675  16.8640715  87.0175662  77.9564497
  16.8529356  86.6228461  77.0845001  17.0261355  86.2841735  78.5498269
   9.7872180  89.2127479  70.8259403  10.5793472  88.8718303  70.4105702
  10.0268830  89.3222454  71.7461556  17.8207307  91.3847255  63.2989648
  17.1695286  91.9701335  62.9123661  18.6151669  91.9153450  63.3584685
  11.7462934  88.4736392  63.6976782  12.5193810  87.9265379  63.5589658
  12.0988333  89.3380641  63.9091243  13.5847976  89.8012774  76.9043681
  13.2937842  90.7058405  76.7890348  14.2204961  89.8429302  77.6187751
  14.5104183  87.1789623  73.4945041  15.1067755  86.9545645  72.7802004
  14.5679155  86.4374368  74.0970489  14.0829212  84.6329058  61.3295232
  14.3354732  84.1110579  60.5678695  13.1453771  84.4695204  61.4321915
  19.1272494  83.6364836  69.1369975  19.9135584  83.2184260  68.7860392
  19.3911199  84.5410929  69.3051623  19.2982572  89.0737687  63.8358632
  18.6628405  89.1472313  64.5479537  18.9679978  89.6631286  63.1577711
  24.5280922  83.5740070  70.0402954  25.2606093  83.0039286  70.2740783
  23.7720277  83.1861670  70.4809459  13.8025500  86.5357164  63.5319607
  13.6861758  85.8602067  64.2000691  13.9127760  86.0489538  62.7151760
  16.1457041  85.9967311  67.2366296  15.7815248  85.4697932  67.9479218
  17.0024157  85.6065780  67.0632781  22.0506342  77.2861644  74.4997562
  21.7189667  78.1557055  74.2758777  21.4551955  76.9697928  75.1791593
  15.7862528  81.0257211  62.2327645  15.9536931  81.8937447  62.5998116
  15.5959697  81.1884493  61.3088934  18.5437861  89.4874190  73.8993475
  18.2438584  90.3899229  73.7909282  18.1988921  89.2206373  74.7514628
  11.9950343  85.9387987  69.9330179  11.0700839  85.8064201  70.1407871
  12.2434756  86.7182206  70.4300122  21.9435005  82.0056730  71.5790912
  21.0351883  81.9372138  71.2849673  21.8922601  82.4828675  72.4072738
  15.7651749  83.4814868  63.2174311  15.6451374  83.9271919  64.0559792
  15.0704337  83.8300186  62.6587850   9.3559154  85.5821260  70.7673968
   9.4851535  85.8355739  71.6813380   8.6756605  86.1748968  70.4478623
  13.5258641  96.2518510  66.8664443  13.4482671  97.2026335  66.9452923
  12.9220285  95.9064383  67.5239369  16.0175871  83.4246376  79.5225810
  15.2409205  83.9840296  79.5128674  16.6566434  83.9103158  80.0440680
  23.8096652  80.2073168  73.3568786  23.1671032  80.5005701  72.7108581
  23.3051580  80.0926089  74.1621983  21.4636815  83.9536342  64.0454645
  22.3754671  84.1863728  63.8702343  20.9546462  84.5373386  63.4829724
  14.2722243  86.2331829  79.0843777  15.0136928  86.7716873  78.8078600
  13.5659229  86.8598118  79.2415328  19.7477583  88.3760969  77.6815938
  20.1560939  87.9343380  76.9370570  19.0254844  87.8013597  77.9350131
  16.1008653  83.3133576  75.0549495  16.9469848  83.7372990  75.1984144
  16.0407291  82.6567200  75.7488058  20.0706398  88.9362160  71.4368227
  19.4415260  89.1007874  70.7344295  19.6832060  89.3503770  72.2079191
  23.9495629  89.8716598  68.7912591  23.2646668  90.2515499  68.2409624
  24.0339479  90.4811924  69.5244538  19.2508098  80.9737944  76.7130669
  19.0069030  81.7280005  76.1764944  19.5268029  81.3523292  77.5477916
  21.2046561  87.5176557  75.3907934  21.4163456  88.1608317  74.7142315
  21.1576309  86.6838873  74.9229864  18.8072790  80.1294377  72.2944506
  17.9457269  80.4275631  72.5861244  18.8335225  80.3464776  71.3625539
  15.6234359  88.6736568  68.7018312  16.0872705  88.9524271  67.9122934
  15.3591158  87.7720013  68.5191403  12.5158440  88.2208050  71.6398075
  13.0859798  88.6495318  71.0015560  13.1066552  87.9390634  72.3382261
  14.5603245  84.7959720  65.5107877  15.2627289  85.2480764  65.9781803
  14.2283874  84.1543539  66.1387770  13.0083607  83.3871477  79.8859087
  12.3782268  84.0687758  80.1194483  12.9019695  83.2754559  78.9412225
   8.3028579  83.0543273  70.8125011   7.5127633  83.3100802  70.3365121
   8.7939827  83.8691611  70.9177051  22.3192389  90.3948512  73.5630292
  23.1409833  89.9928700  73.2812973  22.3154792  90.2916746  74.5146407
  10.2543325  83.4187852  67.7708487   9.4574488  83.5306547  68.2891983
  10.0268917  83.7574505  66.9049378  16.0848992  89.9432556  75.7191002
  16.1493425  90.4052963  76.5549174  15.3759916  89.3129920  75.8473312
   6.5866282  83.3073764  73.2440001   6.8374321  84.1920773  73.5097577
   7.1225831  83.1278365  72.4715093  30.4098382  86.7387261  69.9115263
  29.6562090  86.1694659  69.7559267  30.5445923  86.7049925  70.8585898
  15.7997010  91.6100663  65.5869982  15.6642685  92.4552199  66.0154830
  16.3406823  91.8119941  64.8235916  12.2864350  77.6892243  82.2484338
  11.8931295  77.1358441  82.9231982  13.1030490  78.0002821  82.6390855
   9.2526408  89.1276101  66.1597907   9.7650928  89.9219351  66.3103472
   9.9049120  88.4302392  66.0931509  11.0621292  92.2441857  68.2420661
  11.2387921  93.1659822  68.0541645  11.8578126  91.9300277  68.6715040
  15.2032311  79.1050122  79.8404594  15.9442024  79.7057275  79.7609057
  15.4350234  78.3627760  79.2822637  10.3473649  84.2906489  78.1182824
  10.2327164  83.3891746  78.4189923   9.4918166  84.5370186  77.7667640
  17.4265486  92.2324230  79.7170324  16.9829341  91.4460608  79.3991229
  18.0882700  92.4203380  79.0514215  12.1852608  93.7620031  74.2431003
  12.7360033  93.6337094  73.4707997  11.3464084  94.0614920  73.8925896
  19.5246725  92.5127029  77.7451726  19.5065200  93.3335911  77.2531995
  20.4466645  92.3881105  77.9701867  15.9819779  90.0271159  78.5875234
  16.5148116  89.2659447  78.3574542  15.4533860  89.7344811  79.3299389
  19.1489474  75.1331225  74.1168876  18.8053743  76.0232867  74.0407986
  19.5168436  74.9432883  73.2538461   7.2175324  87.4564755  66.9357478
   8.0550546  87.8661764  66.7191186   7.3953592  86.5164198  66.9057672
  19.1139756  85.1239836  62.6241311  18.5986380  85.8944441  62.8629698
  18.8417065  84.4504972  63.2474372  16.6986867  79.9689537  67.6826549
  15.8428464  79.5796387  67.5032188  17.1113819  80.0481498  66.8226335
  18.2286014  77.5035880  72.0818109  17.7250810  77.4666015  71.2685914
  18.5216621  78.4128623  72.1414766  14.4728900  77.5874610  71.0884291
  15.3381897  77.3917418  70.7290180  14.5406409  77.3584962  72.0153648
  24.0874031  87.8772191  64.5594484  23.3103473  87.5383350  64.1149646
  24.7665512  87.8824814  63.8849449  18.9026060  82.9966928  64.4501092
  18.5976195  83.3113077  65.3011235  19.8556502  83.0748348  64.4928425
  17.3472491  89.1557151  66.0994046  16.8193853  88.4209911  65.7867284
  16.8459994  89.9331828  65.8534014  22.3265337  87.3506172  71.2161092
  21.6689012  88.0405433  71.3041221  23.1305737  87.7402604  71.5595079
  12.0791219  79.8176818  68.4600658  12.6534971  79.5951999  67.7273851
  12.6662201  79.8865512  69.2129259  21.1370796  85.7050545  69.2665034
  21.6502678  86.3380536  69.7686744  21.7872020  85.1051740  68.9008394
  12.4060806  81.8481279  62.4796543  11.5698118  82.1855965  62.8005818
  12.2665576  81.7130259  61.5423680  14.3813887  76.6918067  67.1875727
  13.7278299  76.3767084  66.5632342  14.3394361  76.0693807  67.9135550
  15.4925092  86.9737362  59.1029019  14.5852153  86.7426615  59.3020168
  15.9896124  86.1774981  59.2903001  18.3993170  95.6834869  62.0225705
  17.7254869  95.9866566  62.6310663  18.7858992  96.4863949  61.6731162
  17.6151627  83.1800000  71.5123375  16.6974188  83.4014947  71.3545063
  18.0311771  83.2546311  70.6535082  18.3986675  84.5791416  66.6426055
  19.1458494  85.0912813  66.3333177  18.6678264  84.2575469  67.5030448
  16.6713325  87.0749957  63.6253009  15.7624544  86.7908989  63.7225479
  16.7008409  87.4949035  62.7656316  21.9032592  90.6856546  67.3944177
  21.4494920  89.8447456  67.4509367  21.2726559  91.3217944  67.7318957
  20.8465512  81.6148532  68.6244844  20.1088269  81.1025918  68.9555087
  21.0992286  81.1748914  67.8128121  20.3465532  92.5233043  68.3293995
  20.6388506  93.0838100  67.6106361  20.8564152  92.8161604  69.0847154
  20.9477139  74.3924784  69.2186614  21.2536016  73.5322148  68.9312529
  21.6729744  74.9842404  69.0185607   7.2401495  84.7955471  67.6068211
   7.0425895  84.2024831  66.8819278   6.6848159  84.4907681  68.3244150
  15.2198219  84.6878577  69.7262805  15.2746829  83.7352414  69.6505281
  14.4089421  84.8438016  70.2104103  16.3689413  88.6158700  60.9641088
  15.9308843  87.8994559  60.5046725  17.1099854  88.8434815  60.4026179
  13.1590579  83.3055637  67.4853183  12.3458445  83.6049807  67.8918376
  13.6549573  82.9111326  68.2027666  15.3099157  93.3013394  69.4187448
  15.2675336  93.5274240  68.4895980  16.2261856  93.0676768  69.5673249
  18.7564791  83.7697461  76.3168077  19.1114178  83.9968935  77.1762543
  19.4036922  84.1015838  75.6945333  24.4862528  86.8915897  67.0217406
  24.3480426  87.0817493  66.0938596  24.1298746  87.6535280  67.4785457
  12.6504654  80.8773992  73.1014418  13.2904033  80.7362752  72.4037382
  11.8182184  80.5908506  72.7253020  24.5131907  88.9592424  72.0328678
  24.9468414  88.8667713  72.8811732  25.2263488  88.9349925  71.3948694
  13.4264958  90.1776423  69.2149411  14.2205556  89.6826743  69.0131986
  12.7156650  89.6494286  68.8517116  18.2459802  92.5594518  73.5661778
  18.2996824  93.1285455  74.3339494  17.3774583  92.7296403  73.2015816
   9.7347721  84.3219505  65.2909164   8.8045309  84.2603960  65.5079126
   9.8305193  83.7995457  64.4945805   9.6533270  80.8474317  67.8787405
   9.9140087  81.7619651  67.7696566  10.4750443  80.3798760  68.0284018
  11.1258196  82.2612075  75.0486230  11.7981249  82.0529437  74.3998879
  10.2987982  82.0634161  74.6091462  25.3747457  89.0016125  74.5661563
  25.5683347  89.9061935  74.8120838  25.2748075  88.5423544  75.4000148
  17.0283768  78.8874016  77.0651891  16.3811683  79.5863965  76.9716367
  17.7984783  79.3210159  77.4328139  20.4362565  89.1522868  80.1402444
  20.2848072  88.9233419  79.2232528  20.4267245  90.1093469  80.1533789
  17.2047902  86.7254780  75.1248710  18.1339962  86.8765940  74.9517678
  16.7838932  86.8138801  74.2697357  16.0036234  90.7505445  72.8947248
  15.8647319  90.3824229  73.7673186  15.2150830  91.2653084  72.7231206
  16.5984386  95.8514541  64.2372784  16.7736141  95.3802584  65.0518407
  15.9117174  96.4780308  64.4654045  17.5541449  90.1287048  70.2836086
  17.2191281  90.0887818  71.1793736  17.0545394  89.4631763  69.8106496
  11.5285693  85.5354678  75.8088667  11.3905491  84.8034916  76.4100206
  12.4390616  85.4463578  75.5272855  20.4900640  87.4743082  60.5573145
  19.8729811  86.7489910  60.4606198  20.0217129  88.2352442  60.2140220
  14.1567993  85.2474637  75.2972347  14.8667612  84.6067829  75.2558965
  14.1137302  85.4987532  76.2198527  22.1454772  92.1841990  78.2178926
  22.0867318  91.5001210  77.5509509  22.5474290  92.9260980  77.7659552
  12.8696927  82.2339855  77.1167986  12.3334284  81.7830593  77.7689582
  12.2813636  82.3685764  76.3738450  11.1645471  99.0003904  71.0112645
  11.4042069  99.6322428  71.6891663  10.3214667  98.6491944  71.2978004
  12.2799186  81.6928506  59.6794450  11.4028653  81.5717307  59.3156696
  12.7556939  80.9014584  59.4273338  22.1472179  90.1481574  76.4492905
  21.2598958  89.8107496  76.5719304  22.7170730  89.4164605  76.6861671
   3.8001326  86.4805666  69.7735957   4.4872366  86.1667396  69.1856972
   3.6449455  87.3847031  69.5003208   8.6036049  81.3695862  74.2020981
   8.5194237  80.7621532  73.4671390   7.7818755  81.8604881  74.2030477
  15.6773333  94.8083027  73.4154149  15.6043504  95.6137998  73.9273453
  15.2350726  95.0074992  72.5902170  15.4663112  94.0454797  66.9256970
  14.6830634  94.5876477  67.0195195  16.1655858  94.5628776  67.3251211
  18.7759763  79.8549426  69.5691176  19.2728462  79.1019388  69.2492246
  18.0046744  79.8913743  69.0034385  26.6289520  85.5589792  71.2109467
  26.6179396  86.4414507  70.8403400  25.7606899  85.2061342  71.0164004
  18.1372016  94.7069861  75.5712307  18.8499989  95.3417325  75.4988209
  17.6462045  94.8033727  74.7552309  19.8589543  88.6121113  67.1429599
  18.9245822  88.7322576  66.9734303  20.0366212  87.7093580  66.8789609
  15.3594731  81.9966809  69.2962860  14.9892519  81.4437849  69.9843766
  15.8553824  81.3924942  68.7437860  23.2462095  84.4538433  67.6779633
  23.7122547  85.2866424  67.6039936  23.6969595  83.9883414  68.3824892
  13.1883930  92.4564304  76.3917878  13.8893389  93.0900787  76.5447272
  12.7179045  92.7979036  75.6313517  21.3138326  90.7982254  64.6765785
  21.5898170  90.6838848  65.5859659  20.4442824  90.3999739  64.6377958
  21.2178757  76.8219019  71.7170534  20.3041837  77.0523246  71.8852741
  21.6471859  76.9057464  72.5684567  20.9885216  85.0108911  74.2170428
  20.3356666  85.2584819  73.5622881  21.3665596  84.1973050  73.8832906
  17.9492390  95.0468605  68.3198599  18.1314784  94.2290261  68.7826351
  18.7725376  95.2636297  67.8823489  18.2834555  93.9736790  65.5813647
  18.8122322  93.4629244  64.9683809  18.5462775  93.6579320  66.4459180
  17.0372789  85.7528723  80.7036466  16.3613426  85.6522852  81.3738841
  17.8600423  85.5967936  81.1672463   8.7851648  91.9900659  73.3248981
   9.3705085  91.2444347  73.4576885   8.5876486  92.3004616  74.2085645
  11.6390303  95.0251906  68.3411423  10.9700678  95.5098034  67.8575463
  11.5003173  95.2721127  69.2554802   3.3769303  84.5606259  72.0453424
   3.4153402  84.0269850  72.8390542   2.8709595  84.0341465  71.4264401
  15.7795572  97.0595650  74.9394082  16.3313880  97.2227271  75.7043167
  16.1201765  97.6500088  74.2674106  10.7560065  79.4070800  75.5415966
  10.8201391  80.2685631  75.1293364  10.6927185  78.7944801  74.8088325
  10.2312337  81.4793932  79.1889000  10.8584376  81.0971010  79.8026525
   9.3740256  81.2608134  79.5544693  20.6306446  91.8856907  80.7942736
  21.1746350  92.4986866  80.2997691  20.0493291  92.4436486  81.3109749
   7.0077880  83.2870361  65.1207355   7.3031321  82.3781040  65.0674409
   6.1065916  83.2658101  64.7988358  18.9163959  95.0077625  71.9257764
  18.7915098  94.2067365  71.4168709  19.5743050  95.5023819  71.4371734
  10.5372127  81.3626358  71.1034904   9.8158713  81.9762326  70.9642377
  11.3265383  81.8984123  71.0251550  20.9798867  92.8086646  73.5537314
  20.0329203  92.6891997  73.4815641  21.3281640  91.9209144  73.6363575
  13.3398441  78.6980784  77.3775556  13.8632843  78.9443081  78.1401865
  13.1210774  79.5300819  76.9578693   8.7365722  80.9684459  65.2446680
   8.4078428  80.0881838  65.0621786   9.0905092  80.9132128  66.1323070
  17.9845301  92.6039362  69.7541666  17.8370263  91.6756069  69.9349236
  18.8098794  92.6259453  69.2698741  11.8507545  81.2557429  65.6122158
  12.1903617  81.7843350  64.8900767  12.2979665  81.5937835  66.3880725
  21.5879422  93.4267921  70.8406539  22.5125970  93.2210782  70.7030990
  21.4194726  93.1784322  71.7495880  14.5450986  79.6394480  75.0625226
  14.2047806  78.8402293  75.4645906  13.8389992  79.9396190  74.4902059
  15.1967458  76.7243792  73.5152549  16.0193527  76.2504270  73.3931440
  15.4405521  77.5034276  74.0151236  13.8375692  79.7532050  63.8115451
  14.5584055  80.1313303  63.3079168  13.2140996  80.4720927  63.9150429
  17.9806815  80.4577199  64.7473783  18.1970429  81.3401837  64.4462611
  17.5000882  80.0663413  64.0179425  12.7206036  83.4162913  71.3244528
  12.5750617  83.7303216  72.2168809  12.2431240  84.0347813  70.7715426
  14.5802419  80.4065461  71.3725417  14.5663988  79.5106554  71.0357715
  15.2974847  80.4136124  72.0063703  16.4328550  80.8402801  73.4178545
  16.1746328  81.7619872  73.4162875  15.9013590  80.4433235  74.1079009
  21.3774739  93.9453588  66.1968630  21.5511616  93.3800010  65.4442483
  21.8703630  94.7454483  66.0148120   7.1951699  85.9568257  74.2632189
   6.6505167  86.7328065  74.3952463   8.0731048  86.3039062  74.1051310
  13.9839315  79.2879841  66.6412988  14.1055226  78.3596487  66.8403875
  13.6941358  79.3018527  65.7291303  16.8530506  76.9734751  69.7779707
  16.8752202  77.0374084  68.8231687  17.2698565  76.1339260  69.9720214
  27.2314130  86.7090011  67.8158930  27.6745276  85.9597336  67.4178053
  26.3540640  86.7000147  67.4332662  22.3649911  93.2620352  63.2965528
  23.0600816  93.8827045  63.5152843  22.7073061  92.4115704  63.5717906
   7.9817720  85.0838153  77.1562346   7.2399456  85.2320789  77.7426976
   7.6610465  85.3446419  76.2929095  24.2641334  90.7120058  64.8252859
  24.7892658  91.0507331  64.1002179  24.1763687  89.7767073  64.6415994
  15.9261383  94.6254132  76.9542736  16.2348509  94.3803278  77.8265435
  16.7236865  94.8300770  76.4661606  15.9481995  96.7792041  69.1848112
  15.5086985  96.2868420  69.8780969  16.6990112  96.2365009  68.9440188
   8.4274334  92.9703582  69.1872741   9.2532354  92.6707354  68.8071384
   8.0768386  92.2011204  69.6362529  13.3955867  92.3230050  71.2570414
  12.7735877  91.6600755  70.9572642  14.0660734  92.3491182  70.5744062
   6.6282939  90.8889909  70.1461674   5.7914847  90.4612083  69.9645675
   6.6006585  91.0822352  71.0832465  13.4680395  80.8011838  80.8502920
  13.5168550  81.6773961  80.4680690  14.0102909  80.2589231  80.2774563
  23.9535240  91.3452962  80.1304057  23.1630784  91.3277100  79.5908557
  23.7168595  91.8841255  80.8853094  24.0733115  88.1945428  77.4436786
  24.1231120  88.0295435  78.3852309  23.9647039  87.3272687  77.0534667
  12.9569374  90.8733974  64.7328875  13.1057494  91.5569438  64.0795547
  13.7635818  90.8539064  65.2478330  21.3636878  84.1776356  78.7596092
  22.2646741  84.0382821  78.4680090  21.4384852  84.3430811  79.6994270
  15.6979683  81.5543211  77.6049279  14.8282993  81.8476777  77.3331867
  15.9339164  82.1383656  78.3256542  25.5751312  90.6142369  77.6878807
  25.2836121  90.9772350  78.5242268  24.9623444  89.9009378  77.5092139
  26.7746995  88.1795249  70.2081378  27.6093886  88.6185053  70.3718938
  26.9106123  87.7033902  69.3889623  23.8238501  85.7374984  76.1558865
  24.2992622  85.9302630  75.3477717  22.9004066  85.7934170  75.9102249
  10.7122007  86.8999151  65.7389944  10.4668049  85.9961481  65.9370154
  10.8817922  86.9016302  64.7969422  18.4018717  77.7722828  75.1214699
  18.9200661  78.5083855  74.7961188  18.0473850  78.0786821  75.9561458
   9.9817655  82.6327509  63.2376105   9.2886900  82.7071864  62.5816141
   9.7369407  81.8687852  63.7597622  18.6531311  74.1923110  70.6415596
  18.9333065  73.5246299  71.2676022  19.4381918  74.3852206  70.1290260
  16.4564780  93.3682104  62.2040622  15.8838747  93.9872291  61.7511094
  17.0297573  93.9181466  62.7380544  22.5240170  82.6140744  74.3887171
  23.4757592  82.7138842  74.4099395  22.3543620  81.8219013  74.8985255
  20.5454549  79.6996327  74.5746572  19.9504481  79.9801340  73.8793060
  20.2604246  80.1890228  75.3463313  19.6762039  93.6519254  63.3349204
  20.6092713  93.5864816  63.5382080  19.5885252  94.4875521  62.8763737
  22.3050056  92.9685125  60.2953152  22.2263688  92.6344988  61.1888910
  23.1259723  93.4606892  60.2944624  25.0028247  85.8346864  73.5029471
  24.9704567  84.8962865  73.6889154  25.6128871  85.9130901  72.7695295
  16.8411578  84.7042917  59.5456675  17.7870683  84.5749125  59.6145093
  16.4625823  83.9657579  60.0226103  25.1522736  82.6257907  73.5487754
  24.6361784  81.8416364  73.3617683  26.0362684  82.2976624  73.7134273
  22.8133463  76.3698923  69.5083566  22.6158284  76.0614011  70.3926898
  23.4233168  77.0960562  69.6381496  30.8204797  86.8962871  72.6435507
  31.5508186  86.6348159  73.2043211  30.2111743  86.1591593  72.6837575
  28.9020094  85.0370733  73.2409959  28.1753258  84.9026698  72.6326450
  28.4867381  85.3447562  74.0466677  16.7250271  88.7560663  81.0057332
  17.6453280  88.9339262  81.1997378  16.6899854  87.8116708  80.8537031
  15.0254495  82.6292893  59.4811560  14.1185951  82.3326006  59.5574273
  15.3030476  82.3322711  58.6145846   5.9432436  83.9499257  69.9310606
   5.6235220  83.0964565  69.6384980   5.3965864  84.1647835  70.6868574
   9.7212343  86.6661698  73.6480113   9.9398353  87.5978805  73.6668147
  10.1338117  86.3069672  74.4334917  16.6416561  77.1729783  65.6355801
  15.8317289  76.8276868  66.0111047  17.3300978  76.8637327  66.2243413
  18.5707109  76.2507830  67.2580098  19.1238148  76.6703283  67.9170121
  18.8077196  75.3243578  67.3003054  14.5940209  82.2394903  83.0382862
  14.4936935  83.1889260  82.9694953  14.3761751  81.9113142  82.1658932
  13.7953280  79.4879828  59.6223539  14.6572444  79.8134727  59.8819356
  13.9803624  78.7011324  59.1096605   5.8120696  87.5702168  71.9003728
   5.1184167  87.1556121  71.3873682   6.5593687  87.6122705  71.3037147
  21.9485916  78.3608355  66.7658762  21.3684585  79.0193159  66.3836814
  21.6821849  77.5385699  66.3546179  20.3989483  77.7613413  68.9680082
  20.8989261  77.8729947  68.1594401  21.0425091  77.4574465  69.6080891
  14.4571479  85.6692042  81.8547923  13.9738560  86.4692402  82.0611812
  14.5432418  85.6799987  80.9015367   7.7257438  87.5020422  69.7769743
   7.7028126  87.6008109  68.8251626   8.0358075  88.3485573  70.0986909
  10.3844816  89.5596577  73.8916357  11.3388070  89.5280519  73.8246289
  10.1857340  89.0987201  74.7066583  10.9744198  88.1297693  76.4587155
  11.7937087  88.6241772  76.4821992  11.2481006  87.2129661  76.4304722
  20.7310794  80.5208445  65.8215110  19.8436649  80.8058096  65.6035305
  21.1464784  80.3602209  64.9742387  24.0825331  80.5454966  69.5369450
  24.8585721  81.0351419  69.8094066  23.3573465  80.9713020  69.9941319
  26.5197889  81.2582585  70.5943390  27.1142380  81.0178321  69.8836698
  26.5924473  80.5389716  71.2216926   8.7395045  95.1016196  70.9086555
   8.6049513  94.3416597  70.3424553   8.3227107  95.8257096  70.4415344
  19.8754008  90.2853120  59.9163130  20.5789858  90.4903122  60.5320786
  19.1516657  90.8529882  60.1812214  20.7051818  86.0362981  66.0365400
  20.6487020  86.4931533  65.1973033  21.2580161  85.2753666  65.8588243
  24.5156624  81.8252713  66.8615520  24.2593558  81.4249349  67.6923728
  23.8909492  82.5396507  66.7365659  28.8268962  84.5648786  69.3686811
  28.2668520  84.6341976  70.1418373  28.2212465  84.3889771  68.6486308
  11.8964171  95.9985513  71.1204998  11.7796555  96.9430946  71.0183688
  11.0756617  95.6959075  71.5090797  21.7840705  90.7235649  61.9661590
  22.6186309  90.2916848  61.7839065  21.6225048  90.5517663  62.8938485
  21.4386597  87.2267762  63.3317930  21.3835401  87.0612034  62.3906374
  20.8132653  87.9343795  63.4880119   6.2279112  82.4635827  77.1579352
   6.8737976  81.9534781  77.6466577   6.0196264  83.2004508  77.7322777
  18.7532505  89.5316674  82.6571492  19.6223664  89.7057327  82.2958127
  18.2739256  90.3511091  82.5347222  14.7482723  76.7275871  62.9103248
  14.7361393  77.6717711  63.0671519  15.6406145  76.5446017  62.6162709
  12.9218685  96.6513775  74.3360926  13.8245932  96.6837386  74.6527421
  12.6956055  95.7214226  74.3507262  14.6772287  95.4044762  70.9971005
  13.7267918  95.4046623  70.8835377  14.9804773  94.6577496  70.4807039
  18.5634842  73.3218648  67.1649185  17.7967238  72.7677135  67.3105867
  18.9745547  73.3940517  68.0263336  10.5676603  79.6103444  81.2554366
  11.4308065  79.2540249  81.4657691   9.9942014  79.2717339  81.9429770
  30.4124980 101.2405300  72.0616767  31.0503390 101.1212048  71.3580107
  30.2945823 102.1886144  72.1204719  27.2214687 101.1932728  71.9978292
  26.8833198 101.0773793  71.1098827  28.0904455 100.7923893  71.9779298
  23.0801502 103.0468205  67.9875183  22.5166368 102.9558142  67.2191470
  22.9653897 102.2268109  68.4677675  27.7034470 102.3467580  77.9564497
  27.6923110 101.9520378  77.0845001  27.8655109 101.6133653  78.5498269
  20.6265934 104.5419396  70.8259403  21.4187226 104.2010221  70.4105702
  20.8662584 104.6514371  71.7461556  28.6601061 106.7139172  63.2989648
  28.0089041 107.2993253  62.9123661  29.4545424 107.2445367  63.3584685
  22.5856688 103.8028310  63.6976782  23.3587564 103.2557297  63.5589658
  22.9382087 104.6672559  63.9091243  24.4241731 105.1304692  76.9043681
  24.1331597 106.0350323  76.7890348  25.0598715 105.1721220  77.6187751
  25.3497938 102.5081540  73.4945041  25.9461510 102.2837563  72.7802004
  25.4072909 101.7666286  74.0970489  24.9222966  99.9620976  61.3295232
  25.1748487  99.4402497  60.5678695  23.9847525  99.7987121  61.4321915
  29.9666249  98.9656754  69.1369975  30.7529338  98.5476177  68.7860392
  30.2304953  99.8702846  69.3051623  30.1376326 104.4029604  63.8358632
  29.5022159 104.4764231  64.5479537  29.8073733 104.9923203  63.1577711
  35.3674676  98.9031987  70.0402954  36.0999848  98.3331204  70.2740783
  34.6114032  98.5153588  70.4809459  24.6419255 101.8649082  63.5319607
  24.5255513 101.1893985  64.2000691  24.7521515 101.3781456  62.7151760
  26.9850796 101.3259229  67.2366296  26.6209003 100.7989850  67.9479218
  27.8417912 100.9357698  67.0632781  32.8900096  92.6153561  74.4997562
  32.5583421  93.4848972  74.2758777  32.2945710  92.2989845  75.1791593
  26.6256283  96.3549128  62.2327645  26.7930685  97.2229365  62.5998116
  26.4353452  96.5176410  61.3088934  29.3831616 104.8166107  73.8993475
  29.0832339 105.7191146  73.7909282  29.0382675 104.5498291  74.7514628
  22.8344097 101.2679904  69.9330179  21.9094594 101.1356118  70.1407871
  23.0828511 102.0474123  70.4300122  32.7828760  97.3348648  71.5790912
  31.8745637  97.2664056  71.2849673  32.7316355  97.8120593  72.4072738
  26.6045504  98.8106786  63.2174311  26.4845129  99.2563837  64.0559792
  25.9098092  99.1592104  62.6587850  20.1952908 100.9113178  70.7673968
  20.3245290 101.1647657  71.6813380  19.5150360 101.5040886  70.4478623
  24.3652396 111.5810428  66.8664443  24.2876425 112.5318253  66.9452923
  23.7614039 111.2356300  67.5239369  26.8569625  98.7538293  79.5225810
  26.0802960  99.3132213  79.5128674  27.4960189  99.2395076  80.0440680
  34.6490406  95.5365086  73.3568786  34.0064786  95.8297619  72.7108581
  34.1445335  95.4218006  74.1621983  32.3030570  99.2828259  64.0454645
  33.2148426  99.5155646  63.8702343  31.7940217  99.8665303  63.4829724
  25.1115998 101.5623747  79.0843777  25.8530682 102.1008791  78.8078600
  24.4052983 102.1890035  79.2415328  30.5871337 103.7052887  77.6815938
  30.9954693 103.2635298  76.9370570  29.8648599 103.1305515  77.9350131
  26.9402407  98.6425494  75.0549495  27.7863603  99.0664907  75.1984144
  26.8801045  97.9859118  75.7488058  30.9100152 104.2654078  71.4368227
  30.2809014 104.4299792  70.7344295  30.5225814 104.6795687  72.2079191
  34.7889384 105.2008515  68.7912591  34.1040422 105.5807417  68.2409624
  34.8733233 105.8103842  69.5244538  30.0901853  96.3029862  76.7130669
  29.8462785  97.0571923  76.1764944  30.3661783  96.6815210  77.5477916
  32.0440316 102.8468475  75.3907934  32.2557211 103.4900234  74.7142315
  31.9970064 102.0130791  74.9229864  29.6466545  95.4586295  72.2944506
  28.7851024  95.7567549  72.5861244  29.6728979  95.6756694  71.3625539
  26.4628114 104.0028486  68.7018312  26.9266459 104.2816189  67.9122934
  26.1984912 103.1011930  68.5191403  23.3552195 103.5499967  71.6398075
  23.9253552 103.9787236  71.0015560  23.9460307 103.2682552  72.3382261
  25.3997000 100.1251638  65.5107877  26.1021043 100.5772682  65.9781803
  25.0677628  99.4835457  66.1387770  23.8477362  98.7163395  79.8859087
  23.2176022  99.3979676  80.1194483  23.7413449  98.6046476  78.9412225
  19.1422334  98.3835191  70.8125011  18.3521388  98.6392719  70.3365121
  19.6333581  99.1983529  70.9177051  33.1586143 105.7240430  73.5630292
  33.9803587 105.3220617  73.2812973  33.1548546 105.6208664  74.5146407
  21.0937079  98.7479770  67.7708487  20.2968243  98.8598464  68.2891983
  20.8662672  99.0866422  66.9049378  26.9242747 105.2724473  75.7191002
  26.9887179 105.7344880  76.5549174  26.2153671 104.6421838  75.8473312
  17.4260037  98.6365681  73.2440001  17.6768075  99.5212691  73.5097577
  17.9619585  98.4570283  72.4715093  41.2492137 102.0679178  69.9115263
  40.4955845 101.4986576  69.7559267  41.3839678 102.0341843  70.8585898
  26.6390765 106.9392581  65.5869982  26.5036439 107.7844116  66.0154830
  27.1800577 107.1411858  64.8235916  23.1258104  93.0184161  82.2484338
  22.7325050  92.4650359  82.9231982  23.9424245  93.3294739  82.6390855
  20.0920162 104.4568019  66.1597907  20.6044683 105.2511269  66.3103472
  20.7442875 103.7594309  66.0931509  21.9015047 107.5733775  68.2420661
  22.0781675 108.4951740  68.0541645  22.6971880 107.2592194  68.6715040
  26.0426065  94.4342040  79.8404594  26.7835779  95.0349193  79.7609057
  26.2743988  93.6919677  79.2822637  21.1867403  99.6198407  78.1182824
  21.0720918  98.7183664  78.4189923  20.3311921  99.8662104  77.7667640
  28.2659241 107.5616147  79.7170324  27.8223095 106.7752526  79.3991229
  28.9276455 107.7495298  79.0514215  23.0246362 109.0911949  74.2431003
  23.5753787 108.9629012  73.4707997  22.1857838 109.3906838  73.8925896
  30.3640479 107.8418947  77.7451726  30.3458954 108.6627828  77.2531995
  31.2860399 107.7173022  77.9701867  26.8213533 105.3563077  78.5875234
  27.3541870 104.5951365  78.3574542  26.2927614 105.0636728  79.3299389
  29.9883228  90.4623143  74.1168876  29.6447498  91.3524784  74.0407986
  30.3562191  90.2724800  73.2538461  18.0569079 102.7856673  66.9357478
  18.8944301 103.1953681  66.7191186  18.2347346 101.8456115  66.9057672
  29.9533511 100.4531754  62.6241311  29.4380134 101.2236358  62.8629698
  29.6810819  99.7796890  63.2474372  27.5380622  95.2981454  67.6826549
  26.6822218  94.9088305  67.5032188  27.9507574  95.3773415  66.8226335
  29.0679769  92.8327798  72.0818109  28.5644564  92.7957933  71.2685914
  29.3610375  93.7420540  72.1414766  25.3122654  92.9166527  71.0884291
  26.1775651  92.7209336  70.7290180  25.3800163  92.6876879  72.0153648
  34.9267785 103.2064108  64.5594484  34.1497228 102.8675268  64.1149646
  35.6059266 103.2116732  63.8849449  29.7419814  98.3258846  64.4501092
  29.4369950  98.6404995  65.3011235  30.6950256  98.4040266  64.4928425
  28.1866246 104.4849069  66.0994046  27.6587607 103.7501829  65.7867284
  27.6853749 105.2623745  65.8534014  33.1659092 102.6798090  71.2161092
  32.5082766 103.3697351  71.3041221  33.9699491 103.0694522  71.5595079
  22.9184974  95.1468735  68.4600658  23.4928725  94.9243917  67.7273851
  23.5055956  95.2157430  69.2129259  31.9764551 101.0342462  69.2665034
  32.4896432 101.6672454  69.7686744  32.6265775 100.4343658  68.9008394
  23.2454561  97.1773196  62.4796543  22.4091873  97.5147883  62.8005818
  23.1059330  97.0422176  61.5423680  25.2207641  92.0209984  67.1875727
  24.5672054  91.7059001  66.5632342  25.1788115  91.3985725  67.9135550
  26.3318846 102.3029279  59.1029019  25.4245908 102.0718533  59.3020168
  26.8289878 101.5066899  59.2903001  29.2386925 111.0126787  62.0225705
  28.5648624 111.3158483  62.6310663  29.6252747 111.8155867  61.6731162
  28.4545382  98.5091918  71.5123375  27.5367943  98.7306865  71.3545063
  28.8705525  98.5838228  70.6535082  29.2380429  99.9083334  66.6426055
  29.9852248 100.4204731  66.3333177  29.5072019  99.5867386  67.5030448
  27.5107080 102.4041874  63.6253009  26.6018299 102.1200907  63.7225479
  27.5402163 102.8240953  62.7656316  32.7426347 106.0148464  67.3944177
  32.2888674 105.1739374  67.4509367  32.1120314 106.6509862  67.7318957
  31.6859267  96.9440450  68.6244844  30.9482023  96.4317836  68.9555087
  31.9386040  96.5040831  67.8128121  31.1859286 107.8524960  68.3293995
  31.4782261 108.4130018  67.6106361  31.6957907 108.1453521  69.0847154
  31.7870894  89.7216702  69.2186614  32.0929771  88.8614065  68.9312529
  32.5123499  90.3134322  69.0185607  18.0795250 100.1247388  67.6068211
  17.8819650  99.5316749  66.8819278  17.5241914  99.8199599  68.3244150
  26.0591974 100.0170495  69.7262805  26.1140583  99.0644331  69.6505281
  25.2483176 100.1729934  70.2104103  27.2083167 103.9450618  60.9641088
  26.7702597 103.2286477  60.5046725  27.9493608 104.1726733  60.4026179
  23.9984333  98.6347555  67.4853183  23.1852199  98.9341725  67.8918376
  24.4943328  98.2403243  68.2027666  26.1492911 108.6305312  69.4187448
  26.1069090 108.8566158  68.4895980  27.0655610 108.3968686  69.5673249
  29.5958545  99.0989379  76.3168077  29.9507933  99.3260852  77.1762543
  30.2430676  99.4307756  75.6945333  35.3256282 102.2207815  67.0217406
  35.1874181 102.4109411  66.0938596  34.9692501 102.9827198  67.4785457
  23.4898408  96.2065910  73.1014418  24.1297788  96.0654669  72.4037382
  22.6575939  95.9200423  72.7253020  35.3525662 104.2884342  72.0328678
  35.7862168 104.1959631  72.8811732  36.0657242 104.2641842  71.3948694
  24.2658712 105.5068341  69.2149411  25.0599311 105.0118661  69.0131986
  23.5550405 104.9786204  68.8517116  29.0853557 107.8886436  73.5661778
  29.1390579 108.4577372  74.3339494  28.2168338 108.0588321  73.2015816
  20.5741476  99.6511422  65.2909164  19.6439064  99.5895878  65.5079126
  20.6698948  99.1287375  64.4945805  20.4927025  96.1766235  67.8787405
  20.7533842  97.0911568  67.7696566  21.3144197  95.7090678  68.0284018
  21.9651950  97.5903992  75.0486230  22.6375003  97.3821354  74.3998879
  21.1381737  97.3926078  74.6091462  36.2141211 104.3308043  74.5661563
  36.4077101 105.2353853  74.8120838  36.1141829 103.8715462  75.4000148
  27.8677522  94.2165933  77.0651891  27.2205437  94.9155883  76.9716367
  28.6378537  94.6502077  77.4328139  31.2756320 104.4814785  80.1402444
  31.1241826 104.2525337  79.2232528  31.2660999 105.4385387  80.1533789
  28.0441656 102.0546698  75.1248710  28.9733716 102.2057858  74.9517678
  27.6232686 102.1430719  74.2697357  26.8429988 106.0797363  72.8947248
  26.7041074 105.7116147  73.7673186  26.0544584 106.5945002  72.7231206
  27.4378140 111.1806459  64.2372784  27.6129896 110.7094502  65.0518407
  26.7510928 111.8072225  64.4654045  28.3935203 105.4578965  70.2836086
  28.0585036 105.4179735  71.1793736  27.8939149 104.7923681  69.8106496
  22.3679447 100.8646595  75.8088667  22.2299245 100.1326834  76.4100206
  23.2784371 100.7755495  75.5272855  31.3294395 102.8035000  60.5573145
  30.7123566 102.0781828  60.4606198  30.8610883 103.5644360  60.2140220
  24.9961748 100.5766555  75.2972347  25.7061366  99.9359747  75.2558965
  24.9531056 100.8279449  76.2198527  32.9848527 107.5133908  78.2178926
  32.9261073 106.8293128  77.5509509  33.3868045 108.2552898  77.7659552
  23.7090682  97.5631772  77.1167986  23.1728039  97.1122511  77.7689582
  23.1207390  97.6977681  76.3738450  22.0039225 114.3295822  71.0112645
  22.2435824 114.9614346  71.6891663  21.1608422 113.9783862  71.2978004
  23.1192941  97.0220424  59.6794450  22.2422407  96.9009225  59.3156696
  23.5950694  96.2306502  59.4273338  32.9865934 105.4773492  76.4492905
  32.0992713 105.1399414  76.5719304  33.5564485 104.7456523  76.6861671
  14.6395081 101.8097584  69.7735957  15.3266121 101.4959314  69.1856972
  14.4843210 102.7138948  69.5003208  19.4429803  96.6987780  74.2020981
  19.3587992  96.0913450  73.4671390  18.6212510  97.1896798  74.2030477
  26.5167087 110.1374944  73.4154149  26.4437259 110.9429916  73.9273453
  26.0744480 110.3366910  72.5902170  26.3056867 109.3746714  66.9256970
  25.5224389 109.9168394  67.0195195  27.0049612 109.8920694  67.3251211
  29.6153517  95.1841344  69.5691176  30.1122217  94.4311306  69.2492246
  28.8440499  95.2205660  69.0034385  37.4683274 100.8881709  71.2109467
  37.4573151 101.7706425  70.8403400  36.6000654 100.5353260  71.0164004
  28.9765771 110.0361778  75.5712307  29.6893743 110.6709243  75.4988209
  28.4855799 110.1325644  74.7552309  30.6983298 103.9413031  67.1429599
  29.7639576 104.0614493  66.9734303  30.8759966 103.0385498  66.8789609
  26.1988486  97.3258727  69.2962860  25.8286273  96.7729767  69.9843766
  26.6947578  96.7216860  68.7437860  34.0855849  99.7830350  67.6779633
  34.5516301 100.6158342  67.6039936  34.5363350  99.3175332  68.3824892
  24.0277684 107.7856222  76.3917878  24.7287144 108.4192705  76.5447272
  23.5572799 108.1270953  75.6313517  32.1532080 106.1274171  64.6765785
  32.4291924 106.0130766  65.5859659  31.2836579 105.7291656  64.6377958
  32.0572512  92.1510937  71.7170534  31.1435592  92.3815164  71.8852741
  32.4865613  92.2349381  72.5684567  31.8278970 100.3400829  74.2170428
  31.1750421 100.5876737  73.5622881  32.2059350  99.5264967  73.8832906
  28.7886144 110.3760522  68.3198599  28.9708539 109.5582178  68.7826351
  29.6119130 110.5928215  67.8823489  29.1228310 109.3028707  65.5813647
  29.6516076 108.7921162  64.9683809  29.3856529 108.9871238  66.4459180
  27.8766543 101.0820640  80.7036466  27.2007180 100.9814770  81.3738841
  28.6994177 100.9259854  81.1672463  19.6245402 107.3192577  73.3248981
  20.2098839 106.5736265  73.4576885  19.4270241 107.6296533  74.2085645
  22.4784058 110.3543824  68.3411423  21.8094433 110.8389952  67.8575463
  22.3396927 110.6013045  69.2554802  14.2163057  99.8898177  72.0453424
  14.2547157  99.3561768  72.8390542  13.7103350  99.3633382  71.4264401
  26.6189326 112.3887568  74.9394082  27.1707634 112.5519189  75.7043167
  26.9595520 112.9792005  74.2674106  21.5953819  94.7362717  75.5415966
  21.6595146  95.5977548  75.1293364  21.5320940  94.1236719  74.8088325
  21.0706092  96.8085850  79.1889000  21.6978131  96.4262927  79.8026525
  20.2134011  96.5900052  79.5544693  31.4700201 107.2148825  80.7942736
  32.0140104 107.8278783  80.2997691  30.8887045 107.7728404  81.3109749
  17.8471635  98.6162279  65.1207355  18.1425076  97.7072958  65.0674409
  16.9459670  98.5950019  64.7988358  29.7557713 110.3369543  71.9257764
  29.6308853 109.5359283  71.4168709  30.4136805 110.8315737  71.4371734
  21.3765882  96.6918276  71.1034904  20.6552467  97.3054243  70.9642377
  22.1659137  97.2276040  71.0251550  31.8192622 108.1378563  73.5537314
  30.8722957 108.0183914  73.4815641  32.1675395 107.2501061  73.6363575
  24.1792195  94.0272702  77.3775556  24.7026597  94.2734999  78.1401865
  23.9604528  94.8592737  76.9578693  19.5759476  96.2976377  65.2446680
  19.2472182  95.4173756  65.0621786  19.9298847  96.2424045  66.1323070
  28.8239055 107.9331279  69.7541666  28.6764018 107.0047987  69.9349236
  29.6492549 107.9551370  69.2698741  22.6901299  96.5849347  65.6122158
  23.0297372  97.1135268  64.8900767  23.1373420  96.9229753  66.3880725
  32.4273177 108.7559838  70.8406539  33.3519724 108.5502700  70.7030990
  32.2588480 108.5076239  71.7495880  25.3844740  94.9686397  75.0625226
  25.0441561  94.1694210  75.4645906  24.6783747  95.2688108  74.4902059
  26.0361212  92.0535710  73.5152549  26.8587281  91.5796188  73.3931440
  26.2799276  92.8326193  74.0151236  24.6769447  95.0823968  63.8115451
  25.3977809  95.4605221  63.3079168  24.0534751  95.8012845  63.9150429
  28.8200569  95.7869117  64.7473783  29.0364184  96.6693755  64.4462611
  28.3394637  95.3955331  64.0179425  23.5599791  98.7454830  71.3244528
  23.4144372  99.0595133  72.2168809  23.0824994  99.3639731  70.7715426
  25.4196174  95.7357378  71.3725417  25.4057742  94.8398472  71.0357715
  26.1368602  95.7428042  72.0063703  27.2722304  96.1694719  73.4178545
  27.0140082  97.0911789  73.4162875  26.7407345  95.7725153  74.1079009
  32.2168493 109.2745506  66.1968630  32.3905371 108.7091928  65.4442483
  32.7097384 110.0746401  66.0148120  18.0345453 101.2860175  74.2632189
  17.4898921 102.0619983  74.3952463  18.9124803 101.6330979  74.1051310
  24.8233070  94.6171759  66.6412988  24.9448981  93.6888405  66.8403875
  24.5335112  94.6310445  65.7291303  27.6924260  92.3026669  69.7779707
  27.7145957  92.3666002  68.8231687  28.1092319  91.4631178  69.9720214
  38.0707884 102.0381929  67.8158930  38.5139030 101.2889254  67.4178053
  37.1934395 102.0292065  67.4332662  33.2043666 108.5912270  63.2965528
  33.8994570 109.2118963  63.5152843  33.5466816 107.7407621  63.5717906
  18.8211475 100.4130071  77.1562346  18.0793211 100.5612706  77.7426976
  18.5004219 100.6738337  76.2929095  35.1035089 106.0411976  64.8252859
  35.6286413 106.3799248  64.1002179  35.0157441 105.1058991  64.6415994
  26.7655138 109.9546049  76.9542736  27.0742264 109.7095196  77.8265435
  27.5630620 110.1592688  76.4661606  26.7875750 112.1083959  69.1848112
  26.3480740 111.6160338  69.8780969  27.5383867 111.5656927  68.9440188
  19.2668089 108.2995500  69.1872741  20.0926108 107.9999272  68.8071384
  18.9162141 107.5303122  69.6362529  24.2349622 107.6521968  71.2570414
  23.6129631 106.9892673  70.9572642  24.9054489 107.6783100  70.5744062
  17.4676694 106.2181826  70.1461674  16.6308602 105.7904001  69.9645675
  17.4400339 106.4114270  71.0832465  24.3074149  96.1303756  80.8502920
  24.3562305  97.0065879  80.4680690  24.8496663  95.5881149  80.2774563
  34.7928995 106.6744879  80.1304057  34.0024539 106.6569018  79.5908557
  34.5562349 107.2133173  80.8853094  34.9126870 103.5237346  77.4436786
  34.9624875 103.3587353  78.3852309  34.8040793 102.6564605  77.0534667
  23.7963129 106.2025891  64.7328875  23.9451249 106.8861356  64.0795547
  24.6029572 106.1830981  65.2478330  32.2030632  99.5068274  78.7596092
  33.1040495  99.3674738  78.4680090  32.2778607  99.6722728  79.6994270
  26.5373438  96.8835128  77.6049279  25.6676747  97.1768694  77.3331867
  26.7732918  97.4675573  78.3256542  36.4145067 105.9434287  77.6878807
  36.1229875 106.3064268  78.5242268  35.8017198 105.2301295  77.5092139
  37.6140749 103.5087167  70.2081378  38.4487640 103.9476971  70.3718938
  37.7499878 103.0325820  69.3889623  34.6632255 101.0666902  76.1558865
  35.1386377 101.2594548  75.3477717  33.7397820 101.1226088  75.9102249
  21.5515762 102.2291069  65.7389944  21.3061804 101.3253399  65.9370154
  21.7211676 102.2308219  64.7969422  29.2412471  93.1014745  75.1214699
  29.7594415  93.8375772  74.7961188  28.8867604  93.4078739  75.9561458
  20.8211409  97.9619427  63.2376105  20.1280654  98.0363781  62.5816141
  20.5763161  97.1979770  63.7597622  29.4925066  89.5215028  70.6415596
  29.7726819  88.8538217  71.2676022  30.2775673  89.7144123  70.1290260
  27.2958534 108.6974022  62.2040622  26.7232501 109.3164209  61.7511094
  27.8691328 109.2473383  62.7380544  33.3633924  97.9432662  74.3887171
  34.3151347  98.0430760  74.4099395  33.1937374  97.1510930  74.8985255
  31.3848303  95.0288245  74.5746572  30.7898236  95.3093258  73.8793060
  31.0998000  95.5182146  75.3463313  30.5155794 108.9811172  63.3349204
  31.4486467 108.9156734  63.5382080  30.4279007 109.8167439  62.8763737
  33.1443811 108.2977042  60.2953152  33.0657442 107.9636906  61.1888910
  33.9653477 108.7898810  60.2944624  35.8422002 101.1638782  73.5029471
  35.8098322 100.2254782  73.6889154  36.4522625 101.2422818  72.7695295
  27.6805333 100.0334835  59.5456675  28.6264437  99.9041043  59.6145093
  27.3019578  99.2949496  60.0226103  35.9916490  97.9549825  73.5487754
  35.4755539  97.1708282  73.3617683  36.8756439  97.6268542  73.7134273
  33.6527217  91.6990841  69.5083566  33.4552038  91.3905929  70.3926898
  34.2626923  92.4252479  69.6381496  41.6598552 102.2254788  72.6435507
  42.3901940 101.9640076  73.2043211  41.0505497 101.4883510  72.6837575
  39.7413849 100.3662651  73.2409959  39.0147012 100.2318616  72.6326450
  39.3261136 100.6739480  74.0466677  27.5644025 104.0852581  81.0057332
  28.4847035 104.2631180  81.1997378  27.5293608 103.1408626  80.8537031
  25.8648250  97.9584811  59.4811560  24.9579705  97.6617924  59.5574273
  26.1424231  97.6614629  58.6145846  16.7826190  99.2791174  69.9310606
  16.4628975  98.4256482  69.6384980  16.2359618  99.4939752  70.6868574
  20.5606098 101.9953615  73.6480113  20.7792108 102.9270723  73.6668147
  20.9731872 101.6361590  74.4334917  27.4810316  92.5021701  65.6355801
  26.6711044  92.1568786  66.0111047  28.1694732  92.1929244  66.2243413
  29.4100864  91.5799747  67.2580098  29.9631902  91.9995201  67.9170121
  29.6470950  90.6535496  67.3003054  25.4333963  97.5686821  83.0382862
  25.3330690  98.5181178  82.9694953  25.2155505  97.2405060  82.1658932
  24.6347034  94.8171746  59.6223539  25.4966198  95.1426644  59.8819356
  24.8197379  94.0303242  59.1096605  16.6514450 102.8994086  71.9003728
  15.9577922 102.4848039  71.3873682  17.3987441 102.9414622  71.3037147
  32.7879671  93.6900273  66.7658762  32.2078340  94.3485077  66.3836814
  32.5215604  92.8677617  66.3546179  31.2383237  93.0905330  68.9680082
  31.7383016  93.2021865  68.1594401  31.8818845  92.7866383  69.6080891
  25.2965233 100.9983960  81.8547923  24.8132315 101.7984320  82.0611812
  25.3826172 101.0091905  80.9015367  18.5651193 102.8312340  69.7769743
  18.5421881 102.9300027  68.8251626  18.8751829 103.6777490  70.0986909
  21.2238571 104.8888495  73.8916357  22.1781824 104.8572437  73.8246289
  21.0251094 104.4279118  74.7066583  21.8137953 103.4589611  76.4587155
  22.6330842 103.9533689  76.4821992  22.0874760 102.5421579  76.4304722
  31.5704549  95.8500363  65.8215110  30.6830404  96.1350014  65.6035305
  31.9858538  95.6894126  64.9742387  34.9219085  95.8746884  69.5369450
  35.6979475  96.3643336  69.8094066  34.1967219  96.3004938  69.9941319
  37.3591644  96.5874503  70.5943390  37.9536134  96.3470239  69.8836698
  37.4318227  95.8681634  71.2216926  19.5788799 110.4308114  70.9086555
  19.4443267 109.6708515  70.3424553  19.1620862 111.1549014  70.4415344
  30.7147762 105.6145038  59.9163130  31.4183613 105.8195040  60.5320786
  29.9910411 106.1821800  60.1812214  31.5445573 101.3654899  66.0365400
  31.4880774 101.8223450  65.1973033  32.0973915 100.6045583  65.8588243
  35.3550379  97.1544631  66.8615520  35.0987313  96.7541266  67.6923728
  34.7303247  97.8688425  66.7365659  39.6662716  99.8940704  69.3686811
  39.1062274  99.9633893  70.1418373  39.0606220  99.7181689  68.6486308
  22.7357925 111.3277431  71.1204998  22.6190309 112.2722864  71.0183688
  21.9150372 111.0250993  71.5090797  32.6234460 106.0527567  61.9661590
  33.4580064 105.6208765  61.7839065  32.4618803 105.8809581  62.8938485
  32.2780352 102.5559680  63.3317930  32.2229156 102.3903952  62.3906374
  31.6526407 103.2635713  63.4880119  17.0672867  97.7927745  77.1579352
  17.7131731  97.2826698  77.6466577  16.8590018  98.5296426  77.7322777
  29.5926259 104.8608592  82.6571492  30.4617419 105.0349244  82.2958127
  29.1133011 105.6803009  82.5347222  25.5876477  92.0567789  62.9103248
  25.5755147  93.0009629  63.0671519  26.4799899  91.8737935  62.6162709
  23.7612439 111.9805693  74.3360926  24.6639686 112.0129303  74.6527421
  23.5349809 111.0506144  74.3507262  25.5166041 110.7336680  70.9971005
  24.5661672 110.7338541  70.8835377  25.8198528 109.9869414  70.4807039
  29.4028597  88.6510566  67.1649185  28.6360993  88.0969052  67.3105867
  29.8139302  88.7232435  68.0263336  21.4070358  94.9395362  81.2554366
  22.2701820  94.5832166  81.4657691  20.8335769  94.6009256  81.9429770
  41.2518735 116.5697218  72.0616767  41.8897145 116.4503965  71.3580107
  41.1339578 117.5178062  72.1204719  38.0608441 116.5224646  71.9978292
  37.7226953 116.4065711  71.1098827  38.9298209 116.1215811  71.9779298
  33.9195257 118.3760122  67.9875183  33.3560122 118.2850059  67.2191470
  33.8047652 117.5560027  68.4677675  38.5428224 117.6759498  77.9564497
  38.5316865 117.2812296  77.0845001  38.7048864 116.9425570  78.5498269
  31.4659689 119.8711314  70.8259403  32.2580981 119.5302139  70.4105702
  31.7056339 119.9806289  71.7461556  39.4994816 122.0431090  63.2989648
  38.8482795 122.6285171  62.9123661  40.2939178 122.5737285  63.3584685
  33.4250443 119.1320227  63.6976782  34.1981319 118.5849214  63.5589658
  33.7775842 119.9964477  63.9091243  35.2635485 120.4596610  76.9043681
  34.9725351 121.3642240  76.7890348  35.8992470 120.5013137  77.6187751
  36.1891692 117.8373458  73.4945041  36.7855264 117.6129480  72.7802004
  36.2466664 117.0958204  74.0970489  35.7616721 115.2912893  61.3295232
  36.0142241 114.7694415  60.5678695  34.8241280 115.1279039  61.4321915
  40.8060003 114.2948672  69.1369975  41.5923093 113.8768095  68.7860392
  41.0698708 115.1994764  69.3051623  40.9770081 119.7321522  63.8358632
  40.3415914 119.8056149  64.5479537  40.6467487 120.3215121  63.1577711
  46.2068431 114.2323905  70.0402954  46.9393602 113.6623122  70.2740783
  45.4507786 113.8445505  70.4809459  35.4813009 117.1940999  63.5319607
  35.3649267 116.5185903  64.2000691  35.5915269 116.7073373  62.7151760
  37.8244550 116.6551146  67.2366296  37.4602757 116.1281767  67.9479218
  38.6811666 116.2649616  67.0632781  43.7293851 107.9445479  74.4997562
  43.3977176 108.8140890  74.2758777  43.1339464 107.6281763  75.1791593
  37.4650037 111.6841046  62.2327645  37.6324440 112.5521283  62.5998116
  37.2747206 111.8468328  61.3088934  40.2225370 120.1458025  73.8993475
  39.9226093 121.0483064  73.7909282  39.8776430 119.8790208  74.7514628
  33.6737852 116.5971822  69.9330179  32.7488348 116.4648036  70.1407871
  33.9222265 117.3766041  70.4300122  43.6222514 112.6640565  71.5790912
  42.7139392 112.5955974  71.2849673  43.5710110 113.1412510  72.4072738
  37.4439258 114.1398704  63.2174311  37.3238883 114.5855754  64.0559792
  36.7491846 114.4884021  62.6587850  31.0346663 116.2405095  70.7673968
  31.1639044 116.4939574  71.6813380  30.3544114 116.8332803  70.4478623
  35.2046150 126.9102345  66.8664443  35.1270180 127.8610171  66.9452923
  34.6007794 126.5648218  67.5239369  37.6963380 114.0830211  79.5225810
  36.9196714 114.6424131  79.5128674  38.3353943 114.5686994  80.0440680
  45.4884161 110.8657004  73.3568786  44.8458541 111.1589537  72.7108581
  44.9839089 110.7509924  74.1621983  43.1424324 114.6120177  64.0454645
  44.0542180 114.8447564  63.8702343  42.6333971 115.1957221  63.4829724
  35.9509752 116.8915664  79.0843777  36.6924437 117.4300708  78.8078600
  35.2446738 117.5181953  79.2415328  41.4265092 119.0344805  77.6815938
  41.8348448 118.5927215  76.9370570  40.7042353 118.4597432  77.9350131
  37.7796162 113.9717411  75.0549495  38.6257357 114.3956825  75.1984144
  37.7194800 113.3151036  75.7488058  41.7493907 119.5945995  71.4368227
  41.1202769 119.7591709  70.7344295  41.3619569 120.0087605  72.2079191
  45.6283138 120.5300433  68.7912591  44.9434177 120.9099335  68.2409624
  45.7126988 121.1395760  69.5244538  40.9295607 111.6321780  76.7130669
  40.6856539 112.3863840  76.1764944  41.2055538 112.0107127  77.5477916
  42.8834070 118.1760392  75.3907934  43.0950965 118.8192152  74.7142315
  42.8363818 117.3422709  74.9229864  40.4860299 110.7878213  72.2944506
  39.6244778 111.0859466  72.5861244  40.5122734 111.0048612  71.3625539
  37.3021868 119.3320403  68.7018312  37.7660214 119.6108106  67.9122934
  37.0378667 118.4303848  68.5191403  34.1945949 118.8791885  71.6398075
  34.7647307 119.3079153  71.0015560  34.7854061 118.5974470  72.3382261
  36.2390754 115.4543556  65.5107877  36.9414798 115.9064599  65.9781803
  35.9071383 114.8127375  66.1387770  34.6871116 114.0455312  79.8859087
  34.0569777 114.7271593  80.1194483  34.5807204 113.9338394  78.9412225
  29.9816088 113.7127108  70.8125011  29.1915142 113.9684637  70.3365121
  30.4727336 114.5275446  70.9177051  43.9979898 121.0532348  73.5630292
  44.8197342 120.6512535  73.2812973  43.9942301 120.9500582  74.5146407
  31.9330834 114.0771688  67.7708487  31.1361997 114.1890382  68.2891983
  31.7056426 114.4158340  66.9049378  37.7636501 120.6016391  75.7191002
  37.8280934 121.0636798  76.5549174  37.0547425 119.9713756  75.8473312
  28.2653791 113.9657599  73.2440001  28.5161830 114.8504609  73.5097577
  28.8013340 113.7862200  72.4715093  52.0885891 117.3971096  69.9115263
  51.3349599 116.8278494  69.7559267  52.2233432 117.3633761  70.8585898
  37.4784519 122.2684498  65.5869982  37.3430194 123.1136034  66.0154830
  38.0194332 122.4703776  64.8235916  33.9651859 108.3476078  82.2484338
  33.5718804 107.7942277  82.9231982  34.7817999 108.6586657  82.6390855
  30.9313916 119.7859936  66.1597907  31.4438437 120.5803187  66.3103472
  31.5836629 119.0886227  66.0931509  32.7408801 122.9025693  68.2420661
  32.9175430 123.8243657  68.0541645  33.5365635 122.5884112  68.6715040
  36.8819820 109.7633957  79.8404594  37.6229533 110.3641110  79.7609057
  37.1137743 109.0211595  79.2822637  32.0261158 114.9490325  78.1182824
  31.9114673 114.0475582  78.4189923  31.1705675 115.1954021  77.7667640
  39.1052995 122.8908065  79.7170324  38.6616850 122.1044443  79.3991229
  39.7670209 123.0787215  79.0514215  33.8640117 124.4203866  74.2431003
  34.4147542 124.2920930  73.4707997  33.0251593 124.7198756  73.8925896
  41.2034234 123.1710865  77.7451726  41.1852709 123.9919746  77.2531995
  42.1254154 123.0464940  77.9701867  37.6607288 120.6854994  78.5875234
  38.1935624 119.9243282  78.3574542  37.1321369 120.3928646  79.3299389
  40.8276983 105.7915060  74.1168876  40.4841252 106.6816702  74.0407986
  41.1955945 105.6016718  73.2538461  28.8962833 118.1148591  66.9357478
  29.7338055 118.5245599  66.7191186  29.0741101 117.1748033  66.9057672
  40.7927265 115.7823671  62.6241311  40.2773889 116.5528276  62.8629698
  40.5204574 115.1088808  63.2474372  38.3774376 110.6273372  67.6826549
  37.5215973 110.2380223  67.5032188  38.7901328 110.7065333  66.8226335
  39.9073523 108.1619715  72.0818109  39.4038319 108.1249851  71.2685914
  40.2004130 109.0712458  72.1414766  36.1516409 108.2458445  71.0884291
  37.0169406 108.0501254  70.7290180  36.2193918 108.0168797  72.0153648
  45.7661540 118.5356026  64.5594484  44.9890982 118.1967186  64.1149646
  46.4453020 118.5408649  63.8849449  40.5813569 113.6550763  64.4501092
  40.2763704 113.9696913  65.3011235  41.5344011 113.7332183  64.4928425
  39.0260000 119.8140987  66.0994046  38.4981362 119.0793746  65.7867284
  38.5247503 120.5915663  65.8534014  44.0052846 118.0090007  71.2161092
  43.3476521 118.6989269  71.3041221  44.8093246 118.3986439  71.5595079
  33.7578728 110.4760653  68.4600658  34.3322480 110.2535835  67.7273851
  34.3449710 110.5449348  69.2129259  42.8158305 116.3634380  69.2665034
  43.3290187 116.9964372  69.7686744  43.4659529 115.7635575  68.9008394
  34.0848315 112.5065114  62.4796543  33.2485627 112.8439801  62.8005818
  33.9453085 112.3714094  61.5423680  36.0601396 107.3501902  67.1875727
  35.4065808 107.0350919  66.5632342  36.0181870 106.7277642  67.9135550
  37.1712601 117.6321197  59.1029019  36.2639662 117.4010451  59.3020168
  37.6683633 116.8358816  59.2903001  40.0780679 126.3418704  62.0225705
  39.4042378 126.6450401  62.6310663  40.4646501 127.1447785  61.6731162
  39.2939136 113.8383836  71.5123375  38.3761697 114.0598783  71.3545063
  39.7099280 113.9130146  70.6535082  40.0774184 115.2375251  66.6426055
  40.8246003 115.7496648  66.3333177  40.3465773 114.9159304  67.5030448
  38.3500834 117.7333792  63.6253009  37.4412053 117.4492825  63.7225479
  38.3795918 118.1532870  62.7656316  43.5820101 121.3440381  67.3944177
  43.1282429 120.5031291  67.4509367  42.9514068 121.9801780  67.7318957
  42.5253021 112.2732367  68.6244844  41.7875778 111.7609754  68.9555087
  42.7779795 111.8332749  67.8128121  42.0253041 123.1816878  68.3293995
  42.3176015 123.7421935  67.6106361  42.5351661 123.4745439  69.0847154
  42.6264648 105.0508619  69.2186614  42.9323525 104.1905983  68.9312529
  43.3517253 105.6426240  69.0185607  28.9189004 115.4539306  67.6068211
  28.7213404 114.8608667  66.8819278  28.3635668 115.1491516  68.3244150
  36.8985728 115.3462413  69.7262805  36.9534338 114.3936249  69.6505281
  36.0876930 115.5021852  70.2104103  38.0476922 119.2742536  60.9641088
  37.6096352 118.5578395  60.5046725  38.7887363 119.5018650  60.4026179
  34.8378088 113.9639472  67.4853183  34.0245954 114.2633643  67.8918376
  35.3337082 113.5695161  68.2027666  36.9886666 123.9597229  69.4187448
  36.9462845 124.1858076  68.4895980  37.9049365 123.7260604  69.5673249
  40.4352300 114.4281297  76.3168077  40.7901687 114.6552770  77.1762543
  41.0824431 114.7599674  75.6945333  46.1650037 117.5499733  67.0217406
  46.0267935 117.7401329  66.0938596  45.8086255 118.3119115  67.4785457
  34.3292163 111.5357828  73.1014418  34.9691542 111.3946587  72.4037382
  33.4969693 111.2492341  72.7253020  46.1919416 119.6176260  72.0328678
  46.6255923 119.5251549  72.8811732  46.9050997 119.5933760  71.3948694
  35.1052467 120.8360258  69.2149411  35.8993065 120.3410578  69.0131986
  34.3944159 120.3078121  68.8517116  39.9247311 123.2178354  73.5661778
  39.9784333 123.7869290  74.3339494  39.0562092 123.3880239  73.2015816
  31.4135230 114.9803340  65.2909164  30.4832818 114.9187795  65.5079126
  31.5092702 114.4579293  64.4945805  31.3320779 111.5058153  67.8787405
  31.5927596 112.4203486  67.7696566  32.1537951 111.0382595  68.0284018
  32.8045704 112.9195910  75.0486230  33.4768758 112.7113272  74.3998879
  31.9775491 112.7217996  74.6091462  47.0534966 119.6599960  74.5661563
  47.2470856 120.5645771  74.8120838  46.9535584 119.2007379  75.4000148
  38.7071277 109.5457851  77.0651891  38.0599192 110.2447801  76.9716367
  39.4772292 109.9793995  77.4328139  42.1150074 119.8106703  80.1402444
  41.9635581 119.5817255  79.2232528  42.1054754 120.7677304  80.1533789
  38.8835411 117.3838616  75.1248710  39.8127471 117.5349775  74.9517678
  38.4626441 117.4722637  74.2697357  37.6823743 121.4089280  72.8947248
  37.5434828 121.0408065  73.7673186  36.8938339 121.9236920  72.7231206
  38.2771895 126.5098377  64.2372784  38.4523650 126.0386420  65.0518407
  37.5904683 127.1364143  64.4654045  39.2328958 120.7870883  70.2836086
  38.8978790 120.7471653  71.1793736  38.7332903 120.1215599  69.8106496
  33.2073202 116.1938513  75.8088667  33.0693000 115.4618752  76.4100206
  34.1178125 116.1047413  75.5272855  42.1688149 118.1326917  60.5573145
  41.5517320 117.4073745  60.4606198  41.7004638 118.8936278  60.2140220
  35.8355502 115.9058472  75.2972347  36.5455121 115.2651664  75.2558965
  35.7924811 116.1571367  76.2198527  43.8242281 122.8425826  78.2178926
  43.7654827 122.1585046  77.5509509  44.2261799 123.5844816  77.7659552
  34.5484436 112.8923690  77.1167986  34.0121793 112.4414429  77.7689582
  33.9601145 113.0269599  76.3738450  32.8432980 129.6587739  71.0112645
  33.0829578 130.2906264  71.6891663  32.0002176 129.3075779  71.2978004
  33.9586695 112.3512342  59.6794450  33.0816162 112.2301142  59.3156696
  34.4344448 111.5598420  59.4273338  43.8259688 120.8065410  76.4492905
  42.9386467 120.4691331  76.5719304  44.3958239 120.0748441  76.6861671
  25.4788835 117.1389501  69.7735957  26.1659875 116.8251231  69.1856972
  25.3236964 118.0430866  69.5003208  30.2823558 112.0279698  74.2020981
  30.1981746 111.4205367  73.4671390  29.4606264 112.5188716  74.2030477
  37.3560842 125.4666862  73.4154149  37.2831013 126.2721833  73.9273453
  36.9138235 125.6658828  72.5902170  37.1450621 124.7038632  66.9256970
  36.3618143 125.2460312  67.0195195  37.8443367 125.2212612  67.3251211
  40.4547271 110.5133261  69.5691176  40.9515971 109.7603224  69.2492246
  39.6834253 110.5497578  69.0034385  48.3077029 116.2173627  71.2109467
  48.2966905 117.0998342  70.8403400  47.4394408 115.8645178  71.0164004
  39.8159525 125.3653696  75.5712307  40.5287497 126.0001161  75.4988209
  39.3249554 125.4617562  74.7552309  41.5377052 119.2704949  67.1429599
  40.6033331 119.3906411  66.9734303  41.7153721 118.3677415  66.8789609
  37.0382240 112.6550644  69.2962860  36.6680028 112.1021685  69.9843766
  37.5341333 112.0508778  68.7437860  44.9249604 115.1122268  67.6779633
  45.3910056 115.9450259  67.6039936  45.3757104 114.6467249  68.3824892
  34.8671439 123.1148139  76.3917878  35.5680898 123.7484622  76.5447272
  34.3966554 123.4562871  75.6313517  42.9925835 121.4566089  64.6765785
  43.2685679 121.3422684  65.5859659  42.1230333 121.0583574  64.6377958
  42.8966266 107.4802855  71.7170534  41.9829346 107.7107082  71.8852741
  43.3259368 107.5641299  72.5684567  42.6672725 115.6692747  74.2170428
  42.0144175 115.9168654  73.5622881  43.0453105 114.8556885  73.8832906
  39.6279899 125.7052440  68.3198599  39.8102293 124.8874096  68.7826351
  40.4512885 125.9220132  67.8823489  39.9622064 124.6320625  65.5813647
  40.4909831 124.1213080  64.9683809  40.2250284 124.3163155  66.4459180
  38.7160298 116.4112558  80.7036466  38.0400935 116.3106687  81.3738841
  39.5387932 116.2551772  81.1672463  30.4639157 122.6484494  73.3248981
  31.0492594 121.9028182  73.4576885  30.2663995 122.9588451  74.2085645
  33.3177812 125.6835742  68.3411423  32.6488187 126.1681869  67.8575463
  33.1790682 125.9304962  69.2554802  25.0556812 115.2190095  72.0453424
  25.0940911 114.6853685  72.8390542  24.5497104 114.6925300  71.4264401
  37.4583081 127.7179485  74.9394082  38.0101389 127.8811107  75.7043167
  37.7989274 128.3083923  74.2674106  32.4347574 110.0654635  75.5415966
  32.4988900 110.9269466  75.1293364  32.3714694 109.4528637  74.8088325
  31.9099846 112.1377768  79.1889000  32.5371885 111.7554845  79.8026525
  31.0527765 111.9191970  79.5544693  42.3093955 122.5440743  80.7942736
  42.8533859 123.1570701  80.2997691  41.7280800 123.1020321  81.3109749
  28.6865389 113.9454197  65.1207355  28.9818830 113.0364875  65.0674409
  27.7853425 113.9241936  64.7988358  40.5951468 125.6661461  71.9257764
  40.4702607 124.8651201  71.4168709  41.2530559 126.1607654  71.4371734
  32.2159636 112.0210193  71.1034904  31.4946222 112.6346161  70.9642377
  33.0052892 112.5567958  71.0251550  42.6586376 123.4670481  73.5537314
  41.7116712 123.3475832  73.4815641  43.0069149 122.5792979  73.6363575
  35.0185950 109.3564620  77.3775556  35.5420352 109.6026916  78.1401865
  34.7998283 110.1884655  76.9578693  30.4153231 111.6268294  65.2446680
  30.0865937 110.7465673  65.0621786  30.7692601 111.5715963  66.1323070
  39.6632810 123.2623197  69.7541666  39.5157772 122.3339905  69.9349236
  40.4886303 123.2843288  69.2698741  33.5295054 111.9141264  65.6122158
  33.8691126 112.4427185  64.8900767  33.9767174 112.2521670  66.3880725
  43.2666931 124.0851756  70.8406539  44.1913479 123.8794617  70.7030990
  43.0982235 123.8368157  71.7495880  36.2238495 110.2978315  75.0625226
  35.8835315 109.4986128  75.4645906  35.5177501 110.5980026  74.4902059
  36.8754967 107.3827627  73.5152549  37.6981036 106.9088106  73.3931440
  37.1193030 108.1618111  74.0151236  35.5163201 110.4115886  63.8115451
  36.2371564 110.7897139  63.3079168  34.8928505 111.1304763  63.9150429
  39.6594324 111.1161035  64.7473783  39.8757938 111.9985673  64.4462611
  39.1788391 110.7247248  64.0179425  34.3993545 114.0746748  71.3244528
  34.2538126 114.3887051  72.2168809  33.9218749 114.6931648  70.7715426
  36.2589928 111.0649296  71.3725417  36.2451497 110.1690389  71.0357715
  36.9762356 111.0719960  72.0063703  38.1116059 111.4986636  73.4178545
  37.8533837 112.4203707  73.4162875  37.5801099 111.1017071  74.1079009
  43.0562248 124.6037423  66.1968630  43.2299125 124.0383846  65.4442483
  43.5491139 125.4038318  66.0148120  28.8739207 116.6152092  74.2632189
  28.3292676 117.3911900  74.3952463  29.7518557 116.9622897  74.1051310
  35.6626824 109.9463676  66.6412988  35.7842735 109.0180322  66.8403875
  35.3728867 109.9602362  65.7291303  38.5318015 107.6318587  69.7779707
  38.5539711 107.6957920  68.8231687  38.9486074 106.7923095  69.9720214
  48.9101639 117.3673846  67.8158930  49.3532785 116.6181171  67.4178053
  48.0328149 117.3583983  67.4332662  44.0437420 123.9204188  63.2965528
  44.7388325 124.5410880  63.5152843  44.3860570 123.0699539  63.5717906
  29.6605229 115.7421989  77.1562346  28.9186965 115.8904624  77.7426976
  29.3397974 116.0030254  76.2929095  45.9428843 121.3703893  64.8252859
  46.4680167 121.7091166  64.1002179  45.8551196 120.4350909  64.6415994
  37.6048892 125.2837967  76.9542736  37.9136018 125.0387114  77.8265435
  38.4024374 125.4884605  76.4661606  37.6269504 127.4375877  69.1848112
  37.1874494 126.9452255  69.8780969  38.3777621 126.8948844  68.9440188
  30.1061843 123.6287417  69.1872741  30.9319863 123.3291189  68.8071384
  29.7555895 122.8595040  69.6362529  35.0743376 122.9813886  71.2570414
  34.4523385 122.3184591  70.9572642  35.7448243 123.0075018  70.5744062
  28.3070448 121.5473744  70.1461674  27.4702356 121.1195918  69.9645675
  28.2794094 121.7406187  71.0832465  35.1467904 111.4595674  80.8502920
  35.1956059 112.3357796  80.4680690  35.6890418 110.9173067  80.2774563
  45.6322749 122.0036797  80.1304057  44.8418293 121.9860936  79.5908557
  45.3956104 122.5425091  80.8853094  45.7520624 118.8529263  77.4436786
  45.8018629 118.6879271  78.3852309  45.6434548 117.9856522  77.0534667
  34.6356883 121.5317809  64.7328875  34.7845003 122.2153273  64.0795547
  35.4423327 121.5122899  65.2478330  43.0424387 114.8360191  78.7596092
  43.9434250 114.6966656  78.4680090  43.1172361 115.0014646  79.6994270
  37.3767192 112.2127046  77.6049279  36.5070502 112.5060612  77.3331867
  37.6126672 112.7967491  78.3256542  47.2538821 121.2726205  77.6878807
  46.9623630 121.6356185  78.5242268  46.6410953 120.5593213  77.5092139
  48.4534504 118.8379085  70.2081378  49.2881395 119.2768889  70.3718938
  48.5893632 118.3617738  69.3889623  45.5026009 116.3958819  76.1558865
  45.9780131 116.5886466  75.3477717  44.5791575 116.4518005  75.9102249
  32.3909516 117.5582987  65.7389944  32.1455558 116.6545317  65.9370154
  32.5605431 117.5600137  64.7969422  40.0806226 108.4306663  75.1214699
  40.5988170 109.1667690  74.7961188  39.7261359 108.7370656  75.9561458
  31.6605164 113.2911344  63.2376105  30.9674409 113.3655699  62.5816141
  31.4156916 112.5271688  63.7597622  40.3318820 104.8506946  70.6415596
  40.6120574 104.1830135  71.2676022  41.1169427 105.0436041  70.1290260
  38.1352289 124.0265939  62.2040622  37.5626256 124.6456127  61.7511094
  38.7085082 124.5765301  62.7380544  44.2027678 113.2724580  74.3887171
  45.1545101 113.3722677  74.4099395  44.0331129 112.4802848  74.8985255
  42.2242058 110.3580163  74.5746572  41.6291990 110.6385175  73.8793060
  41.9391755 110.8474064  75.3463313  41.3549548 124.3103090  63.3349204
  42.2880222 124.2448651  63.5382080  41.2672761 125.1459356  62.8763737
  43.9837565 123.6268960  60.2953152  43.9051197 123.2928823  61.1888910
  44.8047232 124.1190728  60.2944624  46.6815756 116.4930699  73.5029471
  46.6492076 115.5546700  73.6889154  47.2916380 116.5714736  72.7695295
  38.5199087 115.3626752  59.5456675  39.4658192 115.2332960  59.6145093
  38.1413332 114.6241414  60.0226103  46.8310245 113.2841743  73.5487754
  46.3149293 112.5000199  73.3617683  47.7150193 112.9560459  73.7134273
  44.4920972 107.0282758  69.5083566  44.2945793 106.7197846  70.3926898
  45.1020677 107.7544397  69.6381496  52.4992306 117.5546706  72.6435507
  53.2295695 117.2931994  73.2043211  51.8899252 116.8175428  72.6837575
  50.5807603 115.6954569  73.2409959  49.8540767 115.5610534  72.6326450
  50.1654890 116.0031397  74.0466677  38.4037780 119.4144498  81.0057332
  39.3240789 119.5923097  81.1997378  38.3687363 118.4700544  80.8537031
  36.7042004 113.2876729  59.4811560  35.7973460 112.9909841  59.5574273
  36.9817985 112.9906547  58.6145846  27.6219945 114.6083092  69.9310606
  27.3022729 113.7548400  69.6384980  27.0753373 114.8231670  70.6868574
  31.3999852 117.3245533  73.6480113  31.6185862 118.2562641  73.6668147
  31.8125626 116.9653507  74.4334917  38.3204070 107.8313618  65.6355801
  37.5104798 107.4860703  66.0111047  39.0088487 107.5221162  66.2243413
  40.2494618 106.9091665  67.2580098  40.8025657 107.3287119  67.9170121
  40.4864705 105.9827413  67.3003054  36.2727718 112.8978739  83.0382862
  36.1724444 113.8473096  82.9694953  36.0549260 112.5696978  82.1658932
  35.4740789 110.1463664  59.6223539  36.3359953 110.4718562  59.8819356
  35.6591133 109.3595160  59.1096605  27.4908205 118.2286003  71.9003728
  26.7971676 117.8139956  71.3873682  28.2381196 118.2706540  71.3037147
  43.6273425 109.0192190  66.7658762  43.0472094 109.6776994  66.3836814
  43.3609358 108.1969535  66.3546179  42.0776992 108.4197248  68.9680082
  42.5776770 108.5313782  68.1594401  42.7212600 108.1158301  69.6080891
  36.1358988 116.3275878  81.8547923  35.6526069 117.1276238  82.0611812
  36.2219927 116.3383822  80.9015367  29.4044947 118.1604257  69.7769743
  29.3815635 118.2591945  68.8251626  29.7145584 119.0069408  70.0986909
  32.0632325 120.2180412  73.8916357  33.0175579 120.1864355  73.8246289
  31.8644849 119.7571036  74.7066583  32.6531707 118.7881528  76.4587155
  33.4724596 119.2825607  76.4821992  32.9268515 117.8713496  76.4304722
  42.4098303 111.1792281  65.8215110  41.5224158 111.4641931  65.6035305
  42.8252292 111.0186044  64.9742387  45.7612840 111.2038802  69.5369450
  46.5373230 111.6935254  69.8094066  45.0360974 111.6296856  69.9941319
  48.1985398 111.9166421  70.5943390  48.7929889 111.6762157  69.8836698
  48.2711982 111.1973551  71.2216926  30.4182554 125.7600032  70.9086555
  30.2837022 125.0000433  70.3424553  30.0014616 126.4840932  70.4415344
  41.5541517 120.9436955  59.9163130  42.2577367 121.1486958  60.5320786
  40.8304166 121.5113717  60.1812214  42.3839327 116.6946817  66.0365400
  42.3274529 117.1515368  65.1973033  42.9367670 115.9337501  65.8588243
  46.1944133 112.4836548  66.8615520  45.9381067 112.0833184  67.6923728
  45.5697001 113.1980342  66.7365659  50.5056471 115.2232622  69.3686811
  49.9456029 115.2925811  70.1418373  49.8999974 115.0473606  68.6486308
  33.5751680 126.6569349  71.1204998  33.4584064 127.6014781  71.0183688
  32.7544126 126.3542910  71.5090797  43.4628214 121.3819484  61.9661590
  44.2973818 120.9500683  61.7839065  43.3012557 121.2101498  62.8938485
  43.1174106 117.8851598  63.3317930  43.0622910 117.7195869  62.3906374
  42.4920162 118.5927631  63.4880119  27.9066621 113.1219662  77.1579352
  28.5525485 112.6118616  77.6466577  27.6983773 113.8588344  77.7322777
  40.4320014 120.1900510  82.6571492  41.3011173 120.3641162  82.2958127
  39.9526765 121.0094926  82.5347222  36.4270232 107.3859707  62.9103248
  36.4148902 108.3301547  63.0671519  37.3193654 107.2029852  62.6162709
  34.6006194 127.3097611  74.3360926  35.5033441 127.3421221  74.6527421
  34.3743564 126.3798062  74.3507262  36.3559796 126.0628597  70.9971005
  35.4055427 126.0630459  70.8835377  36.6592282 125.3161332  70.4807039
  40.2422351 103.9802483  67.1649185  39.4754747 103.4260970  67.3105867
  40.6533056 104.0524352  68.0263336  32.2464112 110.2687279  81.2554366
  33.1095574 109.9124084  81.4657691  31.6729523 109.9301174  81.9429770
  52.0912489 131.8989136  72.0616767  52.7290899 131.7795883  71.3580107
  51.9733332 132.8469980  72.1204719  48.9002196 131.8516564  71.9978292
  48.5620707 131.7357628  71.1098827  49.7691964 131.4507729  71.9779298
  44.7589011 133.7052040  67.9875183  44.1953876 133.6141977  67.2191470
  44.6441406 132.8851945  68.4677675  49.3821979 133.0051415  77.9564497
  49.3710619 132.6104214  77.0845001  49.5442618 132.2717488  78.5498269
  42.3053443 135.2003232  70.8259403  43.0974735 134.8594056  70.4105702
  42.5450093 135.3098207  71.7461556  44.2644197 134.4612145  63.6976782
  45.0375073 133.9141132  63.5589658  44.6169596 135.3256394  63.9091243
  47.0285447 133.1665376  73.4945041  47.6249019 132.9421398  72.7802004
  47.0860418 132.4250121  74.0970489  46.6010475 130.6204811  61.3295232
  46.8535996 130.0986332  60.5678695  45.6635034 130.4570957  61.4321915
  51.6453758 129.6240589  69.1369975  52.4316847 129.2060013  68.7860392
  51.9092462 130.5286682  69.3051623  51.8163835 135.0613440  63.8358632
  51.1809668 135.1348066  64.5479537  51.4861242 135.6507039  63.1577711
  57.0462185 129.5615823  70.0402954  57.7787357 128.9915039  70.2740783
  56.2901541 129.1737423  70.4809459  46.3206764 132.5232917  63.5319607
  46.2043022 131.8477820  64.2000691  46.4309024 132.0365291  62.7151760
  48.6638305 131.9843064  67.2366296  48.2996512 131.4573685  67.9479218
  49.5205421 131.5941533  67.0632781  54.5687605 123.2737397  74.4997562
  54.2370930 124.1432808  74.2758777  53.9733219 122.9573681  75.1791593
  48.3043792 127.0132964  62.2327645  48.4718194 127.8813200  62.5998116
  48.1140961 127.1760246  61.3088934  51.0619125 135.4749943  73.8993475
  50.7619848 136.3774982  73.7909282  50.7170184 135.2082126  74.7514628
  44.5131606 131.9263740  69.9330179  43.5882103 131.7939954  70.1407871
  44.7616020 132.7057959  70.4300122  54.4616269 127.9932483  71.5790912
  53.5533146 127.9247891  71.2849673  54.4103864 128.4704428  72.4072738
  48.2833013 129.4690621  63.2174311  48.1632638 129.9147672  64.0559792
  47.5885601 129.8175939  62.6587850  41.8740417 131.5697013  70.7673968
  42.0032799 131.8231492  71.6813380  41.1937869 132.1624721  70.4478623
  48.5357134 129.4122129  79.5225810  47.7590468 129.9716049  79.5128674
  49.1747697 129.8978912  80.0440680  56.3277915 126.1948921  73.3568786
  55.6852295 126.4881454  72.7108581  55.8232844 126.0801842  74.1621983
  53.9818079 129.9412095  64.0454645  54.8935935 130.1739481  63.8702343
  53.4727726 130.5249139  63.4829724  46.7903507 132.2207582  79.0843777
  47.5318191 132.7592626  78.8078600  46.0840492 132.8473871  79.2415328
  52.2658846 134.3636722  77.6815938  52.6742202 133.9219133  76.9370570
  51.5436108 133.7889350  77.9350131  48.6189916 129.3009329  75.0549495
  49.4651112 129.7248743  75.1984144  48.5588554 128.6442953  75.7488058
  52.5887661 134.9237913  71.4368227  51.9596523 135.0883627  70.7344295
  52.2013323 135.3379523  72.2079191  56.4676893 135.8592351  68.7912591
  55.7827931 136.2391252  68.2409624  56.5520742 136.4687677  69.5244538
  51.7689362 126.9613697  76.7130669  51.5250294 127.7155758  76.1764944
  52.0449292 127.3399045  77.5477916  53.7227825 133.5052310  75.3907934
  53.9344720 134.1484070  74.7142315  53.6757573 132.6714626  74.9229864
  51.3254053 126.1170130  72.2944506  50.4638533 126.4151384  72.5861244
  51.3516488 126.3340529  71.3625539  48.1415623 134.6612321  68.7018312
  48.6053968 134.9400024  67.9122934  47.8772421 133.7595766  68.5191403
  45.0339704 134.2083803  71.6398075  45.6041061 134.6371071  71.0015560
  45.6247816 133.9266387  72.3382261  47.0784509 130.7835473  65.5107877
  47.7808552 131.2356517  65.9781803  46.7465137 130.1419292  66.1387770
  45.5264870 129.3747230  79.8859087  44.8963531 130.0563511  80.1194483
  45.4200958 129.2630312  78.9412225  40.8209843 129.0419026  70.8125011
  40.0308897 129.2976555  70.3365121  41.3121090 129.8567364  70.9177051
  54.8373652 136.3824265  73.5630292  55.6591096 135.9804453  73.2812973
  54.8336055 136.2792499  74.5146407  42.7724588 129.4063605  67.7708487
  41.9755752 129.5182300  68.2891983  42.5450181 129.7450258  66.9049378
  48.6030256 135.9308309  75.7191002  48.6674688 136.3928716  76.5549174
  47.8941180 135.3005673  75.8473312  39.1047546 129.2949517  73.2440001
  39.3555584 130.1796526  73.5097577  39.6407094 129.1154118  72.4715093
  62.9279646 132.7263014  69.9115263  62.1743354 132.1570412  69.7559267
  63.0627187 132.6925678  70.8585898  44.8045613 123.6767996  82.2484338
  44.4112559 123.1234194  82.9231982  45.6211754 123.9878574  82.6390855
  47.7213574 125.0925875  79.8404594  48.4623288 125.6933028  79.7609057
  47.9531497 124.3503513  79.2822637  42.8654912 130.2782242  78.1182824
  42.7508427 129.3767499  78.4189923  42.0099430 130.5245939  77.7667640
  48.5001042 136.0146912  78.5875234  49.0329379 135.2535200  78.3574542
  47.9715123 135.7220564  79.3299389  51.6670737 121.1206978  74.1168876
  51.3235007 122.0108620  74.0407986  52.0349700 120.9308636  73.2538461
  39.7356588 133.4440508  66.9357478  40.5731810 133.8537517  66.7191186
  39.9134855 132.5039951  66.9057672  51.6321020 131.1115589  62.6241311
  51.1167643 131.8820194  62.8629698  51.3598328 130.4380725  63.2474372
  49.2168131 125.9565290  67.6826549  48.3609727 125.5672140  67.5032188
  49.6295083 126.0357251  66.8226335  50.7467278 123.4911633  72.0818109
  50.2432073 123.4541768  71.2685914  51.0397884 124.4004376  72.1414766
  46.9910163 123.5750363  71.0884291  47.8563160 123.3793171  70.7290180
  47.0587672 123.3460715  72.0153648  56.6055294 133.8647944  64.5594484
  55.8284737 133.5259103  64.1149646  57.2846775 133.8700567  63.8849449
  51.4207323 128.9842681  64.4501092  51.1157459 129.2988830  65.3011235
  52.3737765 129.0624101  64.4928425  49.8653755 135.1432904  66.0994046
  49.3375116 134.4085664  65.7867284  49.3641258 135.9207581  65.8534014
  54.8446601 133.3381925  71.2161092  54.1870275 134.0281186  71.3041221
  55.6487000 133.7278357  71.5595079  44.5972482 125.8052571  68.4600658
  45.1716234 125.5827752  67.7273851  45.1843465 125.8741265  69.2129259
  53.6552060 131.6926298  69.2665034  54.1683941 132.3256289  69.7686744
  54.3053284 131.0927493  68.9008394  44.9242070 127.8357032  62.4796543
  44.0879382 128.1731718  62.8005818  44.7846839 127.7006012  61.5423680
  46.8995150 122.6793820  67.1875727  46.2459563 122.3642837  66.5632342
  46.8575624 122.0569560  67.9135550  48.0106355 132.9613115  59.1029019
  47.1033417 132.7302368  59.3020168  48.5077387 132.1650734  59.2903001
  50.1332891 129.1675753  71.5123375  49.2155452 129.3890700  71.3545063
  50.5493034 129.2422064  70.6535082  50.9167938 130.5667169  66.6426055
  51.6639757 131.0788566  66.3333177  51.1859528 130.2451222  67.5030448
  49.1894589 133.0625710  63.6253009  48.2805808 132.7784742  63.7225479
  49.2189672 133.4824788  62.7656316  54.4213856 136.6732299  67.3944177
  53.9676183 135.8323209  67.4509367  53.7907823 137.3093697  67.7318957
  53.3646775 127.6024285  68.6244844  52.6269532 127.0901671  68.9555087
  53.6173549 127.1624667  67.8128121  52.8646795 138.5108796  68.3293995
  53.1569770 139.0713853  67.6106361  53.3745416 138.8037357  69.0847154
  53.4658403 120.3800537  69.2186614  53.7717280 119.5197901  68.9312529
  54.1911008 120.9718157  69.0185607  39.7582759 130.7831224  67.6068211
  39.5607159 130.1900584  66.8819278  39.2029423 130.4783434  68.3244150
  47.7379483 130.6754330  69.7262805  47.7928092 129.7228167  69.6505281
  46.9270685 130.8313769  70.2104103  48.8870676 134.6034453  60.9641088
  48.4490106 133.8870312  60.5046725  49.6281117 134.8310568  60.4026179
  45.6771842 129.2931390  67.4853183  44.8639708 129.5925560  67.8918376
  46.1730837 128.8987079  68.2027666  51.2746054 129.7573214  76.3168077
  51.6295442 129.9844688  77.1762543  51.9218185 130.0891591  75.6945333
  57.0043791 132.8791650  67.0217406  56.8661690 133.0693246  66.0938596
  56.6480010 133.6411033  67.4785457  45.1685917 126.8649745  73.1014418
  45.8085297 126.7238505  72.4037382  44.3363448 126.5784259  72.7253020
  57.0313171 134.9468177  72.0328678  57.4649677 134.8543466  72.8811732
  57.7444751 134.9225678  71.3948694  45.9446221 136.1652176  69.2149411
  46.7386820 135.6702496  69.0131986  45.2337914 135.6370039  68.8517116
  42.2528985 130.3095258  65.2909164  41.3226573 130.2479713  65.5079126
  42.3486457 129.7871210  64.4945805  42.1714534 126.8350070  67.8787405
  42.4321351 127.7495404  67.7696566  42.9931706 126.3674513  68.0284018
  43.6439459 128.2487828  75.0486230  44.3162512 128.0405190  74.3998879
  42.8169246 128.0509914  74.6091462  57.8928720 134.9891878  74.5661563
  58.0864610 135.8937688  74.8120838  57.7929338 134.5299297  75.4000148
  49.5465031 124.8749769  77.0651891  48.8992946 125.5739718  76.9716367
  50.3166046 125.3085912  77.4328139  52.9543829 135.1398621  80.1402444
  52.8029335 134.9109172  79.2232528  52.9448508 136.0969222  80.1533789
  49.7229165 132.7130533  75.1248710  50.6521225 132.8641693  74.9517678
  49.3020195 132.8014554  74.2697357  50.0722712 136.1162801  70.2836086
  49.7372545 136.0763571  71.1793736  49.5726658 135.4507516  69.8106496
  44.0466956 131.5230431  75.8088667  43.9086754 130.7910669  76.4100206
  44.9571880 131.4339331  75.5272855  53.0081904 133.4618835  60.5573145
  52.3911075 132.7365663  60.4606198  52.5398392 134.2228195  60.2140220
  46.6749257 131.2350390  75.2972347  47.3848875 130.5943582  75.2558965
  46.6318565 131.4863285  76.2198527  54.6636036 138.1717743  78.2178926
  54.6048582 137.4876963  77.5509509  55.0655554 138.9136733  77.7659552
  45.3878191 128.2215608  77.1167986  44.8515548 127.7706346  77.7689582
  44.7994899 128.3561517  76.3738450  44.7980450 127.6804259  59.6794450
  43.9209916 127.5593060  59.3156696  45.2738203 126.8890338  59.4273338
  54.6653443 136.1357327  76.4492905  53.7780222 135.7983249  76.5719304
  55.2351994 135.4040358  76.6861671  41.1217312 127.3571616  74.2020981
  41.0375501 126.7497285  73.4671390  40.3000019 127.8480634  74.2030477
  51.2941026 125.8425179  69.5691176  51.7909726 125.0895141  69.2492246
  50.5228007 125.8789496  69.0034385  59.1470783 131.5465545  71.2109467
  59.1360660 132.4290260  70.8403400  58.2788163 131.1937095  71.0164004
  52.3770807 134.5996866  67.1429599  51.4427085 134.7198329  66.9734303
  52.5547475 133.6969333  66.8789609  47.8775995 127.9842562  69.2962860
  47.5073782 127.4313602  69.9843766  48.3735087 127.3800696  68.7437860
  55.7643358 130.4414186  67.6779633  56.2303810 131.2742177  67.6039936
  56.2150859 129.9759167  68.3824892  53.8319589 136.7858007  64.6765785
  54.1079433 136.6714601  65.5859659  52.9624088 136.3875492  64.6377958
  53.7360021 122.8094773  71.7170534  52.8223101 123.0398999  71.8852741
  54.1653122 122.8933217  72.5684567  53.5066479 130.9984664  74.2170428
  52.8537930 131.2460572  73.5622881  53.8846859 130.1848803  73.8832906
  49.5554052 131.7404476  80.7036466  48.8794689 131.6398605  81.3738841
  50.3781686 131.5843689  81.1672463  35.8950566 130.5482012  72.0453424
  35.9334666 130.0145603  72.8390542  35.3890859 130.0217218  71.4264401
  43.2741328 125.3946553  75.5415966  43.3382655 126.2561384  75.1293364
  43.2108449 124.7820554  74.8088325  42.7493601 127.4669685  79.1889000
  43.3765640 127.0846763  79.8026525  41.8921520 127.2483887  79.5544693
  53.1487709 137.8732661  80.7942736  53.6927613 138.4862619  80.2997691
  52.5674554 138.4312239  81.3109749  39.5259144 129.2746114  65.1207355
  39.8212585 128.3656793  65.0674409  38.6247179 129.2533854  64.7988358
  43.0553391 127.3502111  71.1034904  42.3339976 127.9638079  70.9642377
  43.8446646 127.8859876  71.0251550  53.4980131 138.7962399  73.5537314
  52.5510466 138.6767750  73.4815641  53.8462904 137.9084897  73.6363575
  45.8579704 124.6856538  77.3775556  46.3814106 124.9318834  78.1401865
  45.6392037 125.5176572  76.9578693  41.2546985 126.9560212  65.2446680
  40.9259691 126.0757591  65.0621786  41.6086356 126.9007881  66.1323070
  44.3688808 127.2433182  65.6122158  44.7084881 127.7719103  64.8900767
  44.8160929 127.5813588  66.3880725  54.1060686 139.4143674  70.8406539
  55.0307233 139.2086535  70.7030990  53.9375989 139.1660075  71.7495880
  47.0632249 125.6270233  75.0625226  46.7229070 124.8278046  75.4645906
  46.3571256 125.9271943  74.4902059  47.7148721 122.7119545  73.5152549
  48.5374790 122.2380023  73.3931440  47.9586785 123.4910029  74.0151236
  46.3556956 125.7407804  63.8115451  47.0765318 126.1189056  63.3079168
  45.7322260 126.4596680  63.9150429  50.4988078 126.4452952  64.7473783
  50.7151693 127.3277590  64.4462611  50.0182146 126.0539166  64.0179425
  45.2387300 129.4038666  71.3244528  45.0931881 129.7178969  72.2168809
  44.7612503 130.0223566  70.7715426  47.0983683 126.3941214  71.3725417
  47.0845251 125.4982307  71.0357715  47.8156111 126.4011877  72.0063703
  48.9509813 126.8278554  73.4178545  48.6927591 127.7495625  73.4162875
  48.4194854 126.4308988  74.1079009  39.7132962 131.9444010  74.2632189
  39.1686430 132.7203818  74.3952463  40.5912312 132.2914815  74.1051310
  46.5020579 125.2755594  66.6412988  46.6236490 124.3472240  66.8403875
  46.2122621 125.2894280  65.7291303  49.3711769 122.9610504  69.7779707
  49.3933466 123.0249837  68.8231687  49.7879828 122.1215013  69.9720214
  59.7495393 132.6965764  67.8158930  60.1926539 131.9473089  67.4178053
  58.8721904 132.6875900  67.4332662  54.8831175 139.2496105  63.2965528
  55.5782079 139.8702798  63.5152843  55.2254325 138.3991457  63.5717906
  40.4998984 131.0713906  77.1562346  39.7580720 131.2196542  77.7426976
  40.1791728 131.3322172  76.2929095  56.7822598 136.6995811  64.8252859
  57.3073922 137.0383084  64.1002179  56.6944950 135.7642826  64.6415994
  45.9861658 126.7887591  80.8502920  46.0349814 127.6649714  80.4680690
  46.5284172 126.2464984  80.2774563  56.4716504 137.3328715  80.1304057
  55.6812048 137.3152853  79.5908557  56.2349858 137.8717008  80.8853094
  56.5914379 134.1821181  77.4436786  56.6412384 134.0171188  78.3852309
  56.4828302 133.3148440  77.0534667  53.8818141 130.1652109  78.7596092
  54.7828004 130.0258574  78.4680090  53.9566116 130.3306564  79.6994270
  48.2160947 127.5418964  77.6049279  47.3464256 127.8352530  77.3331867
  48.4520427 128.1259409  78.3256542  58.0932576 136.6018122  77.6878807
  57.8017384 136.9648103  78.5242268  57.4804707 135.8885131  77.5092139
  59.2928258 134.1671002  70.2081378  60.1275149 134.6060806  70.3718938
  59.4287387 133.6909655  69.3889623  56.3419764 131.7250737  76.1558865
  56.8173886 131.9178383  75.3477717  55.4185329 131.7809923  75.9102249
  43.2303271 132.8874904  65.7389944  42.9849313 131.9837234  65.9370154
  43.3999185 132.8892055  64.7969422  50.9199980 123.7598581  75.1214699
  51.4381924 124.4959608  74.7961188  50.5655113 124.0662574  75.9561458
  42.4998918 128.6203262  63.2376105  41.8068163 128.6947617  62.5816141
  42.2550670 127.8563605  63.7597622  51.1712575 120.1798863  70.6415596
  51.4514328 119.5122052  71.2676022  51.9563182 120.3727959  70.1290260
  55.0421433 128.6016497  74.3887171  55.9938856 128.7014595  74.4099395
  54.8724883 127.8094766  74.8985255  53.0635812 125.6872080  74.5746572
  52.4685745 125.9677093  73.8793060  52.7785509 126.1765981  75.3463313
  54.8231320 138.9560878  60.2953152  54.7444951 138.6220741  61.1888910
  55.6440986 139.4482645  60.2944624  57.5209511 131.8222617  73.5029471
  57.4885831 130.8838618  73.6889154  58.1310134 131.9006654  72.7695295
  49.3592842 130.6918670  59.5456675  50.3051946 130.5624878  59.6145093
  48.9807087 129.9533332  60.0226103  57.6703999 128.6133660  73.5487754
  57.1543048 127.8292117  73.3617683  58.5543948 128.2852377  73.7134273
  55.3314726 122.3574676  69.5083566  55.1339547 122.0489764  70.3926898
  55.9414432 123.0836315  69.6381496  63.3386061 132.8838624  72.6435507
  64.0689449 132.6223912  73.2043211  62.7293006 132.1467346  72.6837575
  61.4201358 131.0246486  73.2409959  60.6934521 130.8902451  72.6326450
  61.0048645 131.3323315  74.0466677  49.2431534 134.7436416  81.0057332
  50.1634544 134.9215015  81.1997378  49.2081117 133.7992461  80.8537031
  47.5435759 128.6168646  59.4811560  46.6367214 128.3201759  59.5574273
  47.8211740 128.3198464  58.6145846  38.4613699 129.9375010  69.9310606
  38.1416484 129.0840318  69.6384980  37.9147127 130.1523588  70.6868574
  42.2393607 132.6537451  73.6480113  42.4579616 133.5854558  73.6668147
  42.6519381 132.2945425  74.4334917  49.1597825 123.1605536  65.6355801
  48.3498553 122.8152621  66.0111047  49.8482241 122.8513080  66.2243413
  51.0888373 122.2383583  67.2580098  51.6419411 122.6579036  67.9170121
  51.3258459 121.3119331  67.3003054  47.1121472 128.2270656  83.0382862
  47.0118199 129.1765013  82.9694953  46.8943014 127.8988895  82.1658932
  46.3134543 125.4755581  59.6223539  47.1753707 125.8010480  59.8819356
  46.4984888 124.6887077  59.1096605  38.3301959 133.5577921  71.9003728
  37.6365431 133.1431874  71.3873682  39.0774950 133.5998458  71.3037147
  54.4667180 124.3484108  66.7658762  53.8865849 125.0068912  66.3836814
  54.2003113 123.5261453  66.3546179  52.9170746 123.7489166  68.9680082
  53.4170525 123.8605700  68.1594401  53.5606354 123.4450218  69.6080891
  46.9752742 131.6567795  81.8547923  46.4919824 132.4568155  82.0611812
  47.0613681 131.6675740  80.9015367  40.2438702 133.4896175  69.7769743
  40.2209390 133.5883862  68.8251626  40.5539338 134.3361326  70.0986909
  43.4925462 134.1173446  76.4587155  44.3118351 134.6117525  76.4821992
  43.7662269 133.2005414  76.4304722  53.2492058 126.5084198  65.8215110
  52.3617913 126.7933849  65.6035305  53.6646047 126.3477962  64.9742387
  56.6006594 126.5330719  69.5369450  57.3766984 127.0227172  69.8094066
  55.8754728 126.9588773  69.9941319  59.0379153 127.2458339  70.5943390
  59.6323643 127.0054074  69.8836698  59.1105736 126.5265469  71.2216926
  52.3935271 136.2728873  59.9163130  53.0971121 136.4778875  60.5320786
  51.6697920 136.8405635  60.1812214  53.2233082 132.0238734  66.0365400
  53.1668283 132.4807286  65.1973033  53.7761424 131.2629419  65.8588243
  57.0337888 127.8128466  66.8615520  56.7774822 127.4125102  67.6923728
  56.4090756 128.5272260  66.7365659  61.3450225 130.5524539  69.3686811
  60.7849783 130.6217729  70.1418373  60.7393729 130.3765524  68.6486308
  54.3021969 136.7111402  61.9661590  55.1367573 136.2792601  61.7839065
  54.1406312 136.5393416  62.8938485  53.9567861 133.2143515  63.3317930
  53.9016665 133.0487787  62.3906374  53.3313916 133.9219548  63.4880119
  38.7460376 128.4511580  77.1579352  39.3919240 127.9410534  77.6466577
  38.5377527 129.1880262  77.7322777  51.2713768 135.5192427  82.6571492
  52.1404928 135.6933080  82.2958127  50.7920520 136.3386844  82.5347222
  47.2663986 122.7151624  62.9103248  47.2542656 123.6593464  63.0671519
  48.1587408 122.5321770  62.6162709  51.0816106 119.3094401  67.1649185
  50.3148502 118.7552888  67.3105867  51.4926811 119.3816270  68.0263336
  43.0857867 125.5979197  81.2554366  43.9489328 125.2416002  81.4657691
  42.5123278 125.2593092  81.9429770  65.4081360 138.6029314  74.4997562
  65.0764685 139.4724725  74.2758777  64.8126973 138.2865598  75.1791593
  67.1671670 141.5240839  73.3568786  66.5246050 141.8173372  72.7108581
  66.6626598 141.4093759  74.1621983  62.1647808 141.4462048  72.2944506
  61.3032287 141.7443302  72.5861244  62.1910243 141.6632447  71.3625539
  55.6439368 139.0059914  82.2484338  55.2506313 138.4526112  82.9231982
  56.4605508 139.3170492  82.6390855  58.5607329 140.4217793  79.8404594
  59.3017042 141.0224946  79.7609057  58.7925252 139.6795430  79.2822637
  62.5064492 136.4498896  74.1168876  62.1628761 137.3400537  74.0407986
  62.8743454 136.2600553  73.2538461  60.0561885 141.2857208  67.6826549
  59.2003482 140.8964058  67.5032188  60.4688837 141.3649168  66.8226335
  61.5861032 138.8203551  72.0818109  61.0825828 138.7833686  71.2685914
  61.8791639 139.7296293  72.1414766  57.8303918 138.9042280  71.0884291
  58.6956915 138.7085089  70.7290180  57.8981427 138.6752632  72.0153648
  57.7388905 138.0085737  67.1875727  57.0853317 137.6934754  66.5632342
  57.6969379 137.3861478  67.9135550  64.2040530 142.9316203  68.6244844
  63.4663287 142.4193589  68.9555087  64.4567304 142.4916584  67.8128121
  64.3052157 135.7092455  69.2186614  64.6111034 134.8489818  68.9312529
  65.0304762 136.3010075  69.0185607  60.3858785 140.2041686  77.0651891
  59.7386701 140.9031636  76.9716367  61.1559801 140.6377830  77.4328139
  62.1334780 141.1717097  69.5691176  62.6303480 140.4187059  69.2492246
  61.3621762 141.2081413  69.0034385  64.5753775 138.1386690  71.7170534
  63.6616855 138.3690917  71.8852741  65.0046877 138.2225134  72.5684567
  58.5542476 138.0411463  73.5152549  59.3768545 137.5671941  73.3931440
  58.7980539 138.8201946  74.0151236  60.2105524 138.2902422  69.7779707
  60.2327220 138.3541755  68.8231687  60.6273583 137.4506931  69.9720214
  61.7593735 139.0890498  75.1214699  62.2775679 139.8251525  74.7961188
  61.4048868 139.3954492  75.9561458  62.0106329 135.5090781  70.6415596
  62.2908083 134.8413970  71.2676022  62.7956936 135.7019876  70.1290260
  63.9029567 141.0163998  74.5746572  63.3079499 141.2969011  73.8793060
  63.6179264 141.5057899  75.3463313  68.5097754 143.9425578  73.5487754
  67.9936802 143.1584035  73.3617683  69.3937702 143.6144295  73.7134273
  66.1708481 137.6866594  69.5083566  65.9733302 137.3781682  70.3926898
  66.7808186 138.4128232  69.6381496  59.9991579 138.4897454  65.6355801
  59.1892307 138.1444539  66.0111047  60.6875996 138.1804997  66.2243413
  61.9282127 137.5675500  67.2580098  62.4813166 137.9870954  67.9170121
  62.1652214 136.6411249  67.3003054  65.3060934 139.6776026  66.7658762
  64.7259603 140.3360830  66.3836814  65.0396867 138.8553370  66.3546179
  63.7564501 139.0781083  68.9680082  64.2564279 139.1897618  68.1594401
  64.4000109 138.7742136  69.6080891  64.0885812 141.8376116  65.8215110
  63.2011667 142.1225767  65.6035305  64.5039801 141.6769879  64.9742387
  67.4400349 141.8622637  69.5369450  68.2160739 142.3519089  69.8094066
  66.7148483 142.2880691  69.9941319  69.8772907 142.5750256  70.5943390
  70.4717398 142.3345992  69.8836698  69.9499491 141.8557387  71.2216926
  67.8731642 143.1420384  66.8615520  67.6168576 142.7417019  67.6923728
  67.2484510 143.8564178  66.7365659  58.1057741 138.0443542  62.9103248
  58.0936411 138.9885382  63.0671519  58.9981163 137.8613688  62.6162709
  61.9209860 134.6386319  67.1649185  61.1542256 134.0844806  67.3105867
  62.3320565 134.7108188  68.0263336   2.8493414  29.9218357  56.7648260
   3.5818586  29.3517574  56.9986090   2.0932769  29.5339957  57.2054766
   2.1309144  26.5551456  60.0814093   1.4883524  26.8483989  59.4353887
   1.6264072  26.4404376  60.8867289   2.2708122  36.2194885  55.5157897
   1.5859160  36.5993786  54.9654931   2.3551971  36.8290212  56.2489845
   0.6404881  36.7426799  60.2875598   1.4622325  36.3406987  60.0058280
   0.6367284  36.6395034  61.2391714   8.7310874  33.0865548  56.6360570
   7.9774583  32.5172946  56.4804574   8.8658416  33.0528212  57.5831204
   2.4086523  34.2250478  51.2839791   1.6315966  33.8861637  50.8394953
   3.0878004  34.2303101  50.6094756   2.8075020  33.2394185  53.7462713
   2.6692918  33.4295780  52.8183902   2.4511239  34.0013567  54.2030764
   2.8344400  35.3070712  58.7573985   3.2680906  35.2146001  59.6057039
   3.5475980  35.2828212  58.1194001   3.6959949  35.3494412  61.2906870
   3.8895839  36.2540223  61.5366145   3.5960567  34.8901831  62.1245455
   4.9502012  31.9068079  57.9354774   4.9391888  32.7892794  57.5648707
   4.0819392  31.5539630  57.7409311   1.5674587  30.8016720  54.4024940
   2.0335039  31.6344711  54.3285242   2.0182087  30.3361701  55.1070198
   5.5526622  33.0568298  54.5404237   5.9957768  32.3075623  54.1423360
   4.6753132  33.0478435  54.1577969   0.6862403  39.6098640  50.0210835
   1.3813308  40.2305332  50.2398150   1.0285554  38.7593991  50.2963213
   2.5853827  37.0598345  51.5498166   3.1105151  37.3985618  50.8247486
   2.4976179  36.1245360  51.3661301   2.2747733  37.6931249  66.8549364
   1.4843276  37.6755388  66.3153863   2.0381087  38.2319542  67.6098400
   2.3945608  34.5423715  64.1682092   2.4443613  34.3773723  65.1097615
   2.2859531  33.6750974  63.7779973   3.8963805  36.9620657  64.4124114
   3.6048613  37.3250637  65.2487575   3.2835936  36.2487665  64.2337446
   5.0959487  34.5273536  56.9326684   5.9306378  34.9663341  57.0964245
   5.2318616  34.0512190  56.1134930   2.1450993  32.0853271  62.8804172
   2.6205114  32.2780918  62.0723023   1.2216558  32.1412457  62.6347556
   0.8452662  28.9619031  61.1132478   1.7970085  29.0617129  61.1344702
   0.6756112  28.1697300  61.6230562   0.6262548  39.3163412  47.0198459
   0.5476180  38.9823275  47.9134216   1.4472215  39.8085180  47.0189931
   3.3240740  32.1825151  60.2274777   3.2917060  31.2441152  60.4134461
   3.9341363  32.2609188  59.4940602   3.4735228  28.9736195  60.2733060
   2.9574277  28.1894651  60.0862989   4.3575177  28.6454911  60.4379580
   1.1345955  22.7177210  56.2328873   0.9370776  22.4092298  57.1172205
   1.7445661  23.4438849  56.3626803   9.1417289  33.2441158  59.3680814
   9.8720678  32.9826446  59.9288517   8.5324235  32.5069880  59.4082882
   7.2232587  31.3849021  59.9655265   6.4965750  31.2504985  59.3571757
   6.8079873  31.6925849  60.7711983   2.4037823  26.8933253  56.2614756
   3.1798213  27.3829706  56.5339373   1.6785957  27.3191308  56.7186626
   4.8410381  27.6060873  57.3188697   5.4354872  27.3656609  56.6082005
   4.9136965  26.8868003  57.9462233   2.8369116  28.1731000  53.5860827
   2.5806051  27.7727636  54.4169034   2.2121984  28.8874794  53.4610966
   7.1481454  30.9127074  56.0932118   6.5881012  30.9820263  56.8663680
   6.5424958  30.7368058  55.3731614   8.7337473  47.5883588  58.7862074
   9.3715883  47.4690335  58.0825414   8.6158316  48.5364431  58.8450026
   5.5427179  47.5411016  58.7223598   5.2045690  47.4252080  57.8344133
   6.4116947  47.1402181  58.7024605   1.4013995  49.3946492  54.7120489
   0.8378860  49.3036429  53.9436777   1.2866390  48.5746396  55.1922982
   6.0246962  48.6945867  64.6809804   6.0135603  48.2998666  63.8090308
   6.1867601  47.9611940  65.2743575   6.9813553  53.0617460  50.0234954
   6.3301533  53.6471540  49.6368968   7.7757916  53.5923655  50.0829992
   0.9069181  50.1506597  50.4222089   1.6800057  49.6035584  50.2834964
   1.2594579  51.0150846  50.6336550   2.7454223  51.4782979  63.6288988
   2.4544089  52.3828610  63.5135654   3.3811207  51.5199507  64.3433057
   3.6710430  48.8559828  60.2190348   4.2674002  48.6315850  59.5047310
   3.7285401  48.1144573  60.8215795   3.2435458  46.3099263  48.0540538
   3.4960979  45.7880784  47.2924001   2.3060017  46.1465408  48.1567222
   8.2878741  45.3135041  55.8615282   9.0741830  44.8954465  55.5105699
   8.5517445  46.2181134  56.0296930   8.4588819  50.7507892  50.5603939
   7.8234651  50.8242518  51.2724843   8.1286225  51.3401490  49.8823018
  13.6887168  45.2510275  56.7648260  14.4212340  44.6809491  56.9986090
  12.9326524  44.8631875  57.2054766   2.9631747  48.2127369  50.2564913
   2.8468005  47.5372272  50.9245998   3.0734007  47.7259743  49.4397066
   5.3063288  47.6737516  53.9611603   4.9421495  47.1468137  54.6724524
   6.1630404  47.2835985  53.7878088  11.2112589  38.9631849  61.2242869
  10.8795913  39.8327260  61.0004084  10.6158202  38.6468133  61.9036899
   4.9468775  42.7027416  48.9572951   5.1143177  43.5707652  49.3243422
   4.7565944  42.8654697  48.0334240   7.7044108  51.1644395  60.6238782
   7.4044831  52.0669433  60.5154589   7.3595168  50.8976578  61.4759934
  11.1041252  43.6826935  58.3036219  10.1958129  43.6142343  58.0094980
  11.0528848  44.1598880  59.1318044   4.9257996  45.1585073  49.9419618
   4.8057621  45.6042124  50.7805098   4.2310584  45.5070391  49.3833156
   2.6864888  57.9288715  53.5909749   2.6088918  58.8796540  53.6698230
   2.0826532  57.5834587  54.2484676   5.1782118  45.1016580  66.2471116
   4.4015452  45.6610501  66.2373981   5.8172681  45.5873363  66.7685986
  12.9702898  41.8843373  60.0814093  12.3277279  42.1775906  59.4353887
  12.4657827  41.7696294  60.8867289  10.6243062  45.6306546  50.7699952
  11.5360918  45.8633933  50.5947650  10.1152709  46.2143591  50.2075031
   3.4328490  47.9102034  65.8089083   4.1743174  48.4487078  65.5323907
   2.7265476  48.5368323  65.9660635   8.9083830  50.0531174  64.4061245
   9.3167186  49.6113585  63.6615877   8.1861091  49.4783802  64.6595438
   5.2614900  44.9903781  61.7794802   6.1076095  45.4143195  61.9229451
   5.2013537  44.3337405  62.4733365   9.2312644  50.6132365  58.1613534
   8.6021507  50.7778079  57.4589601   8.8438306  51.0273974  58.9324498
  13.1101876  51.5486803  55.5157897  12.4252914  51.9285704  54.9654931
  13.1945726  52.1582129  56.2489845   8.4114345  42.6508149  63.4375975
   8.1675277  43.4050210  62.9010251   8.6874276  43.0293497  64.2723222
  10.3652808  49.1946762  62.1153241  10.5769703  49.8378522  61.4387622
  10.3182556  48.3609078  61.6475171   7.9679037  41.8064582  59.0189813
   7.1063516  42.1045836  59.3106551   7.9941471  42.0234981  58.0870846
   4.7840606  50.3506773  55.4263619   5.2478952  50.6294476  54.6368241
   4.5197404  49.4490218  55.2436709   1.6764687  49.8978255  58.3643382
   2.2466044  50.3265523  57.7260866   2.2672799  49.6160839  59.0627568
   3.7209492  46.4729925  52.2353184   4.4233536  46.9250969  52.7027110
   3.3890121  45.8313744  52.8633077   2.1689854  45.0641682  66.6104393
   1.5388514  45.7457963  66.8439790   2.0625942  44.9524764  65.6657531
  11.4798636  52.0718717  60.2875598  12.3016080  51.6698904  60.0058280
  11.4761039  51.9686951  61.2391714   5.2455239  51.6202760  62.4436309
   5.3099672  52.0823168  63.2794481   4.5366163  50.9900125  62.5718619
  19.5704629  48.4157466  56.6360570  18.8168337  47.8464864  56.4804574
  19.7052170  48.3820130  57.5831204   4.9603257  53.2870868  52.3115289
   4.8248932  54.1322404  52.7400137   5.5013069  53.4890146  51.5481223
   1.4470597  39.3662448  68.9729644   1.0537542  38.8128646  69.6477288
   2.2636737  39.6773026  69.3636162   4.3638558  40.7820327  66.5649901
   5.1048271  41.3827480  66.4854363   4.5956480  40.0397965  66.0067943
   6.5871733  53.9094434  66.4415631   6.1435587  53.1230813  66.1236536
   7.2488947  54.0973585  65.7759522   1.3458854  55.4390236  60.9676310
   1.8966280  55.3107299  60.1953304   0.5070330  55.7385125  60.6171202
   8.6852971  54.1897234  64.4697032   8.6671447  55.0106115  63.9777302
   9.6072891  54.0651310  64.6947174   5.1426025  51.7041364  65.3120541
   5.6754362  50.9429652  65.0819849   4.6140107  51.4115016  66.0544695
   8.3095720  36.8101430  60.8414182   7.9659990  37.7003072  60.7653293
   8.6774683  36.6203087  59.9783767   8.2746003  46.8010041  49.3486618
   7.7592627  47.5714646  49.5875005   8.0023312  46.1275177  49.9719679
   5.8593114  41.6459742  54.4071856   5.0034711  41.2566592  54.2277495
   6.2720066  41.7251703  53.5471641   7.3892261  39.1806085  58.8063416
   6.8857056  39.1436220  57.9931221   7.6822868  40.0898828  58.8660072
   3.6335147  39.2644815  57.8129597   4.4988143  39.0687623  57.4535487
   3.7012656  39.0355166  58.7398954  13.2480277  49.5542396  51.2839791
  12.4709720  49.2153555  50.8394953  13.9271758  49.5595019  50.6094756
   8.0632306  44.6737133  51.1746399   7.7582442  44.9883282  52.0256542
   9.0162748  44.7518553  51.2173732   6.5078738  50.8327356  52.8239353
   5.9800100  50.0980116  52.5112590   6.0066241  51.6102033  52.5779321
  11.4871584  49.0276377  57.9406399  10.8295259  49.7175638  58.0286528
  12.2911983  49.4172809  58.2840385   1.2397466  41.4947023  55.1845964
   1.8141218  41.2722204  54.4519157   1.8268448  41.5635717  55.9374566
  10.2977043  47.3820750  55.9910341  10.8108925  48.0150741  56.4932051
  10.9478267  46.7821945  55.6253701   1.5667053  43.5251484  49.2041850
   0.7304365  43.8626170  49.5251124   1.4271823  43.3900463  48.2668986
   3.5420134  38.3688272  53.9121034   2.8884546  38.0537289  53.2877648
   3.5000608  37.7464012  54.6380857   4.6531338  48.6507567  45.8274326
   3.7458400  48.4196820  46.0265475   5.1502370  47.8545186  46.0148307
   7.5599417  57.3605074  48.7471012   6.8861116  57.6636771  49.3555970
   7.9465239  58.1634154  48.3976469   6.7757874  44.8570205  58.2368681
   5.8580435  45.0785152  58.0790369   7.1918017  44.9316516  57.3780389
   7.5592922  46.2561621  53.3671362   8.3064741  46.7683018  53.0578484
   7.8284511  45.9345673  54.2275755   5.8319572  48.7520161  50.3498316
   4.9230791  48.4679194  50.4470786   5.8614656  49.1719240  49.4901623
  11.0638839  52.3626751  54.1189483  10.6101166  51.5217661  54.1754674
  10.4332806  52.9988149  54.4564264  10.0071759  43.2918737  55.3490151
   9.2694516  42.7796123  55.6800393  10.2598532  42.8519119  54.5373428
   9.5071778  54.2003248  55.0539302   9.7994753  54.7608305  54.3351667
  10.0170399  54.4931809  55.8092461  10.1083386  36.0694989  55.9431920
  10.4142263  35.2092352  55.6557835  10.8335991  36.6612609  55.7430914
   4.3804466  46.3648782  56.4508111   4.4353076  45.4122618  56.3750588
   3.5695668  46.5208221  56.9349410   5.5295660  50.2928905  47.6886394
   5.0915090  49.5764764  47.2292032   6.2706100  50.5205020  47.1271486
   2.3196826  44.9825842  54.2098490   1.5064691  45.2820012  54.6163682
   2.8155820  44.5881531  54.9272972   4.4705404  54.9783599  56.1432755
   4.4281582  55.2044445  55.2141287   5.3868103  54.7446973  56.2918556
   7.9171037  45.4467666  63.0413384   8.2720425  45.6739139  63.9007850
   8.5643169  45.7786043  62.4190639  13.6468774  48.5686102  53.7462713
  13.5086673  48.7587698  52.8183902  13.2904993  49.3305485  54.2030764
   1.8110901  42.5544197  59.8259725   2.4510280  42.4132956  59.1282688
   0.9788431  42.2678711  59.4498327  13.6738154  50.6362629  58.7573985
  14.1074661  50.5437918  59.6057039  14.3869735  50.6120130  58.1194001
   2.5871204  51.8546628  55.9394717   3.3811803  51.3596948  55.7377292
   1.8762897  51.3264491  55.5762423   7.4066049  54.2364723  60.2907085
   7.4603071  54.8055660  61.0584801   6.5380830  54.4066608  59.9261122
  14.5353704  50.6786330  61.2906870  14.7289594  51.5832140  61.5366145
  14.4354322  50.2193749  62.1245455   6.1890014  40.5644220  63.7897197
   5.5417929  41.2634170  63.6961674   6.9591030  40.9980364  64.1573445
   9.5968812  50.8293073  66.8647751   9.4454319  50.6003624  65.9477834
   9.5873492  51.7863674  66.8779096   6.3654149  48.4024985  61.8494017
   7.2946209  48.5536145  61.6762984   5.9445179  48.4909006  60.9942663
   5.1642480  52.4275650  59.6192555   5.0253566  52.0594434  60.4918493
   4.3757077  52.9423289  59.4476512   5.7590632  57.5284746  50.9618091
   5.9342388  57.0572789  51.7763714   5.0723420  58.1550512  51.1899352
   6.7147696  51.8057252  57.0081392   6.3797528  51.7658022  57.9039042
   6.2151641  51.1401968  56.5351803   0.6891940  47.2124882  62.5333974
   0.5511737  46.4805121  63.1345513   1.5996863  47.1233783  62.2518161
   9.6506887  49.1513287  47.2818452   9.0336058  48.4260115  47.1851505
   9.1823376  49.9122647  46.9385526   3.3174240  46.9244842  62.0217653
   4.0273859  46.2838034  61.9804272   3.2743548  47.1757737  62.9443834
  11.3061019  53.8612195  64.9424232  11.2473565  53.1771415  64.2754815
  11.7080537  54.6031185  64.4904858   2.0303174  43.9110060  63.8413293
   1.4940531  43.4600798  64.4934889   1.4419883  44.0455969  63.0983757
   1.4405433  43.3698711  46.4039756   0.5634899  43.2487512  46.0402003
   1.9163186  42.5784789  46.1518645  11.3078426  51.8251779  63.1738212
  10.4205205  51.4877701  63.2964611  11.8776977  51.0934810  63.4106977
   4.8379580  56.4853231  60.1399455   4.7649751  57.2908203  60.6518760
   4.3956973  56.6845197  59.3147477   4.6269359  55.7225001  53.6502277
   3.8436881  56.2646682  53.7440501   5.3262104  56.2398981  54.0496518
   7.9366009  41.5319631  56.2936482   8.4334709  40.7789593  55.9737552
   7.1652991  41.5683948  55.7279692  15.7895767  47.2359996  57.9354774
  15.7785643  48.1184712  57.5648707  14.9213146  46.8831547  57.7409311
   7.2978263  56.3840065  62.2957614   8.0106235  57.0187530  62.2233515
   6.8068292  56.4803931  61.4797616   9.0195790  50.2891318  53.8674906
   8.0852069  50.4092781  53.6979610   9.1972458  49.3863785  53.6034915
   4.5200978  43.6737014  56.0208167   4.1498766  43.1208054  56.7089072
   5.0160070  43.0695147  55.4683167  12.4068341  46.1308637  54.4024940
  12.8728794  46.9636629  54.3285242  12.8575842  45.6653619  55.1070198
   2.3490177  54.1334509  63.1163185   3.0499636  54.7670992  63.2692579
   1.8785292  54.4749240  62.3558824  10.4744572  52.4752459  51.4011092
  10.7504416  52.3609053  52.3104966   9.6049071  52.0769944  51.3623265
  10.3785004  38.4989224  58.4415841   9.4648084  38.7293451  58.6098048
  10.8078106  38.5827668  59.2929873  10.1491463  46.6879116  60.9415735
   9.4962913  46.9355024  60.2868188  10.5271842  45.8743255  60.6078212
   7.1098636  56.7238810  55.0443905   7.2921031  55.9060465  55.5071658
   7.9331622  56.9406502  54.6068795   7.4440802  55.6506995  52.3058954
   7.9728568  55.1399449  51.6929116   7.7069022  55.3349525  53.1704487
   6.1979036  47.4298927  67.4281772   5.5219673  47.3293057  68.0984147
   7.0206669  47.2738141  67.8917769   4.9401818  58.7365855  61.6639388
   5.4920126  58.8997476  62.4288473   5.2808012  59.3270293  60.9919413
   9.7912693  53.5627112  67.5188043  10.3352597  54.1757071  67.0242997
   9.2099538  54.1206691  68.0355056   8.0770206  56.6847830  58.6503070
   7.9521345  55.8837570  58.1414016   8.7349297  57.1794024  58.1617040
  10.1405114  54.4856851  60.2782620   9.1935450  54.3662202  60.2060947
  10.4887887  53.5979349  60.3608882   2.5004688  40.3750989  64.1020862
   3.0239089  40.6213286  64.8647172   2.2817021  41.2071024  63.6824000
   7.1451547  54.2809567  56.4786973   6.9976510  53.3526274  56.6594543
   7.9705041  54.3029657  55.9944048   1.0113792  42.9327634  52.3367465
   1.3509864  43.4613555  51.6146073   1.4585912  43.2708040  53.1126031
  10.7485669  55.1038125  57.5651845  11.6732217  54.8980987  57.4276297
  10.5800973  54.8554527  58.4741187   3.7057233  41.3164685  61.7870533
   3.3654053  40.5172498  62.1891213   2.9996239  41.6166395  61.2147366
   4.3573704  38.4013997  60.2397856   5.1799774  37.9274475  60.1176746
   4.6011768  39.1804481  60.7396542   2.9981939  41.4302255  50.5360758
   3.7190301  41.8083508  50.0324474   2.3747243  42.1491132  50.6395736
   7.1413062  42.1347404  51.4719090   7.3576676  43.0172042  51.1707918
   6.6607129  41.7433618  50.7424732   1.8812283  45.0933118  58.0489834
   1.7356864  45.4073421  58.9414116   1.4037487  45.7118018  57.4960733
   3.7408666  42.0835666  58.0970724   3.7270235  41.1876759  57.7603022
   4.4581094  42.0906329  58.7309010   5.5934797  42.5173006  60.1423851
   5.3352575  43.4390076  60.1408182   5.0619837  42.1203440  60.8324316
  10.5380985  55.6223793  52.9213937  10.7117863  55.0570215  52.1687789
  11.0309877  56.4224688  52.7393427   3.1445562  40.9650046  53.3658294
   3.2661473  40.0366692  53.5649182   2.8547604  40.9788732  52.4536610
   6.0136752  38.6504956  56.5025014   6.0358449  38.7144289  55.5476994
   6.4304811  37.8109465  56.6965520  16.3920377  48.3860216  54.5404237
  16.8351523  47.6367541  54.1423360  15.5146887  48.3770352  54.1577969
  11.5256158  54.9390557  50.0210835  12.2207063  55.5597250  50.2398150
  11.8679308  54.0885909  50.2963213  13.4247581  52.3890263  51.5498166
  13.9498905  52.7277536  50.8247486  13.3369934  51.4537278  51.3661301
   5.0867630  56.3024336  63.6788043   5.3954756  56.0573483  64.5510742
   5.8843112  56.5070975  63.1906913   5.1088242  58.4562246  55.9093419
   4.6693232  57.9638625  56.6026276   5.8596359  57.9135214  55.6685494
   2.5562114  54.0000255  57.9815721   1.9342123  53.3370960  57.6817949
   3.2266981  54.0261387  57.2989369   2.6286641  42.4782043  67.5748227
   2.6774797  43.3544166  67.1925996   3.1709156  41.9359436  67.0019870
  13.1141487  53.0223166  66.8549364  12.3237031  53.0047305  66.3153863
  12.8774842  53.5611460  67.6098400  13.2339362  49.8715633  64.1682092
  13.2837367  49.7065640  65.1097615  13.1253286  49.0042892  63.7779973
   2.1175621  52.5504179  51.4574181   2.2663741  53.2339643  50.8040854
   2.9242064  52.5309269  51.9723637  10.5243125  45.8546561  65.4841399
  11.4252987  45.7153026  65.1925397  10.5991099  46.0201016  66.4239577
   4.8585930  43.2313416  64.3294585   3.9889239  43.5246982  64.0577174
   5.0945410  43.8153861  65.0501849  14.7357559  52.2912574  64.4124114
  14.4442367  52.6542555  65.2487575  14.1229690  51.5779583  64.2337446
  15.9353241  49.8565454  56.9326684  16.7700133  50.2955258  57.0964245
  16.0712370  49.3804107  56.1134930  12.9844747  47.4145189  62.8804172
  13.4598869  47.6072835  62.0723023  12.0610313  47.4704375  62.6347556
   7.5624964  39.4493033  61.8460006   8.0806908  40.1854059  61.5206494
   7.2080097  39.7557026  62.6806765   7.8137558  35.8693315  57.3660902
   8.0939312  35.2016504  57.9921329   8.5988165  36.0622411  56.8535566
   5.6171026  55.0452309  48.9285929   5.0444994  55.6642496  48.4756401
   6.1903820  55.5951671  49.4625851  11.6846416  44.2910949  61.1132478
  12.6363839  44.3909047  61.1344702  11.5149867  43.4989218  61.6230562
   9.7060796  41.3766532  61.2991878   9.1110728  41.6571545  60.6038367
   9.4210492  41.8660433  62.0708620   8.8368286  55.3289459  50.0594511
   9.7698959  55.2635021  50.2627387   8.7491499  56.1645726  49.6009044
  11.4656303  54.6455329  47.0198459  11.3869934  54.3115193  47.9134216
  12.2865970  55.1377097  47.0189931  14.1634494  47.5117069  60.2274777
  14.1310814  46.5733069  60.4134461  14.7735118  47.5901105  59.4940602
   6.0017825  46.3813122  46.2701981   6.9476930  46.2519330  46.3390399
   5.6232070  45.6427784  46.7471409  14.3128983  44.3028112  60.2733060
  13.7968031  43.5186569  60.0862989  15.1968931  43.9746829  60.4379580
  11.9739709  38.0469128  56.2328873  11.7764531  37.7384216  57.1172205
  12.5839415  38.7730767  56.3626803  19.9811044  48.5733076  59.3680814
  20.7114432  48.3118364  59.9288517  19.3717989  47.8361798  59.4082882
  18.0626341  46.7140938  59.9655265  17.3359505  46.5796903  59.3571757
  17.6473628  47.0217767  60.7711983   5.8856517  50.4330868  67.7302638
   6.8059527  50.6109467  67.9242685   5.8506100  49.4886913  67.5782337
   4.1860742  44.3063098  46.2056866   3.2792197  44.0096211  46.2819580
   4.4636723  44.0092916  45.3391153   5.8022808  38.8499988  52.3601108
   4.9923536  38.5047073  52.7356354   6.4907225  38.5407532  52.9488719
   7.7313356  37.9278035  53.9825404   8.2844395  38.3473488  54.6415427
   7.9683442  37.0013783  54.0248360   3.7546455  43.9165108  69.7628168
   3.6543182  44.8659465  69.6940259   3.5367997  43.5883347  68.8904238
   2.9559527  41.1650033  46.3468846   3.8178691  41.4904932  46.6064663
   3.1409871  40.3781529  45.8341911  11.1092163  40.0378560  53.4904069
  10.5290832  40.6963364  53.1082121  10.8428096  39.2155904  53.0791486
   9.5595730  39.4383618  55.6925389  10.0595508  39.5500152  54.8839708
  10.2031337  39.1344670  56.3326197   3.6177725  47.3462247  68.5793230
   3.1344807  48.1462607  68.7857119   3.7038664  47.3570192  67.6260674
   9.8917041  42.1978650  52.5460417   9.0042896  42.4828301  52.3280612
  10.3071030  42.0372414  51.6987694  13.2431577  42.2225171  56.2614756
  14.0191967  42.7121624  56.5339373  12.5179711  42.6483225  56.7186626
  15.6804136  42.9352790  57.3188697  16.2748627  42.6948526  56.6082005
  15.7530720  42.2159921  57.9462233   9.0360255  51.9623325  46.6408437
   9.7396105  52.1673327  47.2566092   8.3122903  52.5300087  46.9057520
   9.8658065  47.7133186  52.7610707   9.8093266  48.1701738  51.9218339
  10.4186407  46.9523871  52.5833550  13.6762871  43.5022918  53.5860827
  13.4199805  43.1019554  54.4169034  13.0515739  44.2166712  53.4610966
  17.9875209  46.2418991  56.0932118  17.4274767  46.3112181  56.8663680
  17.3818712  46.0659976  55.3731614  10.9446952  52.4005854  48.6906897
  11.7792556  51.9687053  48.5084372  10.7831295  52.2287868  49.6183791
  10.5992844  48.9037967  50.0563236  10.5441648  48.7382239  49.1151680
   9.9738900  49.6114000  50.2125426   7.9138751  51.2086879  69.3816799
   8.7829911  51.3827532  69.0203434   7.4345503  52.0281296  69.2592528
   3.9088970  38.4046076  49.6348555   3.8967640  39.3487916  49.7916825
   4.8012392  38.2216222  49.3408016   2.0824932  58.3283980  61.0606233
   2.9852178  58.3607591  61.3772728   1.8562302  57.3984431  61.0752568
   3.8378534  57.0814967  57.7216311   2.8874165  57.0816828  57.6080684
   4.1411020  56.3347701  57.2052346   7.7241089  34.9988853  53.8894491
   6.9573485  34.4447340  54.0351174   8.1351794  35.0710722  54.7508643
  19.5731227  62.9175505  58.7862074  20.2109637  62.7982253  58.0825414
  19.4552070  63.8656349  58.8450026  16.3820933  62.8702933  58.7223598
  16.0439445  62.7543998  57.8344133  17.2510702  62.4694098  58.7024605
  12.2407749  64.7238410  54.7120489  11.6772614  64.6328347  53.9436777
  12.1260144  63.9038314  55.1922982  16.8640716  64.0237785  64.6809804
  16.8529357  63.6290583  63.8090308  17.0261356  63.2903858  65.2743575
   9.7872181  66.2189601  57.5504710  10.5793473  65.8780426  57.1351009
  10.0268831  66.3284576  58.4706863  17.8207308  68.3909377  50.0234954
  17.1695288  68.9763458  49.6368968  18.6151671  68.9215572  50.0829992
  11.7462935  65.4798515  50.4222089  12.5193811  64.9327502  50.2834964
  12.0988334  66.3442764  50.6336550  13.5847978  66.8074897  63.6288988
  13.2937844  67.7120528  63.5135654  14.2204962  66.8491424  64.3433057
  14.5104184  64.1851745  60.2190348  15.1067757  63.9607768  59.5047310
  14.5679156  63.4436491  60.8215795  14.0829213  61.6391181  48.0540538
  14.3354734  61.1172702  47.2924001  13.1453772  61.4757326  48.1567222
  19.1272496  60.6426959  55.8615282  19.9135585  60.2246382  55.5105699
  19.3911200  61.5473051  56.0296930  19.2982573  66.0799809  50.5603939
  18.6628406  66.1534436  51.2724843  18.9679979  66.6693408  49.8823018
  24.5280923  60.5802192  56.7648260  25.2606095  60.0101409  56.9986090
  23.7720278  60.1923793  57.2054766  13.8025502  63.5419287  50.2564913
  13.6861760  62.8664190  50.9245998  13.9127761  63.0551661  49.4397066
  16.1457042  63.0029434  53.9611603  15.7815250  62.4760055  54.6724524
  17.0024158  62.6127903  53.7878088  22.0506343  54.2923766  61.2242869
  21.7189668  55.1619177  61.0004084  21.4551957  53.9760050  61.9036899
  15.7862529  58.0319333  48.9572951  15.9536932  58.8999570  49.3243422
  15.5959699  58.1946615  48.0334240  18.5437863  66.4936312  60.6238782
  18.2438586  67.3961351  60.5154589  18.1988922  66.2268496  61.4759934
  11.9950344  62.9450109  56.6575486  11.0700841  62.8126323  56.8653178
  12.2434757  63.7244328  57.1545428  21.9435006  59.0118853  58.3036219
  21.0351884  58.9434261  58.0094980  21.8922602  59.4890797  59.1318044
  15.7651750  60.4876991  49.9419618  15.6451376  60.9334042  50.7805098
  15.0704339  60.8362309  49.3833156   9.3559155  62.5883383  57.4919275
   9.4851536  62.8417862  58.4058687   8.6756606  63.1811091  57.1723930
  13.5258642  73.2580633  53.5909749  13.4482672  74.2088458  53.6698230
  12.9220286  72.9126505  54.2484676  16.0175872  60.4308498  66.2471116
  15.2409206  60.9902418  66.2373981  16.6566435  60.9165281  66.7685986
  23.8096653  57.2135291  60.0814093  23.1671033  57.5067824  59.4353887
  23.3051581  57.0988211  60.8867289  21.4636817  60.9598464  50.7699952
  22.3754673  61.1925851  50.5947650  20.9546464  61.5435508  50.2075031
  14.2722245  63.2393951  65.8089083  15.0136929  63.7778995  65.5323907
  13.5659230  63.8660240  65.9660635  19.7477584  65.3823092  64.4061245
  20.1560940  64.9405502  63.6615877  19.0254846  64.8075719  64.6595438
  16.1008654  60.3195699  61.7794802  16.9469849  60.7435112  61.9229451
  16.0407292  59.6629323  62.4733365  20.0706399  65.9424283  58.1613534
  19.4415261  66.1069997  57.4589601  19.6832061  66.3565892  58.9324498
  23.9495631  66.8778720  55.5157897  23.2646669  67.2577622  54.9654931
  24.0339480  67.4874047  56.2489845  19.2508100  57.9800067  63.4375975
  19.0069031  58.7342128  62.9010251  19.5268030  58.3585415  64.2723222
  21.2046562  64.5238679  62.1153241  21.4163458  65.1670439  61.4387622
  21.1576311  63.6900996  61.6475171  18.8072791  57.1356500  59.0189813
  17.9457270  57.4337754  59.3106551  18.8335226  57.3526899  58.0870846
  15.6234361  65.6798691  55.4263619  16.0872706  65.9586394  54.6368241
  15.3591159  64.7782135  55.2436709  12.5158442  65.2270172  58.3643382
  13.0859799  65.6557441  57.7260866  13.1066554  64.9452757  59.0627568
  14.5603247  61.8021843  52.2353184  15.2627290  62.2542887  52.7027110
  14.2283875  61.1605662  52.8633077  13.0083608  60.3933600  66.6104393
  12.3782269  61.0749880  66.8439790  12.9019696  60.2816681  65.6657531
   8.3028581  60.0605396  57.5370317   7.5127635  60.3162924  57.0610428
   8.7939828  60.8753734  57.6422358  22.3192390  67.4010635  60.2875598
  23.1409834  66.9990822  60.0058280  22.3154793  67.2978869  61.2391714
  10.2543326  60.4249975  54.4953794   9.4574489  60.5368669  55.0137290
  10.0268918  60.7636627  53.6294685  16.0848994  66.9494678  62.4436309
  16.1493426  67.4115085  63.2794481  15.3759918  66.3192043  62.5718619
   6.5866284  60.3135886  59.9685308   6.8374322  61.1982896  60.2342884
   7.1225832  60.1340488  59.1960400  30.4098383  63.7449383  56.6360570
  29.6562092  63.1756781  56.4804574  30.5445925  63.7112048  57.5831204
  15.7997011  68.6162786  52.3115289  15.6642686  69.4614321  52.7400137
  16.3406824  68.8182063  51.5481223  12.2864351  54.6954365  68.9729644
  11.8931297  54.1420564  69.6477288  13.1030491  55.0064944  69.3636162
   9.2526409  66.1338224  52.8843214   9.7650929  66.9281474  53.0348779
   9.9049122  65.4364514  52.8176816  11.0621293  69.2503980  54.9665967
  11.2387922  70.1721945  54.7786951  11.8578127  68.9362399  55.3960347
  15.2032312  56.1112245  66.5649901  15.9442025  56.7119398  66.4854363
  15.4350235  55.3689882  66.0067943  10.3473650  61.2968612  64.8428130
  10.2327165  60.3953869  65.1435229   9.4918168  61.5432309  64.4912947
  17.4265488  69.2386352  66.4415631  16.9829342  68.4522731  66.1236536
  18.0882701  69.4265503  65.7759522  12.1852609  70.7682154  60.9676310
  12.7360034  70.6399217  60.1953304  11.3464085  71.0677043  60.6171202
  19.5246726  69.5189152  64.4697032  19.5065201  70.3398033  63.9777302
  20.4466646  69.3943227  64.6947174  15.9819780  67.0333282  65.3120541
  16.5148117  66.2721570  65.0819849  15.4533861  66.7406933  66.0544695
  19.1489475  52.1393348  60.8414182  18.8053744  53.0294989  60.7653293
  19.5168438  51.9495005  59.9783767   7.2175326  64.4626878  53.6602785
   8.0550548  64.8723886  53.4436492   7.3953593  63.5226320  53.6302978
  19.1139758  62.1301959  49.3486618  18.5986381  62.9006563  49.5875005
  18.8417066  61.4567095  49.9719679  16.6986869  56.9751659  54.4071856
  15.8428465  56.5858510  54.2277495  17.1113820  57.0543620  53.5471641
  18.2286015  54.5098003  58.8063416  17.7250811  54.4728138  57.9931221
  18.5216622  55.4190745  58.8660072  14.4728901  54.5936732  57.8129597
  15.3381898  54.3979541  57.4535487  14.5406410  54.3647084  58.7398954
  24.0874032  64.8834313  51.2839791  23.3103475  64.5445473  50.8394953
  24.7665513  64.8886936  50.6094756  18.9026061  60.0029051  51.1746399
  18.5976196  60.3175200  52.0256542  19.8556503  60.0810471  51.2173732
  17.3472493  66.1619274  52.8239353  16.8193854  65.4272034  52.5112590
  16.8459995  66.9393950  52.5779321  22.3265339  64.3568295  57.9406399
  21.6689013  65.0467556  58.0286528  23.1305738  64.7464726  58.2840385
  12.0791220  56.8238940  55.1845964  12.6534972  56.6014122  54.4519157
  12.6662203  56.8927635  55.9374566  21.1370798  62.7112667  55.9910341
  21.6502679  63.3442659  56.4932051  21.7872021  62.1113863  55.6253701
  12.4060807  58.8543401  49.2041850  11.5698120  59.1918088  49.5251124
  12.2665577  58.7192381  48.2668986  14.3813888  53.6980189  53.9121034
  13.7278300  53.3829206  53.2877648  14.3394362  53.0755930  54.6380857
  15.4925093  63.9799484  45.8274326  14.5852155  63.7488738  46.0265475
  15.9896125  63.1837104  46.0148307  18.3993172  72.6896991  48.7471012
  17.7254871  72.9928688  49.3555970  18.7858994  73.4926072  48.3976469
  17.6151628  60.1862123  58.2368681  16.6974190  60.4077070  58.0790369
  18.0311772  60.2608433  57.3780389  18.3986676  61.5853538  53.3671362
  19.1458495  62.0974936  53.0578484  18.6678266  61.2637591  54.2275755
  16.6713326  64.0812079  50.3498316  15.7624546  63.7971112  50.4470786
  16.7008410  64.5011158  49.4901623  21.9032594  67.6918669  54.1189483
  21.4494921  66.8509579  54.1754674  21.2726560  68.3280067  54.4564264
  20.8465513  58.6210655  55.3490151  20.1088270  58.1088041  55.6800393
  21.0992287  58.1811036  54.5373428  20.3465533  69.5295165  55.0539302
  20.6388507  70.0900222  54.3351667  20.8564154  69.8223726  55.8092461
  20.9477141  51.3986907  55.9431920  21.2536017  50.5384270  55.6557835
  21.6729745  51.9904527  55.7430914   7.2401497  61.8017593  54.3313518
   7.0425896  61.2086954  53.6064585   6.6848161  61.4969803  55.0489457
  15.2198220  61.6940700  56.4508111  15.2746830  60.7414536  56.3750588
  14.4089422  61.8500139  56.9349410  16.3689414  65.6220823  47.6886394
  15.9308844  64.9056682  47.2292032  17.1099855  65.8496938  47.1271486
  13.1590580  60.3117760  54.2098490  12.3458446  60.6111930  54.6163682
  13.6549574  59.9173448  54.9272972  15.3099158  70.3075516  56.1432755
  15.2675337  70.5336363  55.2141287  16.2261857  70.0738891  56.2918556
  18.7564792  60.7759584  63.0413384  19.1114180  61.0031057  63.9007850
  19.4036923  61.1077961  62.4190639  24.4862529  63.8978020  53.7462713
  24.3480427  64.0879616  52.8183902  24.1298748  64.6597403  54.2030764
  12.6504655  57.8836115  59.8259725  13.2904034  57.7424874  59.1282688
  11.8182186  57.5970628  59.4498327  24.5131908  65.9654547  58.7573985
  24.9468415  65.8729836  59.6057039  25.2263489  65.9412047  58.1194001
  13.4264959  67.1838545  55.9394717  14.2205557  66.6888866  55.7377292
  12.7156651  66.6556409  55.5762423  18.2459803  69.5656641  60.2907085
  18.2996826  70.1347577  61.0584801  17.3774585  69.7358526  59.9261122
   9.7347722  61.3281627  52.0154470   8.8045310  61.2666083  52.2324432
   9.8305194  60.8057580  51.2191111   9.6533271  57.8536440  54.6032712
   9.9140089  58.7681773  54.4941872  10.4750444  57.3860883  54.7529325
  11.1258197  59.2674197  61.7731536  11.7981250  59.0591559  61.1244185
  10.2987983  59.0696283  61.3336769  25.3747458  66.0078248  61.2906870
  25.5683348  66.9124058  61.5366145  25.2748076  65.5485667  62.1245455
  17.0283769  55.8936138  63.7897197  16.3811684  56.5926088  63.6961674
  17.7984784  56.3272282  64.1573445  20.4362567  66.1584990  66.8647751
  20.2848073  65.9295542  65.9477834  20.4267246  67.1155592  66.8779096
  17.2047903  63.7316903  61.8494017  18.1339963  63.8828063  61.6762984
  16.7838933  63.8200924  60.9942663  16.0036235  67.7567567  59.6192555
  15.8647321  67.3886352  60.4918493  15.2150831  68.2715207  59.4476512
  16.5984387  72.8576664  50.9618091  16.7736143  72.3864707  51.7763714
  15.9117175  73.4842430  51.1899352  17.5541450  67.1349170  57.0081392
  17.2191283  67.0949940  57.9039042  17.0545396  66.4693886  56.5351803
  11.5285694  62.5416800  62.5333974  11.3905492  61.8097039  63.1345513
  12.4390617  62.4525700  62.2518161  20.4900642  64.4805204  47.2818452
  19.8729812  63.7552033  47.1851505  20.0217130  65.2414565  46.9385526
  14.1567995  62.2536759  62.0217653  14.8667613  61.6129952  61.9804272
  14.1137303  62.5049654  62.9443834  22.1454773  69.1904113  64.9424232
  22.0867320  68.5063333  64.2754815  22.5474292  69.9323103  64.4904858
  12.8696929  59.2401977  63.8413293  12.3334286  58.7892716  64.4934889
  12.2813637  59.3747886  63.0983757  11.1645472  76.0066027  57.7357951
  11.4042070  76.6384551  58.4136970  10.3214669  75.6554067  58.0223311
  12.2799188  58.6990629  46.4039756  11.4028654  58.5779430  46.0402003
  12.7556941  57.9076707  46.1518645  22.1472181  67.1543697  63.1738212
  21.2598959  66.8169619  63.2964611  22.7170732  66.4226728  63.4106977
   3.8001328  63.4867789  56.4981263   4.4872368  63.1729519  55.9102279
   3.6449456  64.3909153  56.2248515   8.6036050  58.3757985  60.9266287
   8.5194239  57.7683655  60.1916697   7.7818756  58.8667003  60.9275783
  15.6773334  71.8145149  60.1399455  15.6043506  72.6200121  60.6518760
  15.2350727  72.0137115  59.3147477  15.4663114  71.0516919  53.6502277
  14.6830636  71.5938599  53.7440501  16.1655859  71.5690899  54.0496518
  18.7759764  56.8611549  56.2936482  19.2728463  56.1081511  55.9737552
  18.0046745  56.8975865  55.7279692  26.6289521  62.5651914  57.9354774
  26.6179397  63.4476630  57.5648707  25.7606901  62.2123465  57.7409311
  18.1372018  71.7131983  62.2957614  18.8499990  72.3479448  62.2233515
  17.6462046  71.8095849  61.4797616  19.8589544  65.6183236  53.8674906
  18.9245823  65.7384698  53.6979610  20.0366213  64.7155703  53.6034915
  15.3594733  59.0028932  56.0208167  14.9892520  58.4499972  56.7089072
  15.8553825  58.3987065  55.4683167  23.2462096  61.4600555  54.4024940
  23.7122548  62.2928547  54.3285242  23.6969596  60.9945537  55.1070198
  13.1883931  69.4626427  63.1163185  13.8893391  70.0962910  63.2692579
  12.7179046  69.8041158  62.3558824  21.3138327  67.8044376  51.4011092
  21.5898171  67.6900971  52.3104966  20.4442826  67.4061861  51.3623265
  21.2178759  53.8281142  58.4415841  20.3041838  54.0585369  58.6098048
  21.6471860  53.9119586  59.2929873  20.9885217  62.0171034  60.9415735
  20.3356667  62.2646942  60.2868188  21.3665597  61.2035172  60.6078212
  17.9492391  72.0530727  55.0443905  18.1314785  71.2352383  55.5071658
  18.7725377  72.2698419  54.6068795  18.2834556  70.9798912  52.3058954
  18.8122323  70.4691367  51.6929116  18.5462776  70.6641443  53.1704487
  17.0372790  62.7590845  67.4281772  16.3613427  62.6584974  68.0984147
  17.8600424  62.6030059  67.8917769   8.7851649  68.9962782  60.0494287
   9.3705086  68.2506470  60.1822192   8.5876488  69.3066738  60.9330951
  11.6390304  72.0314029  55.0656730  10.9700680  72.5160157  54.5820770
  11.5003174  72.2783249  55.9800108   3.3769304  61.5668382  58.7698731
   3.4153403  61.0331973  59.5635849   2.8709597  61.0403587  58.1509708
  15.7795573  74.0657773  61.6639388  16.3313881  74.2289394  62.4288473
  16.1201766  74.6562210  60.9919413  10.7560066  56.4132922  62.2661273
  10.8201393  57.2747753  61.8538671  10.6927186  55.8006924  61.5333631
  10.2312339  58.4856055  65.9134307  10.8584378  58.1033132  66.5271831
   9.3740258  58.2670257  66.2790000  20.6306447  68.8919030  67.5188043
  21.1746351  69.5048988  67.0242997  20.0493292  69.4498608  68.0355056
   7.0077881  60.2932484  51.8452662   7.3031323  59.3843162  51.7919716
   6.1065917  60.2720223  51.5233664  18.9163960  72.0139748  58.6503070
  18.7915100  71.2129488  58.1414016  19.5743051  72.5085941  58.1617040
  10.5372128  58.3688481  57.8280211   9.8158714  58.9824448  57.6887684
  11.3265384  58.9046245  57.7496856  20.9798869  69.8148768  60.2782620
  20.0329204  69.6954119  60.2060947  21.3281642  68.9271266  60.3608882
  13.3398442  55.7042907  64.1020862  13.8632844  55.9505204  64.8647172
  13.1210775  56.5362942  63.6824000   8.7365723  57.9746582  51.9691987
   8.4078429  57.0943961  51.7867093   9.0905094  57.9194250  52.8568376
  17.9845302  69.6101484  56.4786973  17.8370264  68.6818192  56.6594543
  18.8098795  69.6321575  55.9944048  11.8507546  58.2619551  52.3367465
  12.1903619  58.7905473  51.6146073  12.2979667  58.5999958  53.1126031
  21.5879424  70.4330043  57.5651845  22.5125971  70.2272904  57.4276297
  21.4194727  70.1846444  58.4741187  14.5450987  56.6456602  61.7870533
  14.2047807  55.8464415  62.1891213  13.8389993  56.9458313  61.2147366
  15.1967459  53.7305915  60.2397856  16.0193528  53.2566393  60.1176746
  15.4405522  54.5096398  60.7396542  13.8375693  56.7594173  50.5360758
  14.5584056  57.1375426  50.0324474  13.2140997  57.4783050  50.6395736
  17.9806816  57.4639322  51.4719090  18.1970431  58.3463960  51.1707918
  17.5000883  57.0725535  50.7424732  12.7206038  60.4225035  58.0489834
  12.5750618  60.7365338  58.9414116  12.2431241  61.0409936  57.4960733
  14.5802420  57.4127583  58.0970724  14.5663989  56.5168677  57.7603022
  15.2974849  57.4198247  58.7309010  16.4328551  57.8464923  60.1423851
  16.1746329  58.7681994  60.1408182  15.9013592  57.4495358  60.8324316
  21.3774740  70.9515711  52.9213937  21.5511618  70.3862133  52.1687789
  21.8703631  71.7516605  52.7393427   7.1951700  62.9630380  60.9877496
   6.6505168  63.7390188  61.1197770   8.0731050  63.3101184  60.8296617
  13.9839316  56.2941964  53.3658294  14.1055228  55.3658610  53.5649182
  13.6941359  56.3080649  52.4536610  16.8530507  53.9796874  56.5025014
  16.8752204  54.0436207  55.5476994  17.2698566  53.1401383  56.6965520
  27.2314131  63.7152134  54.5404237  27.6745277  62.9659459  54.1423360
  26.3540641  63.7062270  54.1577969  22.3649912  70.2682475  50.0210835
  23.0600817  70.8889168  50.2398150  22.7073063  69.4177826  50.2963213
   7.9817722  62.0900276  63.8807653   7.2399458  62.2382911  64.4672283
   7.6610466  62.3508542  63.0174402  24.2641336  67.7182181  51.5498166
  24.7892660  68.0569453  50.8247486  24.1763688  66.7829196  51.3661301
  15.9261384  71.6316254  63.6788043  16.2348511  71.3865401  64.5510742
  16.7236866  71.8362893  63.1906913  15.9481996  73.7854164  55.9093419
  15.5086987  73.2930542  56.6026276  16.6990113  73.2427131  55.6685494
   8.4274335  69.9765705  55.9118047   9.2532355  69.6769477  55.5316691
   8.0768387  69.2073327  56.3607836  13.3955868  69.3292173  57.9815721
  12.7735878  68.6662878  57.6817949  14.0660735  69.3553305  57.2989369
   6.6282940  67.8952031  56.8706981   5.7914849  67.4674205  56.6890982
   6.6006586  68.0884474  57.8077772  13.4680396  57.8073961  67.5748227
  13.5168551  58.6836084  67.1925996  14.0102910  57.2651354  67.0019870
  24.0733117  65.2007551  64.1682092  24.1231122  65.0357558  65.1097615
  23.9647040  64.3334810  63.7779973  12.9569375  67.8796096  51.4574181
  13.1057496  68.5631561  50.8040854  13.7635819  67.8601186  51.9723637
  21.3636879  61.1838479  65.4841399  22.2646742  61.0444943  65.1925397
  21.4384854  61.3492933  66.4239577  15.6979684  58.5605333  64.3294585
  14.8282994  58.8538899  64.0577174  15.9339165  59.1445778  65.0501849
  26.7746996  65.1857372  56.9326684  27.6093887  65.6247176  57.0964245
  26.9106125  64.7096025  56.1134930  23.8238502  62.7437107  62.8804172
  24.2992623  62.9364753  62.0723023  22.9004067  62.7996292  62.6347556
  10.7122008  63.9061274  52.4635250  10.4668050  63.0023604  52.6615460
  10.8817923  63.9078424  51.5214728  18.4018718  54.7784950  61.8460006
  18.9200662  55.5145977  61.5206494  18.0473851  55.0848944  62.6806765
   9.9817656  59.6389631  49.9621412   9.2886901  59.7133986  49.3061448
   9.7369408  58.8749975  50.4842929  18.6531312  51.1985233  57.3660902
  18.9333066  50.5308422  57.9921329  19.4381919  51.3914328  56.8535566
  16.4564781  70.3744227  48.9285929  15.8838748  70.9934414  48.4756401
  17.0297575  70.9243588  49.4625851  22.5240171  59.6202867  61.1132478
  23.4757594  59.7200964  61.1344702  22.3543621  58.8281135  61.6230562
  20.5454550  56.7058450  61.2991878  19.9504482  56.9863463  60.6038367
  20.2604247  57.1952351  62.0708620  19.6762041  70.6581377  50.0594511
  20.6092714  70.5926938  50.2627387  19.5885254  71.4937644  49.6009044
  22.3050057  69.9747247  47.0198459  22.2263689  69.6407111  47.9134216
  23.1259724  70.4669015  47.0189931  25.0028249  62.8408986  60.2274777
  24.9704569  61.9024987  60.4134461  25.6128872  62.9193023  59.4940602
  16.8411579  61.7105039  46.2701981  17.7870684  61.5811248  46.3390399
  16.4625824  60.9719701  46.7471409  25.1522737  59.6320030  60.2733060
  24.6361786  58.8478487  60.0862989  26.0362686  59.3038746  60.4379580
  22.8133464  53.3761045  56.2328873  22.6158285  53.0676134  57.1172205
  23.4233170  54.1022684  56.3626803  30.8204798  63.9024993  59.3680814
  31.5508187  63.6410281  59.9288517  30.2111744  63.1653715  59.4082882
  28.9020096  62.0432856  59.9655265  28.1753259  61.9088821  59.3571757
  28.4867382  62.3509684  60.7711983  16.7250272  65.7622786  67.7302638
  17.6453281  65.9401385  67.9242685  16.6899855  64.8178831  67.5782337
  15.0254497  59.6355016  46.2056866  14.1185952  59.3388129  46.2819580
  15.3030478  59.3384834  45.3391153   5.9432437  60.9561379  56.6555913
   5.6235221  60.1026687  56.3630287   5.3965865  61.1709957  57.4113880
   9.7212344  63.6723820  60.3725419   9.9398354  64.6040928  60.3913453
  10.1338118  63.3131795  61.1580223  16.6416562  54.1791906  52.3601108
  15.8317291  53.8338990  52.7356354  17.3300979  53.8699449  52.9488719
  18.5707111  53.2569952  53.9825404  19.1238149  53.6765406  54.6415427
  18.8077197  52.3305700  54.0248360  14.5940210  59.2457026  69.7628168
  14.4936937  60.1951383  69.6940259  14.3761752  58.9175265  68.8904238
  13.7953281  56.4941951  46.3468846  14.6572445  56.8196849  46.6064663
  13.9803625  55.7073447  45.8341911   5.8120697  64.5764291  58.6249034
   5.1184168  64.1618243  58.1118989   6.5593688  64.6184827  58.0282453
  21.9485918  55.3670477  53.4904069  21.3684587  56.0255282  53.1082121
  21.6821850  54.5447822  53.0791486  20.3989484  54.7675535  55.6925389
  20.8989262  54.8792070  54.8839708  21.0425092  54.4636588  56.3326197
  14.4571480  62.6754165  68.5793230  13.9738562  63.4754525  68.7857119
  14.5432419  62.6862110  67.6260674   7.7257439  64.5082544  56.5015049
   7.7028128  64.6070232  55.5496932   8.0358076  65.3547695  56.8232215
  10.3844817  66.5658700  60.6161664  11.3388071  66.5342642  60.5491595
  10.1857341  66.1049323  61.4311890  10.9744199  65.1359816  63.1832461
  11.7937088  65.6303894  63.2067299  11.2481007  64.2191784  63.1550029
  20.7310796  57.5270568  52.5460417  19.8436651  57.8120218  52.3280612
  21.1464785  57.3664331  51.6987694  24.0825332  57.5517089  56.2614756
  24.8585722  58.0413541  56.5339373  23.3573466  57.9775143  56.7186626
  26.5197890  58.2644708  57.3188697  27.1142381  58.0240444  56.6082005
  26.5924474  57.5451839  57.9462233   8.7395046  72.1078319  57.6331862
   8.6049514  71.3478720  57.0669860   8.3227108  72.8319219  57.1660650
  19.8754009  67.2915243  46.6408437  20.5789859  67.4965245  47.2566092
  19.1516658  67.8592004  46.9057520  20.7051819  63.0425104  52.7610707
  20.6487021  63.4993655  51.9218339  21.2580162  62.2815788  52.5833550
  24.5156625  58.8314836  53.5860827  24.2593560  58.4311471  54.4169034
  23.8909493  59.5458630  53.4610966  28.8268963  61.5710909  56.0932118
  28.2668521  61.6404098  56.8663680  28.2212467  61.3951894  55.3731614
  11.8964172  73.0047636  57.8450304  11.7796556  73.9493069  57.7428994
  11.0756618  72.7021198  58.2336103  21.7840707  67.7297772  48.6906897
  22.6186310  67.2978970  48.5084372  21.6225049  67.5579785  49.6183791
  21.4386599  64.2329885  50.0563236  21.3835403  64.0674156  49.1151680
  20.8132654  64.9405918  50.2125426   6.2279114  59.4697949  63.8824658
   6.8737977  58.9596903  64.3711884   6.0196265  60.2066631  64.4568084
  18.7532506  66.5378797  69.3816799  19.6223666  66.7119449  69.0203434
  18.2739257  67.3573214  69.2592528  14.7482724  53.7337994  49.6348555
  14.7361394  54.6779834  49.7916825  15.6406146  53.5508139  49.3408016
  12.9218686  73.6575898  61.0606233  13.8245933  73.6899508  61.3772728
  12.6956056  72.7276349  61.0752568  14.6772288  72.4106884  57.7216311
  13.7267919  72.4108746  57.6080684  14.9804774  71.6639619  57.2052346
  18.5634844  50.3280771  53.8894491  17.7967239  49.7739257  54.0351174
  18.9745549  50.4002639  54.7508643  10.5676605  56.6165566  67.9799673
  11.4308066  56.2602371  68.1902997   9.9942015  56.2779461  68.6675077
  30.4124982  78.2467423  58.7862074  31.0503392  78.1274170  58.0825414
  30.2945825  79.1948267  58.8450026  27.2214688  78.1994851  58.7223598
  26.8833199  78.0835916  57.8344133  28.0904456  77.7986016  58.7024605
  23.0801504  80.0530327  54.7120489  22.5166369  79.9620264  53.9436777
  22.9653899  79.2330232  55.1922982  27.7034471  79.3529703  64.6809804
  27.6923112  78.9582501  63.8090308  27.8655110  78.6195775  65.2743575
  20.6265936  81.5481519  57.5504710  21.4187227  81.2072344  57.1351009
  20.8662586  81.6576494  58.4706863  28.6601062  83.7201295  50.0234954
  28.0089042  84.3055375  49.6368968  29.4545425  84.2507490  50.0829992
  22.5856689  80.8090432  50.4222089  23.3587565  80.2619419  50.2834964
  22.9382088  81.6734682  50.6336550  24.4241732  82.1366814  63.6288988
  24.1331598  83.0412445  63.5135654  25.0598716  82.1783342  64.3433057
  25.3497939  79.5143663  60.2190348  25.9461511  79.2899685  59.5047310
  25.4072910  78.7728408  60.8215795  24.9222967  76.9683098  48.0540538
  25.1748488  76.4464620  47.2924001  23.9847526  76.8049244  48.1567222
  29.9666250  75.9718877  55.8615282  30.7529339  75.5538300  55.5105699
  30.2304954  76.8764969  56.0296930  30.1376327  81.4091727  50.5603939
  29.5022160  81.4826354  51.2724843  29.8073734  81.9985326  49.8823018
  35.3674677  75.9094110  56.7648260  36.0999849  75.3393327  56.9986090
  34.6114033  75.5215710  57.2054766  24.6419256  78.8711204  50.2564913
  24.5255514  78.1956108  50.9245998  24.7521516  78.3843578  49.4397066
  26.9850797  78.3321351  53.9611603  26.6209004  77.8051972  54.6724524
  27.8417913  77.9419820  53.7878088  32.8900098  69.6215684  61.2242869
  32.5583422  70.4911095  61.0004084  32.2945711  69.3051968  61.9036899
  26.6256284  73.3611251  48.9572951  26.7930686  74.2291488  49.3243422
  26.4353453  73.5238533  48.0334240  29.3831617  81.8228230  60.6238782
  29.0832340  82.7253269  60.5154589  29.0382677  81.5560413  61.4759934
  22.8344099  78.2742027  56.6575486  21.9094595  78.1418241  56.8653178
  23.0828512  79.0536246  57.1545428  32.7828761  74.3410770  58.3036219
  31.8745638  74.2726179  58.0094980  32.7316357  74.8182715  59.1318044
  26.6045505  75.8168909  49.9419618  26.4845130  76.2625959  50.7805098
  25.9098093  76.1654226  49.3833156  20.1952910  77.9175300  57.4919275
  20.3245291  78.1709779  58.4058687  19.5150361  78.5103008  57.1723930
  24.3652397  88.5872550  53.5909749  24.2876427  89.5380375  53.6698230
  23.7614041  88.2418423  54.2484676  26.8569627  75.7600416  66.2471116
  26.0802961  76.3194336  66.2373981  27.4960190  76.2457199  66.7685986
  34.6490407  72.5427209  60.0814093  34.0064788  72.8359742  59.4353887
  34.1445336  72.4280129  60.8867289  32.3030571  76.2890382  50.7699952
  33.2148427  76.5217769  50.5947650  31.7940218  76.8727426  50.2075031
  25.1115999  78.5685869  65.8089083  25.8530683  79.1070913  65.5323907
  24.4052984  79.1952158  65.9660635  30.5871339  80.7115010  64.4061245
  30.9954695  80.2697420  63.6615877  29.8648600  80.1367637  64.6595438
  26.9402409  75.6487616  61.7794802  27.7863604  76.0727030  61.9229451
  26.8801046  74.9921241  62.4733365  30.9100153  81.2716200  58.1613534
  30.2809016  81.4361914  57.4589601  30.5225815  81.6857810  58.9324498
  34.7889385  82.2070638  55.5157897  34.1040423  82.5869539  54.9654931
  34.8733235  82.8165965  56.2489845  30.0901854  73.3091985  63.4375975
  29.8462786  74.0634045  62.9010251  30.3661785  73.6877332  64.2723222
  32.0440317  79.8530597  62.1153241  32.2557212  80.4962357  61.4387622
  31.9970065  79.0192914  61.6475171  29.6466546  72.4648418  59.0189813
  28.7851025  72.7629671  59.3106551  29.6728980  72.6818817  58.0870846
  26.4628115  81.0090608  55.4263619  26.9266461  81.2878311  54.6368241
  26.1984913  80.1074053  55.2436709  23.3552196  80.5562090  58.3643382
  23.9253553  80.9849358  57.7260866  23.9460308  80.2744675  59.0627568
  25.3997001  77.1313761  52.2353184  26.1021045  77.5834804  52.7027110
  25.0677630  76.4897580  52.8633077  23.8477363  75.7225517  66.6104393
  23.2176023  76.4041798  66.8439790  23.7413451  75.6108599  65.6657531
  19.1422335  75.3897313  57.5370317  18.3521389  75.6454842  57.0610428
  19.6333583  76.2045651  57.6422358  33.1586145  82.7302553  60.2875598
  33.9803588  82.3282740  60.0058280  33.1548548  82.6270787  61.2391714
  21.0937081  75.7541893  54.4953794  20.2968244  75.8660587  55.0137290
  20.8662673  76.0928545  53.6294685  26.9242748  82.2786596  62.4436309
  26.9887181  82.7407003  63.2794481  26.2153672  81.6483961  62.5718619
  17.4260038  75.6427804  59.9685308  17.6768077  76.5274814  60.2342884
  17.9619587  75.4632405  59.1960400  41.2492138  79.0741301  56.6360570
  40.4955846  78.5048699  56.4804574  41.3839679  79.0403965  57.5831204
  26.6390766  83.9454703  52.3115289  26.5036441  84.7906239  52.7400137
  27.1800578  84.1473981  51.5481223  23.1258105  70.0246283  68.9729644
  22.7325051  69.4712482  69.6477288  23.9424246  70.3356862  69.3636162
  20.0920163  81.4630141  52.8843214  20.6044684  82.2573392  53.0348779
  20.7442876  80.7656432  52.8176816  21.9015048  84.5795898  54.9665967
  22.0781676  85.5013862  54.7786951  22.6971881  84.2654317  55.3960347
  21.1867404  76.6260530  64.8428130  21.0720920  75.7245787  65.1435229
  20.3311922  76.8724226  64.4912947  28.2659242  84.5678270  66.4415631
  27.8223096  83.7814648  66.1236536  28.9276456  84.7557420  65.7759522
  23.0246363  86.0974071  60.9676310  23.5753789  85.9691135  60.1953304
  22.1857839  86.3968960  60.6171202  30.3640480  84.8481070  64.4697032
  30.3458956  85.6689951  63.9777302  31.2860400  84.7235145  64.6947174
  26.8213534  82.3625199  65.3120541  27.3541871  81.6013487  65.0819849
  26.2927616  82.0698851  66.0544695  29.9883229  67.4685265  60.8414182
  29.6447499  68.3586907  60.7653293  30.3562192  67.2786923  59.9783767
  18.0569080  79.7918796  53.6602785  18.8944302  80.2015804  53.4436492
  18.2347348  78.8518238  53.6302978  29.9533512  77.4593876  49.3486618
  29.4380136  78.2298481  49.5875005  29.6810821  76.7859012  49.9719679
  27.5380623  72.3043577  54.4071856  26.6822220  71.9150427  54.2277495
  27.9507575  72.3835538  53.5471641  29.0679770  69.8389920  58.8063416
  28.5644565  69.8020056  57.9931221  29.3610377  70.7482663  58.8660072
  25.3122656  69.9228650  57.8129597  26.1775652  69.7271459  57.4535487
  25.3800165  69.6939002  58.7398954  34.9267786  80.2126231  51.2839791
  34.1497229  79.8737390  50.8394953  35.6059267  80.2178854  50.6094756
  29.7419815  75.3320968  51.1746399  29.4369951  75.6467118  52.0256542
  30.6950257  75.4102388  51.2173732  28.1866247  81.4911192  52.8239353
  27.6587609  80.7563951  52.5112590  27.6853750  82.2685868  52.5779321
  33.1659093  79.6860212  57.9406399  32.5082768  80.3759474  58.0286528
  33.9699492  80.0756644  58.2840385  22.9184975  72.1530858  55.1845964
  23.4928727  71.9306039  54.4519157  23.5055957  72.2219552  55.9374566
  31.9764552  78.0404585  55.9910341  32.4896434  78.6734577  56.4932051
  32.6265776  77.4405780  55.6253701  23.2454562  74.1835319  49.2041850
  22.4091874  74.5210006  49.5251124  23.1059332  74.0484299  48.2668986
  25.2207642  69.0272107  53.9121034  24.5672055  68.7121124  53.2877648
  25.1788117  68.4047847  54.6380857  26.3318847  79.3091402  45.8274326
  25.4245909  79.0780655  46.0265475  26.8289879  78.5129021  46.0148307
  29.2386926  88.0188909  48.7471012  28.5648625  88.3220606  49.3555970
  29.6252748  88.8217990  48.3976469  28.4545383  75.5154040  58.2368681
  27.5367944  75.7368987  58.0790369  28.8705526  75.5900351  57.3780389
  29.2380431  76.9145456  53.3671362  29.9852250  77.4266853  53.0578484
  29.5072020  76.5929509  54.2275755  27.5107081  79.4103997  50.3498316
  26.6018300  79.1263030  50.4470786  27.5402165  79.8303075  49.4901623
  32.7426348  83.0210586  54.1189483  32.2888675  82.1801496  54.1754674
  32.1120315  83.6571985  54.4564264  31.6859268  73.9502572  55.3490151
  30.9482025  73.4379959  55.6800393  31.9386041  73.5102954  54.5373428
  31.1859287  84.8587083  55.0539302  31.4782262  85.4192140  54.3351667
  31.6957908  85.1515644  55.8092461  31.7870895  66.7278824  55.9431920
  32.0929772  65.8676188  55.6557835  32.5123500  67.3196445  55.7430914
  18.0795251  77.1309511  54.3313518  17.8819651  76.5378872  53.6064585
  17.5241915  76.8261721  55.0489457  26.0591975  77.0232617  56.4508111
  26.1140585  76.0706454  56.3750588  25.2483177  77.1792057  56.9349410
  27.2083169  80.9512741  47.6886394  26.7702599  80.2348599  47.2292032
  27.9493609  81.1788855  47.1271486  23.9984335  75.6409677  54.2098490
  23.1852200  75.9403848  54.6163682  24.4943329  75.2465366  54.9272972
  26.1492913  85.6367434  56.1432755  26.1069091  85.8628280  55.2141287
  27.0655611  85.4030809  56.2918556  29.5958546  76.1051502  63.0413384
  29.9507934  76.3322975  63.9007850  30.2430678  76.4369878  62.4190639
  35.3256283  79.2269938  53.7462713  35.1874182  79.4171534  52.8183902
  34.9692502  79.9889320  54.2030764  23.4898410  73.2128033  59.8259725
  24.1297789  73.0716792  59.1282688  22.6575940  72.9262546  59.4498327
  35.3525663  81.2946465  58.7573985  35.7862170  81.2021754  59.6057039
  36.0657244  81.2703965  58.1194001  24.2658713  82.5130463  55.9394717
  25.0599312  82.0180783  55.7377292  23.5550406  81.9848326  55.5762423
  29.0853558  84.8948559  60.2907085  29.1390580  85.4639495  61.0584801
  28.2168339  85.0650444  59.9261122  20.5741477  76.6573545  52.0154470
  19.6439065  76.5958000  52.2324432  20.6698949  76.1349498  51.2191111
  20.4927026  73.1828358  54.6032712  20.7533843  74.0973691  54.4941872
  21.3144198  72.7152800  54.7529325  21.9651951  74.5966115  61.7731536
  22.6375005  74.3883477  61.1244185  21.1381738  74.3988201  61.3336769
  36.2141213  81.3370165  61.2906870  36.4077103  82.2415976  61.5366145
  36.1141831  80.8777584  62.1245455  27.8677523  71.2228056  63.7897197
  27.2205438  71.9218005  63.6961674  28.6378539  71.6564200  64.1573445
  31.2756321  81.4876908  66.8647751  31.1241828  81.2587460  65.9477834
  31.2661001  82.4447509  66.8779096  28.0441658  79.0608821  61.8494017
  28.9733718  79.2119980  61.6762984  27.6232688  79.1492841  60.9942663
  26.8429989  83.0859485  59.6192555  26.7041075  82.7178270  60.4918493
  26.0544586  83.6007125  59.4476512  27.4378141  88.1868582  50.9618091
  27.6129897  87.7156625  51.7763714  26.7510929  88.8134348  51.1899352
  28.3935205  82.4641088  57.0081392  28.0585037  82.4241858  57.9039042
  27.8939150  81.7985804  56.5351803  22.3679449  77.8708718  62.5333974
  22.2299246  77.1388957  63.1345513  23.2784372  77.7817618  62.2518161
  31.3294396  79.8097122  47.2818452  30.7123567  79.0843950  47.1851505
  30.8610885  80.5706482  46.9385526  24.9961749  77.5828677  62.0217653
  25.7061368  76.9421869  61.9804272  24.9531057  77.8341572  62.9443834
  32.9848528  84.5196031  64.9424232  32.9261074  83.8355251  64.2754815
  33.3868046  85.2615021  64.4904858  23.7090683  74.5693895  63.8413293
  23.1728040  74.1184634  64.4934889  23.1207392  74.7039804  63.0983757
  22.0039227  91.3357944  57.7357951  22.2435825  91.9676469  58.4136970
  21.1608423  90.9845984  58.0223311  23.1192942  74.0282546  46.4039756
  22.2422408  73.9071347  46.0402003  23.5950695  73.2368625  46.1518645
  32.9865935  82.4835614  63.1738212  32.0992714  82.1461536  63.2964611
  33.5564486  81.7518646  63.4106977  14.6395082  78.8159706  56.4981263
  15.3266122  78.5021436  55.9102279  14.4843211  79.7201071  56.2248515
  19.4429804  73.7049903  60.9266287  19.3587993  73.0975572  60.1916697
  18.6212511  74.1958921  60.9275783  26.5167089  87.1437067  60.1399455
  26.4437260  87.9492038  60.6518760  26.0744482  87.3429033  59.3147477
  26.3056868  86.3808837  53.6502277  25.5224390  86.9230517  53.7440501
  27.0049613  86.8982816  54.0496518  29.6153518  72.1903466  56.2936482
  30.1122218  71.4373429  55.9737552  28.8440500  72.2267783  55.7279692
  37.4683276  77.8943832  57.9354774  37.4573152  78.7768547  57.5648707
  36.6000655  77.5415383  57.7409311  28.9765772  87.0423901  62.2957614
  29.6893744  87.6771366  62.2233515  28.4855801  87.1387767  61.4797616
  30.6983299  80.9475154  53.8674906  29.7639578  81.0676616  53.6979610
  30.8759967  80.0447620  53.6034915  26.1988487  74.3320849  56.0208167
  25.8286275  73.7791890  56.7089072  26.6947579  73.7278983  55.4683167
  34.0855850  76.7892473  54.4024940  34.5516303  77.6220464  54.3285242
  34.5363351  76.3237454  55.1070198  24.0277686  84.7918344  63.1163185
  24.7287145  85.4254827  63.2692579  23.5572801  85.1333076  62.3558824
  32.1532081  83.1336294  51.4011092  32.4291925  83.0192889  52.3104966
  31.2836580  82.7353779  51.3623265  32.0572513  69.1573060  58.4415841
  31.1435593  69.3877287  58.6098048  32.4865615  69.2411504  59.2929873
  31.8278972  77.3462952  60.9415735  31.1750422  77.5938859  60.2868188
  32.2059351  76.5327090  60.6078212  28.7886145  87.3822645  55.0443905
  28.9708540  86.5644301  55.5071658  29.6119131  87.5990337  54.6068795
  29.1228311  86.3090830  52.3058954  29.6516077  85.7983285  51.6929116
  29.3856531  85.9933360  53.1704487  27.8766545  78.0882763  67.4281772
  27.2007182  77.9876892  68.0984147  28.6994178  77.9321977  67.8917769
  19.6245404  84.3254699  60.0494287  20.2098840  83.5798387  60.1822192
  19.4270242  84.6358656  60.9330951  22.4784059  87.3605947  55.0656730
  21.8094434  87.8452074  54.5820770  22.3396929  87.6075167  55.9800108
  14.2163058  76.8960300  58.7698731  14.2547158  76.3623890  59.5635849
  13.7103351  76.3695505  58.1509708  26.6189327  89.3949690  61.6639388
  27.1707635  89.5581312  62.4288473  26.9595521  89.9854128  60.9919413
  21.5953821  71.7424840  62.2661273  21.6595147  72.6039671  61.8538671
  21.5320941  71.1298842  61.5333631  21.0706093  73.8147973  65.9134307
  21.6978132  73.4325050  66.5271831  20.2134012  73.5962175  66.2790000
  31.4700202  84.2210948  67.5188043  32.0140106  84.8340906  67.0242997
  30.8887047  84.7790526  68.0355056  17.8471636  75.6224402  51.8452662
  18.1425077  74.7135080  51.7919716  16.9459672  75.6012141  51.5233664
  29.7557715  87.3431666  58.6503070  29.6308854  86.5421406  58.1414016
  30.4136806  87.8377859  58.1617040  21.3765883  73.6980398  57.8280211
  20.6552469  74.3116366  57.6887684  22.1659139  74.2338163  57.7496856
  31.8192623  85.1440686  60.2782620  30.8722959  85.0246037  60.2060947
  32.1675396  84.2563184  60.3608882  24.1792196  71.0334825  64.1020862
  24.7026598  71.2797121  64.8647172  23.9604530  71.8654860  63.6824000
  19.5759478  73.3038499  51.9691987  19.2472184  72.4235878  51.7867093
  19.9298848  73.2486168  52.8568376  28.8239056  84.9393402  56.4786973
  28.6764019  84.0110109  56.6594543  29.6492550  84.9613493  55.9944048
  22.6901301  73.5911469  52.3367465  23.0297373  74.1197390  51.6146073
  23.1373421  73.9291875  53.1126031  32.4273178  85.7621961  57.5651845
  33.3519726  85.5564822  57.4276297  32.2588482  85.5138362  58.4741187
  25.3844742  71.9748520  61.7870533  25.0441562  71.1756333  62.1891213
  24.6783748  72.2750231  61.2147366  26.0361213  69.0597832  60.2397856
  26.8587283  68.5858310  60.1176746  26.2799277  69.8388316  60.7396542
  24.6769448  72.0886091  50.5360758  25.3977810  72.4667344  50.0324474
  24.0534752  72.8074968  50.6395736  28.8200571  72.7931240  51.4719090
  29.0364185  73.6755878  51.1707918  28.3394638  72.4017453  50.7424732
  23.5599792  75.7516953  58.0489834  23.4144373  76.0657256  58.9414116
  23.0824996  76.3701853  57.4960733  25.4196175  72.7419501  58.0970724
  25.4057744  71.8460594  57.7603022  26.1368603  72.7490165  58.7309010
  27.2722306  73.1756841  60.1423851  27.0140084  74.0973912  60.1408182
  26.7407346  72.7787276  60.8324316  32.2168494  86.2807628  52.9213937
  32.3905372  85.7154051  52.1687789  32.7097386  87.0808523  52.7393427
  18.0345454  78.2922297  60.9877496  17.4898922  79.0682105  61.1197770
  18.9124804  78.6393102  60.8296617  24.8233071  71.6233881  53.3658294
  24.9448982  70.6950527  53.5649182  24.5335113  71.6372567  52.4536610
  27.6924261  69.3088792  56.5025014  27.7145958  69.3728125  55.5476994
  28.1092320  68.4693300  56.6965520  38.0707886  79.0444051  54.5404237
  38.5139032  78.2951376  54.1423360  37.1934396  79.0354188  54.1577969
  33.2043667  85.5974393  50.0210835  33.8994572  86.2181085  50.2398150
  33.5466817  84.7469744  50.2963213  18.8211476  77.4192194  63.8807653
  18.0793212  77.5674829  64.4672283  18.5004220  77.6800459  63.0174402
  35.1035090  83.0474098  51.5498166  35.6286414  83.3861371  50.8247486
  35.0157443  82.1121114  51.3661301  26.7655139  86.9608172  63.6788043
  27.0742265  86.7157319  64.5510742  27.5630621  87.1654810  63.1906913
  26.7875751  89.1146081  55.9093419  26.3480741  88.6222460  56.6026276
  27.5383868  88.5719049  55.6685494  19.2668090  85.3057622  55.9118047
  20.0926110  85.0061394  55.5316691  18.9162142  84.5365245  56.3607836
  24.2349623  84.6584091  57.9815721  23.6129632  83.9954796  57.6817949
  24.9054490  84.6845222  57.2989369  17.4676695  83.2243949  56.8706981
  16.6308603  82.7966123  56.6890982  17.4400340  83.4176392  57.8077772
  24.3074150  73.1365879  67.5748227  24.3562306  74.0128001  67.1925996
  24.8496665  72.5943272  67.0019870  34.7928996  83.6807002  66.8549364
  34.0024540  83.6631141  66.3153863  34.5562351  84.2195296  67.6098400
  34.9126871  80.5299468  64.1682092  34.9624876  80.3649476  65.1097615
  34.8040795  79.6626727  63.7779973  23.7963130  83.2088014  51.4574181
  23.9451250  83.8923478  50.8040854  24.6029573  83.1893104  51.9723637
  32.2030634  76.5130396  65.4841399  33.1040496  76.3736861  65.1925397
  32.2778608  76.6784851  66.4239577  26.5373439  73.8897251  64.3294585
  25.6676748  74.1830817  64.0577174  26.7732919  74.4737696  65.0501849
  36.4145068  82.9496410  64.4124114  36.1229876  83.3126390  65.2487575
  35.8017199  82.2363418  64.2337446  37.6140750  80.5149290  56.9326684
  38.4487642  80.9539094  57.0964245  37.7499879  80.0387943  56.1134930
  34.6632256  78.0729024  62.8804172  35.1386378  78.2656671  62.0723023
  33.7397822  78.1288210  62.6347556  21.5515763  79.2353192  52.4635250
  21.3061805  78.3315522  52.6615460  21.7211677  79.2370342  51.5214728
  29.2412473  70.1076868  61.8460006  29.7594417  70.8437895  61.5206494
  28.8867606  70.4140861  62.6806765  20.8211410  74.9681549  49.9621412
  20.1280655  75.0425904  49.3061448  20.5763162  74.2041893  50.4842929
  29.4925067  66.5277150  57.3660902  29.7726821  65.8600340  57.9921329
  30.2775674  66.7206246  56.8535566  27.2958535  85.7036144  48.9285929
  26.7232502  86.3226331  48.4756401  27.8691329  86.2535506  49.4625851
  33.3633925  74.9494784  61.1132478  34.3151348  75.0492882  61.1344702
  33.1937376  74.1573053  61.6230562  31.3848305  72.0350368  61.2991878
  30.7898237  72.3155380  60.6038367  31.0998001  72.5244269  62.0708620
  30.5155795  85.9873294  50.0594511  31.4486468  85.9218856  50.2627387
  30.4279008  86.8229561  49.6009044  33.1443812  85.3039165  47.0198459
  33.0657443  84.9699028  47.9134216  33.9653479  85.7960933  47.0189931
  35.8422003  78.1700904  60.2274777  35.8098323  77.2316905  60.4134461
  36.4522627  78.2484941  59.4940602  27.6805334  77.0396957  46.2701981
  28.6264439  76.9103165  46.3390399  27.3019579  76.3011619  46.7471409
  35.9916492  74.9611948  60.2733060  35.4755540  74.1770404  60.0862989
  36.8756440  74.6330664  60.4379580  33.6527218  68.7052963  56.2328873
  33.4552040  68.3968051  57.1172205  34.2626924  69.4314602  56.3626803
  41.6598553  79.2316911  59.3680814  42.3901941  78.9702199  59.9288517
  41.0505498  78.4945633  59.4082882  39.7413850  77.3724774  59.9655265
  39.0147014  77.2380738  59.3571757  39.3261137  77.6801602  60.7711983
  27.5644026  81.0914703  67.7302638  28.4847036  81.2693302  67.9242685
  27.5293609  80.1470749  67.5782337  25.8648251  74.9646933  46.2056866
  24.9579706  74.6680046  46.2819580  26.1424232  74.6676752  45.3391153
  16.7826191  76.2853297  56.6555913  16.4628976  75.4318605  56.3630287
  16.2359620  76.5001875  57.4113880  20.5606099  79.0015738  60.3725419
  20.7792109  79.9332846  60.3913453  20.9731873  78.6423712  61.1580223
  27.4810317  69.5083823  52.3601108  26.6711045  69.1630908  52.7356354
  28.1694734  69.1991367  52.9488719  29.4100865  68.5861870  53.9825404
  29.9631904  69.0057323  54.6415427  29.6470951  67.6597618  54.0248360
  25.4333964  74.5748944  69.7628168  25.3330691  75.5243301  69.6940259
  25.2155506  74.2467183  68.8904238  24.6347036  71.8233869  46.3468846
  25.4966200  72.1488767  46.6064663  24.8197380  71.0365365  45.8341911
  16.6514451  79.9056208  58.6249034  15.9577923  79.4910161  58.1118989
  17.3987442  79.9476745  58.0282453  32.7879672  70.6962395  53.4904069
  32.2078341  71.3547199  53.1082121  32.5215605  69.8739740  53.0791486
  31.2383239  70.0967453  55.6925389  31.7383017  70.2083987  54.8839708
  31.8818846  69.7928506  56.3326197  25.2965234  78.0046082  68.5793230
  24.8132316  78.8046443  68.7857119  25.3826173  78.0154027  67.6260674
  18.5651194  79.8374462  56.5015049  18.5421882  79.9362149  55.5496932
  18.8751830  80.6839613  56.8232215  21.2238572  81.8950617  60.6161664
  22.1781825  81.8634560  60.5491595  21.0251095  81.4341241  61.4311890
  21.8137954  80.4651733  63.1832461  22.6330843  80.9595812  63.2067299
  22.0874762  79.5483701  63.1550029  31.5704550  72.8562486  52.5460417
  30.6830405  73.1412136  52.3280612  31.9858539  72.6956249  51.6987694
  34.9219086  72.8809007  56.2614756  35.6979476  73.3705459  56.5339373
  34.1967220  73.3067061  56.7186626  37.3591645  73.5936626  57.3188697
  37.9536136  73.3532362  56.6082005  37.4318229  72.8743756  57.9462233
  19.5788801  87.4370237  57.6331862  19.4443269  86.6770638  57.0669860
  19.1620863  88.1611137  57.1660650  30.7147764  82.6207160  46.6408437
  31.4183614  82.8257163  47.2566092  29.9910412  83.1883922  46.9057520
  31.5445574  78.3717021  52.7610707  31.4880775  78.8285573  51.9218339
  32.0973916  77.6107706  52.5833550  35.3550380  74.1606753  53.5860827
  35.0987314  73.7603389  54.4169034  34.7303248  74.8750547  53.4610966
  39.6662718  76.9002827  56.0932118  39.1062276  76.9696016  56.8663680
  39.0606221  76.7243811  55.3731614  22.7357927  88.3339554  57.8450304
  22.6190311  89.2784986  57.7428994  21.9150373  88.0313115  58.2336103
  32.6234461  83.0589689  48.6906897  33.4580065  82.6270888  48.5084372
  32.4618804  82.8871703  49.6183791  32.2780353  79.5621803  50.0563236
  32.2229157  79.3966074  49.1151680  31.6526408  80.2697836  50.2125426
  17.0672868  74.7989867  63.8824658  17.7131732  74.2888821  64.3711884
  16.8590019  75.5358549  64.4568084  29.5926260  81.8670715  69.3816799
  30.4617420  82.0411367  69.0203434  29.1133012  82.6865131  69.2592528
  25.5876479  69.0629912  49.6348555  25.5755149  70.0071752  49.7916825
  26.4799901  68.8800057  49.3408016  23.7612441  88.9867816  61.0606233
  24.6639687  89.0191426  61.3772728  23.5349811  88.0568267  61.0752568
  25.5166043  87.7398802  57.7216311  24.5661674  87.7400664  57.6080684
  25.8198529  86.9931537  57.2052346  29.4028598  65.6572688  53.8894491
  28.6360994  65.1031175  54.0351174  29.8139303  65.7294557  54.7508643
  21.4070359  71.9457484  67.9799673  22.2701821  71.5894289  68.1902997
  20.8335770  71.6071379  68.6675077  41.2518736  93.5759341  58.7862074
  41.8897146  93.4566088  58.0825414  41.1339579  94.5240184  58.8450026
  38.0608442  93.5286769  58.7223598  37.7226954  93.4127833  57.8344133
  38.9298211  93.1277934  58.7024605  33.9195258  95.3822245  54.7120489
  33.3560123  95.2912182  53.9436777  33.8047653  94.5622150  55.1922982
  38.5428225  94.6821620  64.6809804  38.5316866  94.2874419  63.8090308
  38.7048865  93.9487693  65.2743575  31.4659690  96.8773437  57.5504710
  32.2580982  96.5364261  57.1351009  31.7056340  96.9868412  58.4706863
  39.4994817  99.0493213  50.0234954  38.8482797  99.6347293  49.6368968
  40.2939180  99.5799408  50.0829992  33.4250444  96.1382350  50.4222089
  34.1981320  95.5911337  50.2834964  33.7775843  97.0026599  50.6336550
  35.2635487  97.4658732  63.6288988  34.9725353  98.3704363  63.5135654
  35.8992471  97.5075260  64.3433057  36.1891693  94.8435581  60.2190348
  36.7855266  94.6191603  59.5047310  36.2466665  94.1020326  60.8215795
  35.7616722  92.2975016  48.0540538  36.0142242  91.7756537  47.2924001
  34.8241281  92.1341161  48.1567222  40.8060005  91.3010794  55.8615282
  41.5923094  90.8830218  55.5105699  41.0698709  92.2056887  56.0296930
  40.9770082  96.7383645  50.5603939  40.3415915  96.8118271  51.2724843
  40.6467488  97.3277244  49.8823018  35.4813011  94.2003122  50.2564913
  35.3649269  93.5248025  50.9245998  35.5915270  93.7135496  49.4397066
  37.8244551  93.6613269  53.9611603  37.4602759  93.1343890  54.6724524
  38.6811667  93.2711738  53.7878088  43.7293852  84.9507602  61.2242869
  43.3977177  85.8203013  61.0004084  43.1339465  84.6343886  61.9036899
  37.4650038  88.6903169  48.9572951  37.6324441  89.5583405  49.3243422
  37.2747208  88.8530450  48.0334240  40.2225372  97.1520148  60.6238782
  39.9226095  98.0545186  60.5154589  39.8776431  96.8852331  61.4759934
  33.6737853  93.6033945  56.6575486  32.7488350  93.4710159  56.8653178
  33.9222266  94.3828164  57.1545428  43.6222515  89.6702688  58.3036219
  42.7139393  89.6018096  58.0094980  43.5710111  90.1474633  59.1318044
  37.4439259  91.1460826  49.9419618  37.3238885  91.5917877  50.7805098
  36.7491848  91.4946144  49.3833156  31.0346664  93.2467218  57.4919275
  31.1639045  93.5001697  58.4058687  30.3544115  93.8394926  57.1723930
  35.2046151 103.9164468  53.5909749  35.1270181 104.8672293  53.6698230
  34.6007795 103.5710341  54.2484676  37.6963381  91.0892333  66.2471116
  36.9196715  91.6486254  66.2373981  38.3353944  91.5749116  66.7685986
  43.1424325  91.6182299  50.7699952  44.0542182  91.8509686  50.5947650
  42.6333973  92.2019344  50.2075031  35.9509754  93.8977787  65.8089083
  36.6924438  94.4362831  65.5323907  35.2446739  94.5244076  65.9660635
  41.4265093  96.0406927  64.4061245  41.8348449  95.5989338  63.6615877
  40.7042355  95.4659555  64.6595438  37.7796163  90.9779534  61.7794802
  38.6257358  91.4018948  61.9229451  37.7194801  90.3213158  62.4733365
  41.7493908  96.6008118  58.1613534  41.1202770  96.7653832  57.4589601
  41.3619570  97.0149727  58.9324498  45.6283140  97.5362556  55.5157897
  44.9434178  97.9161457  54.9654931  45.7126989  98.1457882  56.2489845
  40.9295609  88.6383902  63.4375975  40.6856540  89.3925963  62.9010251
  41.2055539  89.0169250  64.2723222  42.8834071  95.1822515  62.1153241
  43.0950967  95.8254275  61.4387622  42.8363820  94.3484831  61.6475171
  40.4860300  87.7940335  59.0189813  39.6244779  88.0921589  59.3106551
  40.5122735  88.0110734  58.0870846  37.3021870  96.3382526  55.4263619
  37.7660215  96.6170229  54.6368241  37.0378668  95.4365971  55.2436709
  34.1945951  95.8854008  58.3643382  34.7647308  96.3141276  57.7260866
  34.7854063  95.6036592  59.0627568  36.2390756  92.4605678  52.2353184
  36.9414799  92.9126722  52.7027110  35.9071384  91.8189497  52.8633077
  34.6871117  91.0517435  66.6104393  34.0569778  91.7333716  66.8439790
  34.5807205  90.9400517  65.6657531  29.9816090  90.7189231  57.5370317
  29.1915144  90.9746760  57.0610428  30.4727337  91.5337569  57.6422358
  43.9979899  98.0594470  60.2875598  44.8197343  97.6574657  60.0058280
  43.9942302  97.9562704  61.2391714  31.9330835  91.0833810  54.4953794
  31.1361998  91.1952505  55.0137290  31.7056427  91.4220462  53.6294685
  37.7636503  97.6078513  62.4436309  37.8280935  98.0698921  63.2794481
  37.0547427  96.9775878  62.5718619  28.2653793  90.9719721  59.9685308
  28.5161831  91.8566731  60.2342884  28.8013341  90.7924323  59.1960400
  37.4784520  99.2746621  52.3115289  37.3430195 100.1198157  52.7400137
  38.0194333  99.4765899  51.5481223  33.9651860  85.3538201  68.9729644
  33.5718806  84.8004399  69.6477288  34.7818000  85.6648779  69.3636162
  30.9313918  96.7922059  52.8843214  31.4438438  97.5865309  53.0348779
  31.5836631  96.0948349  52.8176816  32.7408802  99.9087815  54.9665967
  32.9175431 100.8305780  54.7786951  33.5365636  99.5946235  55.3960347
  36.8819821  86.7696080  66.5649901  37.6229534  87.3703233  66.4854363
  37.1137744  86.0273718  66.0067943  32.0261159  91.9552447  64.8428130
  31.9114674  91.0537704  65.1435229  31.1705677  92.2016144  64.4912947
  39.1052997  99.8970187  66.4415631  38.6616851  99.1106566  66.1236536
  39.7670210 100.0849338  65.7759522  33.8640118 101.4265989  60.9676310
  34.4147543 101.2983052  60.1953304  33.0251594 101.7260878  60.6171202
  41.2034235 100.1772987  64.4697032  41.1852710 100.9981868  63.9777302
  42.1254155 100.0527063  64.6947174  37.6607289  97.6917117  65.3120541
  38.1935626  96.9305405  65.0819849  37.1321370  97.3990769  66.0544695
  40.8276984  82.7977183  60.8414182  40.4841253  83.6878825  60.7653293
  41.1955947  82.6078841  59.9783767  28.8962835  95.1210713  53.6602785
  29.7338057  95.5307722  53.4436492  29.0741102  94.1810155  53.6302978
  40.7927267  92.7885794  49.3486618  40.2773890  93.5590399  49.5875005
  40.5204575  92.1150930  49.9719679  38.3774378  87.6335495  54.4071856
  37.5215974  87.2442345  54.2277495  38.7901329  87.7127456  53.5471641
  39.9073524  85.1681838  58.8063416  39.4038320  85.1311973  57.9931221
  40.2004131  86.0774581  58.8660072  36.1516410  85.2520568  57.8129597
  37.0169407  85.0563376  57.4535487  36.2193919  85.0230920  58.7398954
  45.7661541  95.5418149  51.2839791  44.9890984  95.2029308  50.8394953
  46.4453022  95.5470772  50.6094756  40.5813570  90.6612886  51.1746399
  40.2763705  90.9759035  52.0256542  41.5344012  90.7394306  51.2173732
  39.0260002  96.8203109  52.8239353  38.4981363  96.0855869  52.5112590
  38.5247504  97.5977786  52.5779321  33.7578729  87.4822776  55.1845964
  34.3322481  87.2597957  54.4519157  34.3449712  87.5511470  55.9374566
  42.8158306  93.3696503  55.9910341  43.3290188  94.0026494  56.4932051
  43.4659530  92.7697698  55.6253701  34.0848316  89.5127237  49.2041850
  33.2485629  89.8501923  49.5251124  33.9453086  89.3776216  48.2668986
  36.0601397  84.3564025  53.9121034  35.4065809  84.0413042  53.2877648
  36.0181871  83.7339765  54.6380857  37.1712602  94.6383320  45.8274326
  36.2639664  94.4072573  46.0265475  37.6683634  93.8420939  46.0148307
  40.0780681 103.3480827  48.7471012  39.4042379 103.6512524  49.3555970
  40.4646503 104.1509907  48.3976469  39.2939137  90.8445958  58.2368681
  38.3761699  91.0660905  58.0790369  39.7099281  90.9192269  57.3780389
  40.0774185  92.2437374  53.3671362  40.8246004  92.7558771  53.0578484
  40.3465775  91.9221427  54.2275755  38.3500835  94.7395915  50.3498316
  37.4412055  94.4554947  50.4470786  38.3795919  95.1594993  49.4901623
  43.5820103  98.3502504  54.1189483  43.1282430  97.5093414  54.1754674
  42.9514069  98.9863902  54.4564264  42.5253022  89.2794490  55.3490151
  41.7875779  88.7671876  55.6800393  42.7779796  88.8394872  54.5373428
  42.0253042 100.1879001  55.0539302  42.3176016 100.7484058  54.3351667
  42.5351663 100.4807562  55.8092461  42.6264650  82.0570742  55.9431920
  42.9323526  81.1968105  55.6557835  43.3517254  82.6488362  55.7430914
  28.9189006  92.4601429  54.3313518  28.7213405  91.8670789  53.6064585
  28.3635670  92.1553639  55.0489457  36.8985729  92.3524535  56.4508111
  36.9534339  91.3998372  56.3750588  36.0876931  92.5083974  56.9349410
  38.0476923  96.2804658  47.6886394  37.6096353  95.5640517  47.2292032
  38.7887364  96.5080773  47.1271486  34.8378089  90.9701595  54.2098490
  34.0245955  91.2695765  54.6163682  35.3337083  90.5757284  54.9272972
  36.9886667 100.9659352  56.1432755  36.9462846 101.1920198  55.2141287
  37.9049366 100.7322726  56.2918556  40.4352301  91.4343419  63.0413384
  40.7901689  91.6614892  63.9007850  41.0824432  91.7661796  62.4190639
  46.1650038  94.5561855  53.7462713  46.0267936  94.7463451  52.8183902
  45.8086257  95.3181238  54.2030764  34.3292164  88.5419950  59.8259725
  34.9691543  88.4008709  59.1282688  33.4969695  88.2554464  59.4498327
  35.1052468  97.8422381  55.9394717  35.8993066  97.3472701  55.7377292
  34.3944160  97.3140244  55.5762423  39.9247312 100.2240476  60.2907085
  39.9784335 100.7931413  61.0584801  39.0562094 100.3942361  59.9261122
  31.4135231  91.9865463  52.0154470  30.4832819  91.9249918  52.2324432
  31.5092703  91.4641415  51.2191111  31.3320780  88.5120275  54.6032712
  31.5927598  89.4265609  54.4941872  32.1537953  88.0444718  54.7529325
  32.8045706  89.9258033  61.7731536  33.4768759  89.7175395  61.1244185
  31.9775492  89.7280119  61.3336769  38.7071278  86.5519973  63.7897197
  38.0599193  87.2509923  63.6961674  39.4772293  86.9856117  64.1573445
  42.1150076  96.8168826  66.8647751  41.9635582  96.5879377  65.9477834
  42.1054755  97.7739427  66.8779096  38.8835412  94.3900738  61.8494017
  39.8127472  94.5411898  61.6762984  38.4626442  94.4784759  60.9942663
  37.6823744  98.4151403  59.6192555  37.5434830  98.0470187  60.4918493
  36.8938340  98.9299042  59.4476512  38.2771896 103.5160499  50.9618091
  38.4523652 103.0448542  51.7763714  37.5904684 104.1426265  51.1899352
  39.2328959  97.7933005  57.0081392  38.8978792  97.7533775  57.9039042
  38.7332905  97.1277721  56.5351803  33.2073203  93.2000636  62.5333974
  33.0693001  92.4680874  63.1345513  34.1178126  93.1109536  62.2518161
  42.1688151  95.1389040  47.2818452  41.5517321  94.4135868  47.1851505
  41.7004639  95.8998400  46.9385526  35.8355504  92.9120595  62.0217653
  36.5455122  92.2713787  61.9804272  35.7924812  93.1633490  62.9443834
  43.8242282  99.8487948  64.9424232  43.7654829  99.1647168  64.2754815
  44.2261801 100.5906938  64.4904858  34.5484438  89.8985813  63.8413293
  34.0121795  89.4476551  64.4934889  33.9601146  90.0331722  63.0983757
  32.8432981 106.6649862  57.7357951  33.0829579 107.2968386  58.4136970
  32.0002178 106.3137902  58.0223311  33.9586697  89.3574464  46.4039756
  33.0816163  89.2363265  46.0402003  34.4344450  88.5660542  46.1518645
  43.8259690  97.8127532  63.1738212  42.9386468  97.4753454  63.2964611
  44.3958241  97.0810563  63.4106977  25.4788837  94.1451624  56.4981263
  26.1659877  93.8313354  55.9102279  25.3236965  95.0492989  56.2248515
  30.2823559  89.0341820  60.9266287  30.1981748  88.4267490  60.1916697
  29.4606265  89.5250839  60.9275783  37.3560843 102.4728984  60.1399455
  37.2831014 103.2783956  60.6518760  36.9138236 102.6720950  59.3147477
  37.1450623 101.7100754  53.6502277  36.3618145 102.2522435  53.7440501
  37.8443368 102.2274734  54.0496518  40.4547273  87.5195384  56.2936482
  40.9515972  86.7665346  55.9737552  39.6834254  87.5559701  55.7279692
  39.8159527 102.3715818  62.2957614  40.5287499 103.0063283  62.2233515
  39.3249555 102.4679684  61.4797616  41.5377053  96.2767071  53.8674906
  40.6033332  96.3968534  53.6979610  41.7153722  95.3739538  53.6034915
  37.0382242  89.6612767  56.0208167  36.6680029  89.1083807  56.7089072
  37.5341334  89.0570900  55.4683167  44.9249605  92.1184390  54.4024940
  45.3910057  92.9512382  54.3285242  45.3757105  91.6529372  55.1070198
  34.8671440 100.1210262  63.1163185  35.5680900 100.7546745  63.2692579
  34.3966555 100.4624994  62.3558824  42.9925836  98.4628212  51.4011092
  43.2685680  98.3484806  52.3104966  42.1230335  98.0645697  51.3623265
  42.8966268  84.4864977  58.4415841  41.9829347  84.7169204  58.6098048
  43.3259369  84.5703422  59.2929873  39.6279900 102.7114563  55.0443905
  39.8102294 101.8936219  55.5071658  40.4512886 102.9282255  54.6068795
  39.9622065 101.6382748  52.3058954  40.4909832 101.1275202  51.6929116
  40.2250285 101.3225278  53.1704487  38.7160299  93.4174680  67.4281772
  38.0400936  93.3168810  68.0984147  39.5387933  93.2613894  67.8917769
  30.4639158  99.6546617  60.0494287  31.0492595  98.9090305  60.1822192
  30.2663997  99.9650574  60.9330951  33.3177813 102.6897864  55.0656730
  32.6488189 103.1743992  54.5820770  33.1790683 102.9367085  55.9800108
  25.0556813  92.2252217  58.7698731  25.0940912  91.6915808  59.5635849
  24.5497106  91.6987423  58.1509708  37.4583082 104.7241608  61.6639388
  38.0101390 104.8873229  62.4288473  37.7989275 105.3146046  60.9919413
  32.4347575  87.0716758  62.2661273  32.4988902  87.9331589  61.8538671
  32.3714695  86.4590759  61.5333631  31.9099848  89.1439890  65.9134307
  32.5371887  88.7616968  66.5271831  31.0527767  88.9254092  66.2790000
  42.3093956  99.5502865  67.5188043  42.8533860 100.1632824  67.0242997
  41.7280801 100.1082444  68.0355056  28.6865390  90.9516319  51.8452662
  28.9818832  90.0426998  51.7919716  27.7853426  90.9304059  51.5233664
  40.5951469 102.6723583  58.6503070  40.4702609 101.8713323  58.1414016
  41.2530560 103.1669777  58.1617040  32.2159637  89.0272316  57.8280211
  31.4946223  89.6408284  57.6887684  33.0052893  89.5630081  57.7496856
  42.6586378 100.4732604  60.2782620  41.7116713 100.3537955  60.2060947
  43.0069151  99.5855102  60.3608882  35.0185951  86.3626742  64.1020862
  35.5420353  86.6089039  64.8647172  34.7998284  87.1946777  63.6824000
  30.4153232  88.6330417  51.9691987  30.0865938  87.7527796  51.7867093
  30.7692603  88.5778086  52.8568376  39.6632811 100.2685320  56.4786973
  39.5157773  99.3402027  56.6594543  40.4886304 100.2905410  55.9944048
  33.5295055  88.9203387  52.3367465  33.8691128  89.4489308  51.6146073
  33.9767176  89.2583793  53.1126031  43.2666933 101.0913878  57.5651845
  44.1913480 100.8856740  57.4276297  43.0982236 100.8430280  58.4741187
  36.2238496  87.3040438  61.7870533  35.8835316  86.5048251  62.1891213
  35.5177502  87.6042148  61.2147366  36.8754968  84.3889750  60.2397856
  37.6981037  83.9150228  60.1176746  37.1193031  85.1680234  60.7396542
  35.5163202  87.4178008  50.5360758  36.2371565  87.7959261  50.0324474
  34.8928506  88.1366885  50.6395736  39.6594325  88.1223157  51.4719090
  39.8757940  89.0047795  51.1707918  39.1788392  87.7309371  50.7424732
  34.3993547  91.0808871  58.0489834  34.2538127  91.3949174  58.9414116
  33.9218750  91.6993771  57.4960733  36.2589929  88.0711419  58.0970724
  36.2451498  87.1752512  57.7603022  36.9762358  88.0782082  58.7309010
  38.1116060  88.5048759  60.1423851  37.8533838  89.4265829  60.1408182
  37.5801101  88.1079193  60.8324316  43.0562249 101.6099546  52.9213937
  43.2299126 101.0445968  52.1687789  43.5491140 102.4100441  52.7393427
  28.8739209  93.6214215  60.9877496  28.3292677  94.3974023  61.1197770
  29.7518559  93.9685019  60.8296617  35.6626825  86.9525799  53.3658294
  35.7842737  86.0242445  53.5649182  35.3728868  86.9664485  52.4536610
  38.5318016  84.6380709  56.5025014  38.5539713  84.7020042  55.5476994
  38.9486075  83.7985218  56.6965520  48.9101640  94.3735969  54.5404237
  49.3532786  93.6243294  54.1423360  48.0328150  94.3646105  54.1577969
  44.0437421 100.9266310  50.0210835  44.7388326 101.5473003  50.2398150
  44.3860572 100.0761662  50.2963213  29.6605231  92.7484111  63.8807653
  28.9186967  92.8966747  64.4672283  29.3397975  93.0092377  63.0174402
  45.9428845  98.3766016  51.5498166  46.4680169  98.7153289  50.8247486
  45.8551197  97.4413031  51.3661301  37.6048893 102.2900090  63.6788043
  37.9136020 102.0449236  64.5510742  38.4024375 102.4946728  63.1906913
  37.6269505 104.4437999  55.9093419  37.1874496 103.9514378  56.6026276
  38.3777622 103.9010967  55.6685494  30.1061844 100.6349540  55.9118047
  30.9319864 100.3353312  55.5316691  29.7555896  99.8657162  56.3607836
  35.0743377  99.9876008  57.9815721  34.4523387  99.3246713  57.6817949
  35.7448244 100.0137140  57.2989369  28.3070449  98.5535866  56.8706981
  27.4702358  98.1258041  56.6890982  28.2794095  98.7468310  57.8077772
  35.1467905  88.4657796  67.5748227  35.1956060  89.3419919  67.1925996
  35.6890419  87.9235189  67.0019870  45.6322751  99.0098920  66.8549364
  44.8418294  98.9923058  66.3153863  45.3956105  99.5487213  67.6098400
  45.7520626  95.8591386  64.1682092  45.8018631  95.6941393  65.1097615
  45.6434549  94.9918645  63.7779973  34.6356884  98.5379932  51.4574181
  34.7845005  99.2215396  50.8040854  35.4423328  98.5185022  51.9723637
  43.0424388  91.8422314  65.4841399  43.9434251  91.7028779  65.1925397
  43.1172363  92.0076769  66.4239577  37.3767193  89.2189169  64.3294585
  36.5070503  89.5122735  64.0577174  37.6126674  89.8029614  65.0501849
  47.2538823  98.2788327  64.4124114  46.9623631  98.6418308  65.2487575
  46.6410954  97.5655336  64.2337446  32.3909517  94.5645109  52.4635250
  32.1455559  93.6607439  52.6615460  32.5605432  94.5662260  51.5214728
  40.0806227  85.4368786  61.8460006  40.5988171  86.1729813  61.5206494
  39.7261360  85.7432779  62.6806765  31.6605165  90.2973467  49.9621412
  30.9674410  90.3717822  49.3061448  31.4156917  89.5333810  50.4842929
  40.3318821  81.8569068  57.3660902  40.6120575  81.1892257  57.9921329
  41.1169428  82.0498164  56.8535566  38.1352290 101.0328062  48.9285929
  37.5626257 101.6518249  48.4756401  38.7085084 101.5827424  49.4625851
  42.2242059  87.3642285  61.2991878  41.6291991  87.6447298  60.6038367
  41.9391756  87.8536186  62.0708620  41.3549550 101.3165212  50.0594511
  42.2880223 101.2510774  50.2627387  41.2672763 102.1521479  49.6009044
  43.9837566 100.6331082  47.0198459  43.9051198 100.2990946  47.9134216
  44.8047233 101.1252850  47.0189931  38.5199088  92.3688875  46.2701981
  39.4658193  92.2395083  46.3390399  38.1413333  91.6303537  46.7471409
  44.4920973  84.0344881  56.2328873  44.2945794  83.7259969  57.1172205
  45.1020679  84.7606520  56.3626803  38.4037781  96.4206621  67.7302638
  39.3240790  96.5985220  67.9242685  38.3687364  95.4762666  67.5782337
  36.7042006  90.2938851  46.2056866  35.7973461  89.9971964  46.2819580
  36.9817987  89.9968669  45.3391153  27.6219946  91.6145215  56.6555913
  27.3022730  90.7610523  56.3630287  27.0753374  91.8293793  57.4113880
  31.3999853  94.3307656  60.3725419  31.6185863  95.2624763  60.3913453
  31.8125627  93.9715630  61.1580223  38.3204071  84.8375741  52.3601108
  37.5104800  84.4922826  52.7356354  39.0088488  84.5283285  52.9488719
  40.2494620  83.9153788  53.9825404  40.8025658  84.3349241  54.6415427
  40.4864706  82.9889536  54.0248360  36.2727719  89.9040861  69.7628168
  36.1724446  90.8535218  69.6940259  36.0549261  89.5759100  68.8904238
  35.4740790  87.1525786  46.3468846  36.3359954  87.4780685  46.6064663
  35.6591134  86.3657282  45.8341911  27.4908206  95.2348126  58.6249034
  26.7971677  94.8202079  58.1118989  28.2381197  95.2768663  58.0282453
  43.6273427  86.0254313  53.4904069  43.0472096  86.6839117  53.1082121
  43.3609359  85.2031657  53.0791486  42.0776993  85.4259371  55.6925389
  42.5776771  85.5375905  54.8839708  42.7212601  85.1220423  56.3326197
  36.1358989  93.3338000  68.5793230  35.6526071  94.1338360  68.7857119
  36.2219928  93.3445945  67.6260674  29.4044948  95.1666380  56.5015049
  29.3815637  95.2654067  55.5496932  29.7145585  96.0131531  56.8232215
  32.0632326  97.2242535  60.6161664  33.0175580  97.1926477  60.5491595
  31.8644850  96.7633159  61.4311890  32.6531708  95.7943651  63.1832461
  33.4724597  96.2887730  63.2067299  32.9268516  94.8775619  63.1550029
  42.4098305  88.1854403  52.5460417  41.5224160  88.4704054  52.3280612
  42.8252294  88.0248167  51.6987694  30.4182555 102.7662154  57.6331862
  30.2837023 102.0062555  57.0669860  30.0014617 103.4903054  57.1660650
  41.5541518  97.9499078  46.6408437  42.2577368  98.1549080  47.2566092
  40.8304167  98.5175840  46.9057520  42.3839328  93.7008939  52.7610707
  42.3274530  94.1577491  51.9218339  42.9367671  92.9399624  52.5833550
  33.5751681 103.6631471  57.8450304  33.4584065 104.6076904  57.7428994
  32.7544127 103.3605033  58.2336103  43.4628216  98.3881607  48.6906897
  44.2973819  97.9562806  48.5084372  43.3012558  98.2163621  49.6183791
  43.1174108  94.8913720  50.0563236  43.0622912  94.7257992  49.1151680
  42.4920163  95.5989753  50.2125426  27.9066623  90.1281785  63.8824658
  28.5525486  89.6180739  64.3711884  27.6983774  90.8650466  64.4568084
  40.4320015  97.1962632  69.3816799  41.3011175  97.3703285  69.0203434
  39.9526766  98.0157049  69.2592528  36.4270233  84.3921829  49.6348555
  36.4148903  85.3363669  49.7916825  37.3193655  84.2091975  49.3408016
  34.6006195 104.3159733  61.0606233  35.5033442 104.3483344  61.3772728
  34.3743565 103.3860184  61.0752568  36.3559797 103.0690720  57.7216311
  35.4055428 103.0692581  57.6080684  36.6592283 102.3223454  57.2052346
  40.2422353  80.9864606  53.8894491  39.4754748  80.4323093  54.0351174
  40.6533058  81.0586475  54.7508643  32.2464114  87.2749402  67.9799673
  33.1095575  86.9186207  68.1902997  31.6729524  86.9363297  68.6675077
  52.0912491 108.9051258  58.7862074  52.7290901 108.7858006  58.0825414
  51.9733334 109.8532102  58.8450026  48.9002197 108.8578686  58.7223598
  48.5620708 108.7419751  57.8344133  49.7691965 108.4569851  58.7024605
  44.7589013 110.7114163  54.7120489  44.1953878 110.6204100  53.9436777
  44.6441408 109.8914067  55.1922982  42.3053445 112.2065354  57.5504710
  43.0974736 111.8656179  57.1351009  42.5450095 112.3160329  58.4706863
  50.3388571 114.3785130  50.0234954  49.6876551 114.9639211  49.6368968
  51.1332934 114.9091325  50.0829992  44.2644198 111.4674268  50.4222089
  45.0375074 110.9203255  50.2834964  44.6169597 112.3318517  50.6336550
  46.1029241 112.7950650  63.6288988  45.8119107 113.6996281  63.5135654
  46.7386225 112.8367177  64.3433057  47.0285448 110.1727498  60.2190348
  47.6249020 109.9483521  59.5047310  47.0860419 109.4312244  60.8215795
  46.6010476 107.6266934  48.0540538  46.8535997 107.1048455  47.2924001
  45.6635035 107.4633079  48.1567222  51.6453759 106.6302712  55.8615282
  52.4316848 106.2122135  55.5105699  51.9092463 107.5348804  56.0296930
  51.8163836 112.0675562  50.5603939  51.1809669 112.1410189  51.2724843
  51.4861243 112.6569161  49.8823018  46.3206765 109.5295040  50.2564913
  46.2043023 108.8539943  50.9245998  46.4309025 109.0427414  49.4397066
  48.6638306 108.9905187  53.9611603  48.2996513 108.4635808  54.6724524
  49.5205422 108.6003656  53.7878088  48.3043793 104.0195086  48.9572951
  48.4718195 104.8875323  49.3243422  48.1140962 104.1822368  48.0334240
  51.0619126 112.4812065  60.6238782  50.7619849 113.3837104  60.5154589
  50.7170186 112.2144249  61.4759934  44.5131608 108.9325862  56.6575486
  43.5882104 108.8002076  56.8653178  44.7616021 109.7120081  57.1545428
  48.2833014 106.4752744  49.9419618  48.1632639 106.9209795  50.7805098
  47.5885602 106.8238062  49.3833156  41.8740419 108.5759136  57.4919275
  42.0032800 108.8293615  58.4058687  41.1937870 109.1686844  57.1723930
  46.0439906 119.2456386  53.5909749  45.9663936 120.1964211  53.6698230
  45.4401550 118.9002258  54.2484676  53.9818080 106.9474217  50.7699952
  54.8935936 107.1801604  50.5947650  53.4727727 107.5311261  50.2075031
  46.7903508 109.2269704  65.8089083  47.5318192 109.7654748  65.5323907
  46.0840493 109.8535993  65.9660635  52.2658848 111.3698845  64.4061245
  52.6742204 110.9281255  63.6615877  51.5436109 110.7951472  64.6595438
  52.5887662 111.9300036  58.1613534  51.9596525 112.0945750  57.4589601
  52.2013324 112.3441645  58.9324498  56.4676894 112.8654473  55.5157897
  55.7827932 113.2453375  54.9654931  56.5520743 113.4749800  56.2489845
  53.7227826 110.5114432  62.1153241  53.9344721 111.1546192  61.4387622
  53.6757574 109.6776749  61.6475171  48.1415624 111.6674444  55.4263619
  48.6053970 111.9462147  54.6368241  47.8772422 110.7657888  55.2436709
  45.0339705 111.2145925  58.3643382  45.6041062 111.6433194  57.7260866
  45.6247817 110.9328510  59.0627568  47.0784510 107.7897596  52.2353184
  47.7808554 108.2418640  52.7027110  46.7465139 107.1481415  52.8633077
  45.5264872 106.3809353  66.6104393  44.8963532 107.0625634  66.8439790
  45.4200960 106.2692434  65.6657531  40.8209844 106.0481149  57.5370317
  40.0308898 106.3038677  57.0610428  41.3121092 106.8629487  57.6422358
  54.8373654 113.3886388  60.2875598  55.6591097 112.9866575  60.0058280
  54.8336057 113.2854622  61.2391714  42.7724590 106.4125728  54.4953794
  41.9755753 106.5244422  55.0137290  42.5450182 106.7512380  53.6294685
  48.6030257 112.9370431  62.4436309  48.6674690 113.3990838  63.2794481
  47.8941181 112.3067796  62.5718619  39.1047547 106.3011639  59.9685308
  39.3555586 107.1858649  60.2342884  39.6407096 106.1216241  59.1960400
  62.9279647 109.7325136  56.6360570  62.1743355 109.1632534  56.4804574
  63.0627188 109.6987801  57.5831204  48.3178275 114.6038539  52.3115289
  48.1823950 115.4490074  52.7400137  48.8588087 114.8057816  51.5481223
  44.8045614 100.6830119  68.9729644  44.4112560 100.1296317  69.6477288
  45.6211755 100.9940697  69.3636162  41.7707672 112.1213977  52.8843214
  42.2832193 112.9157227  53.0348779  42.4230385 111.4240267  52.8176816
  43.5802557 115.2379733  54.9665967  43.7569185 116.1597698  54.7786951
  44.3759390 114.9238152  55.3960347  47.7213575 102.0987998  66.5649901
  48.4623289 102.6995151  66.4854363  47.9531498 101.3565635  66.0067943
  42.8654913 107.2844365  64.8428130  42.7508429 106.3829622  65.1435229
  42.0099431 107.5308062  64.4912947  49.9446751 115.2262105  66.4415631
  49.5010605 114.4398484  66.1236536  50.6063965 115.4141256  65.7759522
  44.7033872 116.7557907  60.9676310  45.2541298 116.6274970  60.1953304
  43.8645348 117.0552796  60.6171202  52.0427989 115.5064905  64.4697032
  52.0246465 116.3273786  63.9777302  52.9647909 115.3818980  64.6947174
  48.5001043 113.0209035  65.3120541  49.0329380 112.2597323  65.0819849
  47.9715125 112.7282686  66.0544695  39.7356589 110.4502631  53.6602785
  40.5731811 110.8599639  53.4436492  39.9134857 109.5102073  53.6302978
  51.6321021 108.1177712  49.3486618  51.1167645 108.8882316  49.5875005
  51.3598330 107.4442848  49.9719679  49.2168132 102.9627412  54.4071856
  48.3609729 102.5734263  54.2277495  49.6295084 103.0419373  53.5471641
  50.7467279 100.4973756  58.8063416  50.2432074 100.4603891  57.9931221
  51.0397886 101.4066498  58.8660072  46.9910165 100.5812485  57.8129597
  47.8563161 100.3855294  57.4535487  47.0587674 100.3522837  58.7398954
  56.6055295 110.8710066  51.2839791  55.8284738 110.5321226  50.8394953
  57.2846776 110.8762689  50.6094756  51.4207324 105.9904804  51.1746399
  51.1157460 106.3050953  52.0256542  52.3737766 106.0686224  51.2173732
  49.8653756 112.1495027  52.8239353  49.3375118 111.4147787  52.5112590
  49.3641259 112.9269703  52.5779321  54.8446602 110.3444048  57.9406399
  54.1870277 111.0343309  58.0286528  55.6487001 110.7340479  58.2840385
  44.5972484 102.8114693  55.1845964  45.1716236 102.5889875  54.4519157
  45.1843466 102.8803388  55.9374566  53.6552061 108.6988420  55.9910341
  54.1683943 109.3318412  56.4932051  54.3053285 108.0989616  55.6253701
  44.9242071 104.8419154  49.2041850  44.0879383 105.1793841  49.5251124
  44.7846841 104.7068134  48.2668986  46.8995151  99.6855942  53.9121034
  46.2459564  99.3704959  53.2877648  46.8575626  99.0631683  54.6380857
  48.0106356 109.9675237  45.8274326  47.1033418 109.7364491  46.0265475
  48.5077388 109.1712857  46.0148307  50.9174435 118.6772745  48.7471012
  50.2436134 118.9804441  49.3555970  51.3040257 119.4801825  48.3976469
  50.9167940 107.5729291  53.3671362  51.6639759 108.0850689  53.0578484
  51.1859529 107.2513344  54.2275755  49.1894590 110.0687832  50.3498316
  48.2805809 109.7846865  50.4470786  49.2189674 110.4886911  49.4901623
  54.4213857 113.6794422  54.1189483  53.9676184 112.8385332  54.1754674
  53.7907824 114.3155820  54.4564264  53.3646777 104.6086408  55.3490151
  52.6269534 104.0963794  55.6800393  53.6173550 104.1686789  54.5373428
  52.8646796 115.5170918  55.0539302  53.1569771 116.0775975  54.3351667
  53.3745417 115.8099479  55.8092461  39.7582760 107.7893346  54.3313518
  39.5607160 107.1962707  53.6064585  39.2029424 107.4845557  55.0489457
  47.7379484 107.6816453  56.4508111  47.7928094 106.7290289  56.3750588
  46.9270686 107.8375892  56.9349410  48.8870678 111.6096576  47.6886394
  48.4490107 110.8932435  47.2292032  49.6281118 111.8372691  47.1271486
  45.6771844 106.2993513  54.2098490  44.8639709 106.5987683  54.6163682
  46.1730838 105.9049201  54.9272972  47.8280422 116.2951269  56.1432755
  47.7856600 116.5212116  55.2141287  48.7443120 116.0614644  56.2918556
  57.0043792 109.8853773  53.7462713  56.8661691 110.0755369  52.8183902
  56.6480011 110.6473156  54.2030764  45.1685918 103.8711868  59.8259725
  45.8085298 103.7300627  59.1282688  44.3363449 103.5846381  59.4498327
  57.0313172 111.9530300  58.7573985  57.4649679 111.8605589  59.6057039
  57.7444753 111.9287800  58.1194001  45.9446222 113.1714298  55.9394717
  46.7386821 112.6764619  55.7377292  45.2337915 112.6432162  55.5762423
  50.7641067 115.5532394  60.2907085  50.8178089 116.1223330  61.0584801
  49.8955848 115.7234279  59.9261122  42.2528986 107.3157380  52.0154470
  41.3226574 107.2541836  52.2324432  42.3486458 106.7933333  51.2191111
  42.1714535 103.8412193  54.6032712  42.4321352 104.7557526  54.4941872
  42.9931707 103.3736636  54.7529325  43.6439460 105.2549950  61.7731536
  44.3162514 105.0467312  61.1244185  42.8169247 105.0572036  61.3336769
  57.8928722 111.9954001  61.2906870  58.0864612 112.8999811  61.5366145
  57.7929340 111.5361420  62.1245455  52.9543830 112.1460743  66.8647751
  52.8029337 111.9171295  65.9477834  52.9448510 113.1031345  66.8779096
  48.5217498 113.7443320  59.6192555  48.3828584 113.3762105  60.4918493
  47.7332095 114.2590960  59.4476512  49.1165650 118.8452417  50.9618091
  49.2917406 118.3740460  51.7763714  48.4298438 119.4718183  51.1899352
  50.0722714 113.1224923  57.0081392  49.7372546 113.0825693  57.9039042
  49.5726659 112.4569639  56.5351803  44.0466957 108.5292553  62.5333974
  43.9086755 107.7972792  63.1345513  44.9571881 108.4401453  62.2518161
  53.0081905 110.4680958  47.2818452  52.3911076 109.7427786  47.1851505
  52.5398394 111.2290318  46.9385526  46.6749258 108.2412513  62.0217653
  47.3848877 107.6005705  61.9804272  46.6318566 108.4925407  62.9443834
  54.6636037 115.1779866  64.9424232  54.6048583 114.4939086  64.2754815
  55.0655555 115.9198856  64.4904858  45.3878192 105.2277730  63.8413293
  44.8515549 104.7768469  64.4934889  44.7994901 105.3623639  63.0983757
  43.6826736 121.9941780  57.7357951  43.9223334 122.6260304  58.4136970
  42.8395932 121.6429820  58.0223311  44.7980451 104.6866382  46.4039756
  43.9209917 104.5655183  46.0402003  45.2738204 103.8952460  46.1518645
  54.6653444 113.1419450  63.1738212  53.7780223 112.8045372  63.2964611
  55.2351995 112.4102481  63.4106977  36.3182591 109.4743542  56.4981263
  37.0053631 109.1605272  55.9102279  36.1630720 110.3784906  56.2248515
  41.1217313 104.3633738  60.9266287  41.0375502 103.7559408  60.1916697
  40.3000020 104.8542756  60.9275783  48.1954598 117.8020902  60.1399455
  48.1224769 118.6075874  60.6518760  47.7531991 118.0012868  59.3147477
  47.9844377 117.0392672  53.6502277  47.2011899 117.5814352  53.7440501
  48.6837122 117.5566652  54.0496518  51.2941027 102.8487302  56.2936482
  51.7909727 102.0957264  55.9737552  50.5228009 102.8851618  55.7279692
  59.1470785 108.5527667  57.9354774  59.1360661 109.4352383  57.5648707
  58.2788164 108.1999218  57.7409311  50.6553281 117.7007736  62.2957614
  51.3681253 118.3355201  62.2233515  50.1643310 117.7971602  61.4797616
  52.3770808 111.6058989  53.8674906  51.4427087 111.7260451  53.6979610
  52.5547476 110.7031456  53.6034915  47.8775996 104.9904685  56.0208167
  47.5073784 104.4375725  56.7089072  48.3735088 104.3862818  55.4683167
  55.7643359 107.4476308  54.4024940  56.2303811 108.2804300  54.3285242
  56.2150860 106.9821290  55.1070198  45.7065195 115.4502180  63.1163185
  46.4074654 116.0838663  63.2692579  45.2360310 115.7916911  62.3558824
  53.8319590 113.7920129  51.4011092  54.1079434 113.6776724  52.3104966
  52.9624089 113.3937614  51.3623265  50.4673654 118.0406480  55.0443905
  50.6496049 117.2228136  55.5071658  51.2906640 118.2574173  54.6068795
  50.8015820 116.9674665  52.3058954  51.3303586 116.4567120  51.6929116
  51.0644039 116.6517196  53.1704487  41.3032913 114.9838535  60.0494287
  41.8886349 114.2382223  60.1822192  41.1057751 115.2942491  60.9330951
  44.1571568 118.0189782  55.0656730  43.4881943 118.5035910  54.5820770
  44.0184438 118.2659003  55.9800108  35.8950567 107.5544135  58.7698731
  35.9334667 107.0207726  59.5635849  35.3890860 107.0279340  58.1509708
  48.2976836 120.0533526  61.6639388  48.8495144 120.2165147  62.4288473
  48.6383030 120.6437963  60.9919413  43.2741330 102.4008675  62.2661273
  43.3382656 103.2623506  61.8538671  43.2108450 101.7882677  61.5333631
  42.7493602 104.4731808  65.9134307  43.3765641 104.0908885  66.5271831
  41.8921521 104.2546010  66.2790000  53.1487711 114.8794783  67.5188043
  53.6927615 115.4924741  67.0242997  52.5674556 115.4374362  68.0355056
  39.5259145 106.2808237  51.8452662  39.8212586 105.3718915  51.7919716
  38.6247181 106.2595976  51.5233664  51.4345224 118.0015501  58.6503070
  51.3096363 117.2005241  58.1414016  52.0924315 118.4961694  58.1617040
  43.0553392 104.3564234  57.8280211  42.3339978 104.9700201  57.6887684
  43.8446648 104.8921998  57.7496856  53.4980132 115.8024521  60.2782620
  52.5510468 115.6829872  60.2060947  53.8462905 114.9147019  60.3608882
  45.8579705 101.6918660  64.1020862  46.3814107 101.9380957  64.8647172
  45.6392039 102.5238695  63.6824000  41.2546987 103.9622335  51.9691987
  40.9259693 103.0819714  51.7867093  41.6086357 103.9070003  52.8568376
  50.5026565 115.5977237  56.4786973  50.3551528 114.6693945  56.6594543
  51.3280059 115.6197328  55.9944048  44.3688810 104.2495305  52.3367465
  44.7084882 104.7781226  51.6146073  44.8160930 104.5875711  53.1126031
  54.1060687 116.4205796  57.5651845  55.0307235 116.2148657  57.4276297
  53.9375991 116.1722197  58.4741187  47.7148722  99.7181668  60.2397856
  48.5374792  99.2442146  60.1176746  47.9586786 100.4972151  60.7396542
  46.3556957 102.7469926  50.5360758  47.0765319 103.1251179  50.0324474
  45.7322261 103.4658803  50.6395736  50.4988080 103.4515075  51.4719090
  50.7151694 104.3339713  51.1707918  50.0182147 103.0601288  50.7424732
  45.2387301 106.4100788  58.0489834  45.0931882 106.7241091  58.9414116
  44.7612505 107.0285689  57.4960733  47.0983684 103.4003336  58.0970724
  47.0845253 102.5044430  57.7603022  47.8156112 103.4074000  58.7309010
  53.8956003 116.9391464  52.9213937  54.0692881 116.3737886  52.1687789
  54.3884895 117.7392358  52.7393427  39.7132963 108.9506133  60.9877496
  39.1686431 109.7265941  61.1197770  40.5912313 109.2976937  60.8296617
  46.5020580 102.2817717  53.3658294  46.6236491 101.3534363  53.5649182
  46.2122622 102.2956403  52.4536610  49.3711770  99.9672627  56.5025014
  49.3933467 100.0311960  55.5476994  49.7879829  99.1277136  56.6965520
  59.7495395 109.7027887  54.5404237  60.1926541 108.9535212  54.1423360
  58.8721905 109.6938023  54.1577969  54.8831176 116.2558228  50.0210835
  55.5782081 116.8764921  50.2398150  55.2254326 115.4053579  50.2963213
  40.4998985 108.0776029  63.8807653  39.7580721 108.2258664  64.4672283
  40.1791729 108.3384295  63.0174402  56.7822599 113.7057934  51.5498166
  57.3073923 114.0445206  50.8247486  56.6944952 112.7704949  51.3661301
  48.4442648 117.6192007  63.6788043  48.7529774 117.3741154  64.5510742
  49.2418130 117.8238646  63.1906913  48.4663260 119.7729917  55.9093419
  48.0268250 119.2806296  56.6026276  49.2171377 119.2302884  55.6685494
  40.9455599 115.9641458  55.9118047  41.7713619 115.6645230  55.5316691
  40.5949651 115.1949080  56.3607836  45.9137132 115.3167926  57.9815721
  45.2917141 114.6538631  57.6817949  46.5841999 115.3429058  57.2989369
  39.1464204 113.8827784  56.8706981  38.3096112 113.4549958  56.6890982
  39.1187849 114.0760227  57.8077772  45.9861659 103.7949714  67.5748227
  46.0349815 104.6711837  67.1925996  46.5284174 103.2527107  67.0019870
  56.4716505 114.3390837  66.8549364  55.6812049 114.3214976  66.3153863
  56.2349860 114.8779131  67.6098400  45.4750639 113.8671849  51.4574181
  45.6238759 114.5507314  50.8040854  46.2817082 113.8476939  51.9723637
  58.0932577 113.6080245  64.4124114  57.8017385 113.9710226  65.2487575
  57.4804708 112.8947253  64.2337446  59.2928259 111.1733125  56.9326684
  60.1275151 111.6122929  57.0964245  59.4287388 110.6971778  56.1134930
  43.2303272 109.8937027  52.4635250  42.9849314 108.9899357  52.6615460
  43.3999186 109.8954177  51.5214728  42.4998919 105.6265384  49.9621412
  41.8068164 105.7009739  49.3061448  42.2550671 104.8625728  50.4842929
  48.9746044 116.3619980  48.9285929  48.4020011 116.9810167  48.4756401
  49.5478838 116.9119341  49.4625851  52.1943304 116.6457130  50.0594511
  53.1273977 116.5802692  50.2627387  52.1066517 117.4813397  49.6009044
  54.8231321 115.9623000  47.0198459  54.7444952 115.6282864  47.9134216
  55.6440988 116.4544768  47.0189931  49.3592843 107.6980792  46.2701981
  50.3051948 107.5687001  46.3390399  48.9807088 106.9595454  46.7471409
  55.3314727  99.3636798  56.2328873  55.1339549  99.0551887  57.1172205
  55.9414433 100.0898437  56.3626803  49.2431535 111.7498539  67.7302638
  50.1634545 111.9277138  67.9242685  49.2081118 110.8054584  67.5782337
  47.5435760 105.6230769  46.2056866  46.6367215 105.3263882  46.2819580
  47.8211741 105.3260587  45.3391153  38.4613700 106.9437132  56.6555913
  38.1416485 106.0902440  56.3630287  37.9147129 107.1585710  57.4113880
  42.2393608 109.6599573  60.3725419  42.4579618 110.5916681  60.3913453
  42.6519382 109.3007548  61.1580223  49.1597826 100.1667659  52.3601108
  48.3498554  99.8214744  52.7356354  49.8482243  99.8575202  52.9488719
  51.0888374  99.2445705  53.9825404  51.6419413  99.6641159  54.6415427
  51.3258460  98.3181453  54.0248360  47.1121473 105.2332779  69.7628168
  47.0118200 106.1827136  69.6940259  46.8943015 104.9051018  68.8904238
  46.3134545 102.4817704  46.3468846  47.1753709 102.8072602  46.6064663
  46.4984889 101.6949200  45.8341911  38.3301960 110.5640044  58.6249034
  37.6365432 110.1493997  58.1118989  39.0774951 110.6060580  58.0282453
  54.4667181 101.3546231  53.4904069  53.8865850 102.0131035  53.1082121
  54.2003114 100.5323575  53.0791486  52.9170748 100.7551288  55.6925389
  53.4170526 100.8667823  54.8839708  53.5606355 100.4512341  56.3326197
  46.9752743 108.6629918  68.5793230  46.4919825 109.4630278  68.7857119
  47.0613682 108.6737863  67.6260674  40.2438703 110.4958298  56.5015049
  40.2209391 110.5945985  55.5496932  40.5539339 111.3423448  56.8232215
  42.9026081 112.5534453  60.6161664  43.8569334 112.5218395  60.5491595
  42.7038604 112.0925076  61.4311890  43.4925463 111.1235569  63.1832461
  44.3118352 111.6179647  63.2067299  43.7662271 110.2067537  63.1550029
  53.2492059 103.5146321  52.5460417  52.3617914 103.7995972  52.3280612
  53.6646048 103.3540084  51.6987694  56.6006595 103.5392842  56.2614756
  57.3766985 104.0289294  56.5339373  55.8754729 103.9650896  56.7186626
  59.0379154 104.2520461  57.3188697  59.6323645 104.0116197  56.6082005
  59.1105738 103.5327592  57.9462233  41.2576310 118.0954072  57.6331862
  41.1230778 117.3354473  57.0669860  40.8408372 118.8194972  57.1660650
  52.3935273 113.2790996  46.6408437  53.0971123 113.4840998  47.2566092
  51.6697921 113.8467757  46.9057520  53.2233083 109.0300857  52.7610707
  53.1668284 109.4869408  51.9218339  53.7761425 108.2691541  52.5833550
  57.0337889 104.8190589  53.5860827  56.7774823 104.4187224  54.4169034
  56.4090757 105.5334383  53.4610966  61.3450227 107.5586662  56.0932118
  60.7849785 107.6279851  56.8663680  60.7393730 107.3827647  55.3731614
  44.4145435 118.9923389  57.8450304  44.2977820 119.9368822  57.7428994
  43.5937882 118.6896951  58.2336103  54.3021970 113.7173525  48.6906897
  55.1367574 113.2854723  48.5084372  54.1406313 113.5455538  49.6183791
  53.9567862 110.2205638  50.0563236  53.9016666 110.0549910  49.1151680
  53.3313917 110.9281671  50.2125426  38.7460377 105.4573702  63.8824658
  39.3919241 104.9472656  64.3711884  38.5377528 106.1942384  64.4568084
  51.2713769 112.5254550  69.3816799  52.1404929 112.6995202  69.0203434
  50.7920521 113.3448967  69.2592528  47.2663988  99.7213747  49.6348555
  47.2542657 100.6655587  49.7916825  48.1587410  99.5383892  49.3408016
  45.4399950 119.6451651  61.0606233  46.3427196 119.6775261  61.3772728
  45.2137320 118.7152102  61.0752568  47.1953552 118.3982637  57.7216311
  46.2449183 118.3984499  57.6080684  47.4986038 117.6515372  57.2052346
  51.0816107  96.3156524  53.8894491  50.3148503  95.7615010  54.0351174
  51.4926812  96.3878392  54.7508643  43.0857868 102.6041320  67.9799673
  43.9489330 102.2478124  68.1902997  42.5123279 102.2655214  68.6675077
  62.9306245 124.2343176  58.7862074  63.5684655 124.1149923  58.0825414
  62.8127088 125.1824020  58.8450026  59.7395951 124.1870604  58.7223598
  59.4014463 124.0711669  57.8344133  60.6085720 123.7861769  58.7024605
  55.5982767 126.0406080  54.7120489  55.0347632 125.9496017  53.9436777
  55.4835162 125.2205985  55.1922982  60.2215734 125.3405456  64.6809804
  60.2104375 124.9458254  63.8090308  60.3836374 124.6071528  65.2743575
  53.1447199 127.5357272  57.5504710  53.9368491 127.1948097  57.1351009
  53.3843849 127.6452247  58.4706863  61.1782326 129.7077048  50.0234954
  60.5270306 130.2931129  49.6368968  61.9726689 130.2383243  50.0829992
  55.1037953 126.7966185  50.4222089  55.8768829 126.2495172  50.2834964
  55.4563352 127.6610435  50.6336550  56.9422996 128.1242568  63.6288988
  56.6512862 129.0288198  63.5135654  57.5779980 128.1659095  64.3433057
  57.8679202 125.5019416  60.2190348  58.4642775 125.2775438  59.5047310
  57.9254174 124.7604162  60.8215795  57.4404231 122.9558851  48.0540538
  57.6929751 122.4340373  47.2924001  56.5028790 122.7924997  48.1567222
  62.4847514 121.9594630  55.8615282  63.2710603 121.5414053  55.5105699
  62.7486218 122.8640722  56.0296930  62.6557591 127.3967480  50.5603939
  62.0203424 127.4702107  51.2724843  62.3254997 127.9861079  49.8823018
  67.8855941 121.8969863  56.7648260  68.6181113 121.3269080  56.9986090
  67.1295296 121.5091463  57.2054766  57.1600520 124.8586957  50.2564913
  57.0436778 124.1831861  50.9245998  57.2702779 124.3719331  49.4397066
  59.5032060 124.3197104  53.9611603  59.1390268 123.7927725  54.6724524
  60.3599176 123.9295573  53.7878088  65.4081361 115.6091437  61.2242869
  65.0764686 116.4786848  61.0004084  64.8126974 115.2927721  61.9036899
  59.1437547 119.3487004  48.9572951  59.3111950 120.2167241  49.3243422
  58.9534717 119.5114286  48.0334240  61.9012881 127.8103983  60.6238782
  61.6013604 128.7129022  60.5154589  61.5563940 127.5436166  61.4759934
  55.3525362 124.2617780  56.6575486  54.4275859 124.1293994  56.8653178
  55.6009775 125.0411999  57.1545428  65.3010024 120.3286523  58.3036219
  64.3926902 120.2601932  58.0094980  65.2497620 120.8058468  59.1318044
  59.1226768 121.8044662  49.9419618  59.0026394 122.2501712  50.7805098
  58.4279357 122.1529979  49.3833156  52.7134173 123.9051053  57.4919275
  52.8426554 124.1585532  58.4058687  52.0331624 124.4978761  57.1723930
  56.8833660 134.5748303  53.5909749  56.8057690 135.5256128  53.6698230
  56.2795304 134.2294176  54.2484676  59.3750890 121.7476169  66.2471116
  58.5984224 122.3070089  66.2373981  60.0141453 122.2332952  66.7685986
  67.1671671 118.5302962  60.0814093  66.5246051 118.8235495  59.4353887
  66.6626599 118.4155882  60.8867289  64.8211834 122.2766135  50.7699952
  65.7329691 122.5093522  50.5947650  64.3121482 122.8603179  50.2075031
  57.6297262 124.5561622  65.8089083  58.3711947 125.0946666  65.5323907
  56.9234248 125.1827911  65.9660635  63.1052602 126.6990763  64.4061245
  63.5135958 126.2573173  63.6615877  62.3829864 126.1243390  64.6595438
  59.4583672 121.6363369  61.7794802  60.3044867 122.0602783  61.9229451
  59.3982310 120.9796994  62.4733365  63.4281417 127.2591953  58.1613534
  62.7990279 127.4237667  57.4589601  63.0407079 127.6733563  58.9324498
  67.3070649 128.1946391  55.5157897  66.6221687 128.5745292  54.9654931
  67.3914498 128.8041718  56.2489845  62.6083118 119.2967738  63.4375975
  62.3644049 120.0509798  62.9010251  62.8843048 119.6753085  64.2723222
  64.5621580 125.8406350  62.1153241  64.7738476 126.4838110  61.4387622
  64.5151329 125.0068667  61.6475171  62.1647809 118.4524171  59.0189813
  61.3032288 118.7505424  59.3106551  62.1910244 118.6694570  58.0870846
  58.9809379 126.9966361  55.4263619  59.4447724 127.2754064  54.6368241
  58.7166177 126.0949806  55.2436709  55.8733460 126.5437843  58.3643382
  56.4434817 126.9725111  57.7260866  56.4641572 126.2620428  59.0627568
  57.9178265 123.1189514  52.2353184  58.6202308 123.5710557  52.7027110
  57.5858893 122.4773333  52.8633077  56.3658626 121.7101270  66.6104393
  55.7357287 122.3917551  66.8439790  56.2594714 121.5984352  65.6657531
  51.6603599 121.3773066  57.5370317  50.8702653 121.6330595  57.0610428
  52.1514846 122.1921404  57.6422358  65.6767408 128.7178306  60.2875598
  66.4984852 128.3158493  60.0058280  65.6729811 128.6146540  61.2391714
  53.6118344 121.7417646  54.4953794  52.8149507 121.8536340  55.0137290
  53.3843936 122.0804298  53.6294685  59.4424012 128.2662349  62.4436309
  59.5068444 128.7282756  63.2794481  58.7334936 127.6359714  62.5718619
  49.9441302 121.6303557  59.9685308  50.1949340 122.5150567  60.2342884
  50.4800850 121.4508158  59.1960400  73.7673401 125.0617054  56.6360570
  73.0137110 124.4924452  56.4804574  73.9020942 125.0279719  57.5831204
  59.1572029 129.9330456  52.3115289  59.0217704 130.7781992  52.7400137
  59.6981842 130.1349734  51.5481223  55.6439369 116.0122036  68.9729644
  55.2506315 115.4588235  69.6477288  56.4605509 116.3232615  69.3636162
  52.6101427 127.4505894  52.8843214  53.1225947 128.2449145  53.0348779
  53.2624140 126.7532185  52.8176816  54.4196311 130.5671651  54.9665967
  54.5962940 131.4889615  54.7786951  55.2153145 130.2530070  55.3960347
  58.5607330 117.4279915  66.5649901  59.3017043 118.0287068  66.4854363
  58.7925253 116.6857553  66.0067943  53.7048668 122.6136283  64.8428130
  53.5902183 121.7121540  65.1435229  52.8493186 122.8599979  64.4912947
  60.7840506 130.5554023  66.4415631  60.3404360 129.7690401  66.1236536
  61.4457719 130.7433173  65.7759522  55.5427627 132.0849824  60.9676310
  56.0935052 131.9566888  60.1953304  54.7039103 132.3844713  60.6171202
  62.8821744 130.8356823  64.4697032  62.8640219 131.6565704  63.9777302
  63.8041664 130.7110898  64.6947174  59.3394798 128.3500952  65.3120541
  59.8723135 127.5889240  65.0819849  58.8108879 128.0574604  66.0544695
  62.5064493 113.4561018  60.8414182  62.1628762 114.3462660  60.7653293
  62.8743456 113.2662676  59.9783767  50.5750344 125.7794549  53.6602785
  51.4125566 126.1891557  53.4436492  50.7528611 124.8393991  53.6302978
  62.4714776 123.4469629  49.3486618  61.9561399 124.2174234  49.5875005
  62.1992084 122.7734765  49.9719679  60.0561887 118.2919330  54.4071856
  59.2003483 117.9026180  54.2277495  60.4688838 118.3711291  53.5471641
  61.5861033 115.8265673  58.8063416  61.0825829 115.7895809  57.9931221
  61.8791640 116.7358416  58.8660072  57.8303919 115.9104403  57.8129597
  58.6956916 115.7147212  57.4535487  57.8981428 115.6814755  58.7398954
  67.4449050 126.2001984  51.2839791  66.6678493 125.8613143  50.8394953
  68.1240531 126.2054607  50.6094756  62.2601079 121.3196721  51.1746399
  61.9551214 121.6342871  52.0256542  63.2131521 121.3978141  51.2173732
  60.7047511 127.4786945  52.8239353  60.1768872 126.7439704  52.5112590
  60.2035013 128.2561621  52.5779321  65.6840357 125.6735965  57.9406399
  65.0264031 126.3635227  58.0286528  66.4880756 126.0632397  58.2840385
  55.4366238 118.1406611  55.1845964  56.0109990 117.9181793  54.4519157
  56.0237221 118.2095306  55.9374566  64.4945815 124.0280338  55.9910341
  65.0077697 124.6610330  56.4932051  65.1447039 123.4281533  55.6253701
  55.7635825 120.1711072  49.2041850  54.9273138 120.5085759  49.5251124
  55.6240595 120.0360052  48.2668986  57.7388906 115.0147860  53.9121034
  57.0853318 114.6996877  53.2877648  57.6969380 114.3923600  54.6380857
  58.8500111 125.2967155  45.8274326  57.9427173 125.0656408  46.0265475
  59.3471143 124.5004774  46.0148307  61.7568190 134.0064662  48.7471012
  61.0829888 134.3096359  49.3555970  62.1434012 134.8093743  48.3976469
  60.9726646 121.5029793  58.2368681  60.0549208 121.7244740  58.0790369
  61.3886790 121.5776104  57.3780389  61.7561694 122.9021209  53.3671362
  62.5033513 123.4142606  53.0578484  62.0253284 122.5805262  54.2275755
  60.0288344 125.3979750  50.3498316  59.1199564 125.1138783  50.4470786
  60.0583428 125.8178828  49.4901623  65.2607612 129.0086339  54.1189483
  64.8069939 128.1677249  54.1754674  64.6301578 129.6447738  54.4564264
  64.2040531 119.9378325  55.3490151  63.4663288 119.4255712  55.6800393
  64.4567305 119.4978707  54.5373428  63.7040551 130.8462836  55.0539302
  63.9963525 131.4067893  54.3351667  64.2139171 131.1391397  55.8092461
  64.3052159 112.7154577  55.9431920  64.6111035 111.8551941  55.6557835
  65.0304763 113.3072198  55.7430914  50.5976515 123.1185264  54.3313518
  50.4000914 122.5254625  53.6064585  50.0423179 122.8137474  55.0489457
  58.5773238 123.0108370  56.4508111  58.6321848 122.0582207  56.3750588
  57.7664440 123.1667810  56.9349410  59.7264432 126.9388494  47.6886394
  59.2883862 126.2224352  47.2292032  60.4674873 127.1664608  47.1271486
  56.5165598 121.6285430  54.2098490  55.7033464 121.9279601  54.6163682
  57.0124592 121.2341119  54.9272972  58.6674176 131.6243187  56.1432755
  58.6250355 131.8504033  55.2141287  59.5836875 131.3906562  56.2918556
  62.1139810 122.0927255  63.0413384  62.4689198 122.3198728  63.9007850
  62.7611941 122.4245631  62.4190639  67.8437547 125.2145691  53.7462713
  67.7055445 125.4047287  52.8183902  67.4873766 125.9765073  54.2030764
  56.0079673 119.2003786  59.8259725  56.6479052 119.0592545  59.1282688
  55.1757204 118.9138299  59.4498327  67.8706926 127.2822218  58.7573985
  68.3043433 127.1897507  59.6057039  68.5838507 127.2579718  58.1194001
  56.7839977 128.5006216  55.9394717  57.5780575 128.0056536  55.7377292
  56.0731669 127.9724079  55.5762423  61.6034821 130.8824312  60.2907085
  61.6571844 131.4515248  61.0584801  60.7349603 131.0526197  59.9261122
  53.0922740 122.6449298  52.0154470  52.1620328 122.5833753  52.2324432
  53.1880212 122.1225251  51.2191111  53.0108289 119.1704111  54.6032712
  53.2715107 120.0849444  54.4941872  53.8325462 118.7028553  54.7529325
  54.4833215 120.5841868  61.7731536  55.1556268 120.3759230  61.1244185
  53.6563001 120.3863954  61.3336769  68.7322476 127.3245918  61.2906870
  68.9258366 128.2291729  61.5366145  68.6323094 126.8653337  62.1245455
  60.3858787 117.2103809  63.7897197  59.7386702 117.9093758  63.6961674
  61.1559802 117.6439953  64.1573445  63.7937585 127.4752661  66.8647751
  63.6423091 127.2463213  65.9477834  63.7842264 128.4323262  66.8779096
  60.5622921 125.0484574  61.8494017  61.4914981 125.1995733  61.6762984
  60.1413951 125.1368595  60.9942663  59.3611253 129.0735238  59.6192555
  59.2222339 128.7054023  60.4918493  58.5725849 129.5882878  59.4476512
  59.9559405 134.1744335  50.9618091  60.1311161 133.7032378  51.7763714
  59.2692193 134.8010101  51.1899352  60.9116468 128.4516841  57.0081392
  60.5766301 128.4117611  57.9039042  60.4120414 127.7861557  56.5351803
  54.8860712 123.8584471  62.5333974  54.7480510 123.1264710  63.1345513
  55.7965635 123.7693371  62.2518161  63.8475660 125.7972875  47.2818452
  63.2304830 125.0719703  47.1851505  63.3792148 126.5582235  46.9385526
  57.5143013 123.5704430  62.0217653  58.2242631 122.9297622  61.9804272
  57.4712321 123.8217325  62.9443834  65.5029791 130.5071784  64.9424232
  65.4442337 129.8231004  64.2754815  65.9049310 131.2490774  64.4904858
  56.2271947 120.5569648  63.8413293  55.6909304 120.1060387  64.4934889
  55.6388655 120.6915557  63.0983757  54.5220490 137.3233697  57.7357951
  54.7617088 137.9552222  58.4136970  53.6789687 136.9721737  58.0223311
  55.6374206 120.0158299  46.4039756  54.7603672 119.8947100  46.0402003
  56.1131959 119.2244378  46.1518645  65.5047199 128.4711367  63.1738212
  64.6173977 128.1337289  63.2964611  66.0745750 127.7394399  63.4106977
  47.1576346 124.8035459  56.4981263  47.8447386 124.4897189  55.9102279
  47.0024474 125.7076824  56.2248515  51.9611068 119.6925656  60.9266287
  51.8769257 119.0851325  60.1916697  51.1393774 120.1834674  60.9275783
  59.0348352 133.1312820  60.1399455  58.9618523 133.9367791  60.6518760
  58.5925745 133.3304786  59.3147477  58.8238132 132.3684590  53.6502277
  58.0405654 132.9106270  53.7440501  59.5230877 132.8858569  54.0496518
  62.1334782 118.1779219  56.2936482  62.6303481 117.4249182  55.9737552
  61.3621763 118.2143536  55.7279692  69.9864539 123.8819585  57.9354774
  69.9754415 124.7644300  57.5648707  69.1181919 123.5291136  57.7409311
  61.4947036 133.0299654  62.2957614  62.2075008 133.6647119  62.2233515
  61.0037064 133.1263520  61.4797616  63.2164562 126.9350907  53.8674906
  62.2820841 127.0552369  53.6979610  63.3941231 126.0323373  53.6034915
  58.7169750 120.3196602  56.0208167  58.3467538 119.7667643  56.7089072
  59.2128843 119.7154736  55.4683167  66.6037114 122.7768226  54.4024940
  67.0697566 123.6096217  54.3285242  67.0544614 122.3113207  55.1070198
  56.5458949 130.7794097  63.1163185  57.2468409 131.4130580  63.2692579
  56.0754064 131.1208829  62.3558824  64.6713345 129.1212047  51.4011092
  64.9473189 129.0068642  52.3104966  63.8017844 128.7229532  51.3623265
  64.5753777 115.1448813  58.4415841  63.6616856 115.3753040  58.6098048
  65.0046878 115.2287257  59.2929873  64.3460235 123.3338705  60.9415735
  63.6931685 123.5814612  60.2868188  64.7240615 122.5202843  60.6078212
  61.3067409 133.3698398  55.0443905  61.4889803 132.5520054  55.5071658
  62.1300395 133.5866090  54.6068795  61.6409574 132.2966583  52.3058954
  62.1697341 131.7859038  51.6929116  61.9037794 131.9809113  53.1704487
  60.3947808 124.0758516  67.4281772  59.7188445 123.9752645  68.0984147
  61.2175442 123.9197730  67.8917769  52.1426667 130.3130452  60.0494287
  52.7280104 129.5674140  60.1822192  51.9451506 130.6234409  60.9330951
  54.9965322 133.3481700  55.0656730  54.3275698 133.8327827  54.5820770
  54.8578192 133.5950920  55.9800108  46.7344322 122.8836053  58.7698731
  46.7728421 122.3499643  59.5635849  46.2284615 122.3571258  58.1509708
  59.1370591 135.3825443  61.6639388  59.6888899 135.5457065  62.4288473
  59.4776784 135.9729881  60.9919413  54.1135084 117.7300593  62.2661273
  54.1776411 118.5915424  61.8538671  54.0502204 117.1174595  61.5333631
  53.5887357 119.8023726  65.9134307  54.2159395 119.4200803  66.5271831
  52.7315276 119.5837928  66.2790000  63.9881465 130.2086701  67.5188043
  64.5321369 130.8216659  67.0242997  63.4068310 130.7666279  68.0355056
  50.3652899 121.6100155  51.8452662  50.6606341 120.7010833  51.7919716
  49.4640935 121.5887894  51.5233664  62.2738978 133.3307419  58.6503070
  62.1490118 132.5297159  58.1414016  62.9318069 133.8253612  58.1617040
  53.8947146 119.6856151  57.8280211  53.1733732 120.2992119  57.6887684
  54.6840402 120.2213916  57.7496856  64.3373887 131.1316439  60.2782620
  63.3904222 131.0121790  60.2060947  64.6856660 130.2438937  60.3608882
  56.6973460 117.0210578  64.1020862  57.2207862 117.2672874  64.8647172
  56.4785793 117.8530613  63.6824000  52.0940741 119.2914252  51.9691987
  51.7653447 118.4111631  51.7867093  52.4480112 119.2361921  52.8568376
  61.3420320 130.9269155  56.4786973  61.1945282 129.9985863  56.6594543
  62.1673813 130.9489246  55.9944048  55.2082564 119.5787222  52.3367465
  55.5478637 120.1073143  51.6146073  55.6554685 119.9167628  53.1126031
  64.9454442 131.7497714  57.5651845  65.8700989 131.5440575  57.4276297
  64.7769745 131.5014115  58.4741187  57.9026005 117.9624273  61.7870533
  57.5622825 117.1632086  62.1891213  57.1965011 118.2625984  61.2147366
  58.5542477 115.0473585  60.2397856  59.3768546 114.5734064  60.1176746
  58.7980540 115.8264069  60.7396542  57.1950711 118.0761844  50.5360758
  57.9159074 118.4543097  50.0324474  56.5716015 118.7950721  50.6395736
  61.3381834 118.7806993  51.4719090  61.5545449 119.6631631  51.1707918
  60.8575901 118.3893206  50.7424732  56.0781056 121.7392706  58.0489834
  55.9325636 122.0533009  58.9414116  55.6006259 122.3577606  57.4960733
  57.9377438 118.7295254  58.0970724  57.9239007 117.8336347  57.7603022
  58.6549867 118.7365918  58.7309010  59.7903569 119.1632594  60.1423851
  59.5321347 120.0849665  60.1408182  59.2588610 118.7663029  60.8324316
  64.7349758 132.2683381  52.9213937  64.9086635 131.7029804  52.1687789
  65.2278649 133.0684276  52.7393427  50.5526718 124.2798050  60.9877496
  50.0080186 125.0557858  61.1197770  51.4306068 124.6268855  60.8296617
  57.3414334 117.6109634  53.3658294  57.4630246 116.6826280  53.5649182
  57.0516377 117.6248320  52.4536610  60.2105525 115.2964545  56.5025014
  60.2327222 115.3603878  55.5476994  60.6273584 114.4569053  56.6965520
  70.5889149 125.0319804  54.5404237  71.0320295 124.2827129  54.1423360
  69.7115659 125.0229941  54.1577969  65.7224930 131.5850146  50.0210835
  66.4175835 132.2056838  50.2398150  66.0648081 130.7345497  50.2963213
  51.3392740 123.4067947  63.8807653  50.5974476 123.5550582  64.4672283
  51.0185484 123.6676212  63.0174402  67.6216354 129.0349851  51.5498166
  68.1467678 129.3737124  50.8247486  67.5338706 128.0996867  51.3661301
  59.2836402 132.9483925  63.6788043  59.5923529 132.7033072  64.5510742
  60.0811884 133.1530563  63.1906913  59.3057014 135.1021834  55.9093419
  58.8662005 134.6098213  56.6026276  60.0565131 134.5594802  55.6685494
  51.7849353 131.2933375  55.9118047  52.6107373 130.9937147  55.5316691
  51.4343405 130.5240998  56.3607836  56.7530886 130.6459844  57.9815721
  56.1310896 129.9830549  57.6817949  57.4235753 130.6720975  57.2989369
  49.9857958 129.2119702  56.8706981  49.1489867 128.7841876  56.6890982
  49.9581604 129.4052145  57.8077772  56.8255414 119.1241632  67.5748227
  56.8743569 120.0003754  67.1925996  57.3677928 118.5819025  67.0019870
  67.3110260 129.6682755  66.8549364  66.5205803 129.6506894  66.3153863
  67.0743614 130.2071049  67.6098400  67.4308135 126.5175221  64.1682092
  67.4806140 126.3525229  65.1097615  67.3222058 125.6502480  63.7779973
  56.3144393 129.1963767  51.4574181  56.4632514 129.8799231  50.8040854
  57.1210837 129.1768857  51.9723637  64.7211897 122.5006149  65.4841399
  65.6221760 122.3612614  65.1925397  64.7959872 122.6660604  66.4239577
  59.0554702 119.8773004  64.3294585  58.1858012 120.1706570  64.0577174
  59.2914183 120.4613449  65.0501849  68.9326331 128.9372163  64.4124114
  68.6411140 129.3002143  65.2487575  68.3198463 128.2239171  64.2337446
  70.1322014 126.5025043  56.9326684  70.9668905 126.9414847  57.0964245
  70.2681143 126.0263696  56.1134930  67.1813520 124.0604777  62.8804172
  67.6567641 124.2532424  62.0723023  66.2579085 124.1163963  62.6347556
  54.0697026 125.2228945  52.4635250  53.8243068 124.3191275  52.6615460
  54.2392941 125.2246095  51.5214728  61.7593736 116.0952621  61.8460006
  62.2775680 116.8313648  61.5206494  61.4048869 116.4016614  62.6806765
  53.3392674 120.9557302  49.9621412  52.6461919 121.0301657  49.3061448
  53.0944426 120.1917646  50.4842929  62.0106330 112.5152903  57.3660902
  62.2908084 111.8476093  57.9921329  62.7956937 112.7081999  56.8535566
  59.8139799 131.6911897  48.9285929  59.2413766 132.3102085  48.4756401
  60.3872593 132.2411259  49.4625851  65.8815189 120.9370537  61.1132478
  66.8332612 121.0368635  61.1344702  65.7118639 120.1448806  61.6230562
  63.9029568 118.0226121  61.2991878  63.3079500 118.3031133  60.6038367
  63.6179265 118.5120022  62.0708620  63.0337059 131.9749048  50.0594511
  63.9667732 131.9094609  50.2627387  62.9460271 132.8105314  49.6009044
  65.6625075 131.2914918  47.0198459  65.5838707 130.9574781  47.9134216
  66.4834742 131.7836686  47.0189931  68.3603267 124.1576657  60.2274777
  68.3279587 123.2192658  60.4134461  68.9703890 124.2360694  59.4940602
  60.1986597 123.0272710  46.2701981  61.1445702 122.8978918  46.3390399
  59.8200842 122.2887372  46.7471409  68.5097755 120.9487701  60.2733060
  67.9936804 120.1646157  60.0862989  69.3937704 120.6206417  60.4379580
  66.1708482 114.6928716  56.2328873  65.9733303 114.3843804  57.1172205
  66.7808187 115.4190355  56.3626803  74.1779816 125.2192664  59.3680814
  74.9083205 124.9577952  59.9288517  73.5686762 124.4821386  59.4082882
  72.2595113 123.3600527  59.9655265  71.5328277 123.2256492  59.3571757
  71.8442400 123.6677355  60.7711983  60.0825290 127.0790456  67.7302638
  61.0028299 127.2569055  67.9242685  60.0474873 126.1346502  67.5782337
  58.3829515 120.9522687  46.2056866  57.4760970 120.6555799  46.2819580
  58.6605496 120.6552505  45.3391153  49.3007455 122.2729050  56.6555913
  48.9810239 121.4194358  56.3630287  48.7540883 122.4877628  57.4113880
  53.0787362 124.9891491  60.3725419  53.2973372 125.9208599  60.3913453
  53.4913136 124.6299465  61.1580223  59.9991580 115.4959576  52.3601108
  59.1892309 115.1506661  52.7356354  60.6875997 115.1867120  52.9488719
  61.9282129 114.5737623  53.9825404  62.4813167 114.9933076  54.6415427
  62.1652215 113.6473371  54.0248360  57.9515228 120.5624697  69.7628168
  57.8511955 121.5119054  69.6940259  57.7336770 120.2342936  68.8904238
  57.1528299 117.8109622  46.3468846  58.0147463 118.1364520  46.6064663
  57.3378643 117.0241118  45.8341911  49.1695715 125.8931961  58.6249034
  48.4759186 125.4785914  58.1118989  49.9168706 125.9352498  58.0282453
  65.3060936 116.6838148  53.4904069  64.7259605 117.3422952  53.1082121
  65.0396868 115.8615493  53.0791486  63.7564502 116.0843206  55.6925389
  64.2564280 116.1959740  54.8839708  64.4000110 115.7804259  56.3326197
  57.8146498 123.9921836  68.5793230  57.3313580 124.7922196  68.7857119
  57.9007437 124.0029780  67.6260674  51.0832457 125.8250215  56.5015049
  51.0603146 125.9237902  55.5496932  51.3933094 126.6715366  56.8232215
  53.7419835 127.8826370  60.6161664  54.6963089 127.8510313  60.5491595
  53.5432359 127.4216994  61.4311890  54.3319217 126.4527486  63.1832461
  55.1512106 126.9471565  63.2067299  54.6056025 125.5359454  63.1550029
  64.0885814 118.8438239  52.5460417  63.2011669 119.1287889  52.3280612
  64.5039803 118.6832002  51.6987694  67.4400350 118.8684760  56.2614756
  68.2160740 119.3581212  56.5339373  66.7148484 119.2942814  56.7186626
  69.8772908 119.5812379  57.3188697  70.4717399 119.3408115  56.6082005
  69.9499492 118.8619509  57.9462233  52.0970064 133.4245990  57.6331862
  51.9624532 132.6646391  57.0669860  51.6802126 134.1486890  57.1660650
  63.2329027 128.6082913  46.6408437  63.9364877 128.8132916  47.2566092
  62.5091676 129.1759675  46.9057520  64.0626837 124.3592775  52.7610707
  64.0062039 124.8161326  51.9218339  64.6155180 123.5983459  52.5833550
  67.8731643 120.1482506  53.5860827  67.6168578 119.7479142  54.4169034
  67.2484511 120.8626300  53.4610966  72.1843981 122.8878580  56.0932118
  71.6243539 122.9571769  56.8663680  71.5787485 122.7119564  55.3731614
  55.2539190 134.3215307  57.8450304  55.1371574 135.2660739  57.7428994
  54.4331636 134.0188868  58.2336103  65.1415725 129.0465442  48.6906897
  65.9761328 128.6146641  48.5084372  64.9800067 128.8747456  49.6183791
  64.7961617 125.5497556  50.0563236  64.7410420 125.3841827  49.1151680
  64.1707672 126.2573589  50.2125426  49.5854132 120.7865620  63.8824658
  50.2312995 120.2764574  64.3711884  49.3771283 121.5234302  64.4568084
  62.1107524 127.8546468  69.3816799  62.9798684 128.0287120  69.0203434
  61.6314275 128.6740884  69.2592528  58.1057742 115.0505665  49.6348555
  58.0936412 115.9947505  49.7916825  58.9981164 114.8675810  49.3408016
  56.2793704 134.9743569  61.0606233  57.1820951 135.0067179  61.3772728
  56.0531074 134.0444020  61.0752568  58.0347306 133.7274555  57.7216311
  57.0842937 133.7276417  57.6080684  58.3379792 132.9807290  57.2052346
  61.9209862 111.6448441  53.8894491  61.1542257 111.0906928  54.0351174
  62.3320567 111.7170310  54.7508643  53.9251623 117.9333237  67.9799673
  54.7883084 117.5770042  68.1902997  53.3517033 117.5947132  68.6675077
  73.7700000 139.5635094  58.7862074  74.4078410 139.4441841  58.0825414
  73.6520842 140.5115938  58.8450026  70.5789706 139.5162522  58.7223598
  70.2408217 139.4003586  57.8344133  71.4479474 139.1153687  58.7024605
  66.4376522 141.3697998  54.7120489  65.8741387 141.2787935  53.9436777
  66.3228917 140.5497903  55.1922982  71.0609489 140.6697373  64.6809804
  71.0498130 140.2750172  63.8090308  71.2230128 139.9363446  65.2743575
  63.9840954 142.8649190  57.5504710  64.7762245 142.5240014  57.1351009
  64.2237604 142.9744165  58.4706863  65.9431707 142.1258103  50.4222089
  66.7162583 141.5787090  50.2834964  66.2957106 142.9902352  50.6336550
  68.7072957 140.8311334  60.2190348  69.3036529 140.6067356  59.5047310
  68.7647928 140.0896079  60.8215795  68.2797985 138.2850769  48.0540538
  68.5323506 137.7632290  47.2924001  67.3422544 138.1216914  48.1567222
  73.3241268 137.2886547  55.8615282  74.1104357 136.8705971  55.5105699
  73.5879972 138.1932640  56.0296930  73.4951345 142.7259398  50.5603939
  72.8597178 142.7994024  51.2724843  73.1648752 143.3152997  49.8823018
  78.7249695 137.2261781  56.7648260  79.4574867 136.6560997  56.9986090
  77.9689051 136.8383381  57.2054766  67.9994274 140.1878875  50.2564913
  67.8830532 139.5123778  50.9245998  68.1096534 139.7011249  49.4397066
  70.3425815 139.6489022  53.9611603  69.9784022 139.1219643  54.6724524
  71.1992931 139.2587491  53.7878088  76.2475116 130.9383355  61.2242869
  75.9158440 131.8078766  61.0004084  75.6520729 130.6219639  61.9036899
  69.9831302 134.6778922  48.9572951  70.1505704 135.5459158  49.3243422
  69.7928471 134.8406204  48.0334240  72.7406635 143.1395901  60.6238782
  72.4407358 144.0420940  60.5154589  72.3957695 142.8728084  61.4759934
  66.1919117 139.5909698  56.6575486  65.2669613 139.4585912  56.8653178
  66.4403530 140.3703917  57.1545428  76.1403779 135.6578441  58.3036219
  75.2320656 135.5893849  58.0094980  76.0891375 136.1350386  59.1318044
  69.9620523 137.1336579  49.9419618  69.8420148 137.5793630  50.7805098
  69.2673111 137.4821897  49.3833156  63.5527928 139.2342971  57.4919275
  63.6820309 139.4877450  58.4058687  62.8725379 139.8270679  57.1723930
  70.2144645 137.0768086  66.2471116  69.4377979 137.6362007  66.2373981
  70.8535208 137.5624869  66.7685986  78.0065425 133.8594879  60.0814093
  77.3639806 134.1527412  59.4353887  77.5020354 133.7447800  60.8867289
  75.6605589 137.6058052  50.7699952  76.5723445 137.8385439  50.5947650
  75.1515236 138.1895097  50.2075031  68.4691017 139.8853540  65.8089083
  69.2105701 140.4238584  65.5323907  67.7628002 140.5119829  65.9660635
  73.9446357 142.0282680  64.4061245  74.3529713 141.5865091  63.6615877
  73.2223618 141.4535308  64.6595438  70.2977427 136.9655287  61.7794802
  71.1438622 137.3894701  61.9229451  70.2376064 136.3088911  62.4733365
  74.2675171 142.5883871  58.1613534  73.6384034 142.7529585  57.4589601
  73.8800833 143.0025480  58.9324498  78.1464403 143.5238309  55.5157897
  77.4615441 143.9037210  54.9654931  78.2308252 144.1333635  56.2489845
  73.4476872 134.6259655  63.4375975  73.2037804 135.3801716  62.9010251
  73.7236803 135.0045003  64.2723222  75.4015335 141.1698268  62.1153241
  75.6132230 141.8130028  61.4387622  75.3545083 140.3360584  61.6475171
  73.0041564 133.7816088  59.0189813  72.1426043 134.0797342  59.3106551
  73.0303998 133.9986487  58.0870846  69.8203133 142.3258279  55.4263619
  70.2841479 142.6045982  54.6368241  69.5559931 141.4241724  55.2436709
  66.7127214 141.8729761  58.3643382  67.2828571 142.3017029  57.7260866
  67.3035326 141.5912345  59.0627568  68.7572019 138.4481431  52.2353184
  69.4596063 138.9002475  52.7027110  68.4252648 137.8065250  52.8633077
  67.2052381 137.0393188  66.6104393  66.5751041 137.7209469  66.8439790
  67.0988469 136.9276270  65.6657531  62.4997353 136.7064984  57.5370317
  61.7096407 136.9622513  57.0610428  62.9908601 137.5213322  57.6422358
  76.5161163 144.0470223  60.2875598  77.3378606 143.6450411  60.0058280
  76.5123566 143.9438457  61.2391714  64.4512099 137.0709563  54.4953794
  63.6543262 137.1828258  55.0137290  64.2237691 137.4096216  53.6294685
  70.2817766 143.5954267  62.4436309  70.3462199 144.0574674  63.2794481
  69.5728690 142.9651631  62.5718619  60.7835056 136.9595474  59.9685308
  61.0343095 137.8442484  60.2342884  61.3194605 136.7800076  59.1960400
  84.6067156 140.3908972  56.6360570  83.8530864 139.8216370  56.4804574
  84.7414697 140.3571636  57.5831204  66.4833123 131.3413954  68.9729644
  66.0900069 130.7880152  69.6477288  67.2999264 131.6524532  69.3636162
  69.4001084 132.7571833  66.5649901  70.1410798 133.3578986  66.4854363
  69.6319007 132.0149471  66.0067943  64.5442422 137.9428200  64.8428130
  64.4295938 137.0413457  65.1435229  63.6886940 138.1891897  64.4912947
  70.1788552 143.6792870  65.3120541  70.7116889 142.9181158  65.0819849
  69.6502634 143.3866522  66.0544695  73.3458247 128.7852936  60.8414182
  73.0022517 129.6754578  60.7653293  73.7137210 128.5954594  59.9783767
  61.4144098 141.1086466  53.6602785  62.2519320 141.5183475  53.4436492
  61.5922366 140.1685909  53.6302978  73.3108530 138.7761547  49.3486618
  72.7955154 139.5466152  49.5875005  73.0385839 138.1026683  49.9719679
  70.8955641 133.6211248  54.4071856  70.0397237 133.2318098  54.2277495
  71.3082593 133.7003209  53.5471641  72.4254788 131.1557591  58.8063416
  71.9219583 131.1187726  57.9931221  72.7185395 132.0650334  58.8660072
  68.6697674 131.2396321  57.8129597  69.5350670 131.0439129  57.4535487
  68.7375183 131.0106673  58.7398954  78.2842804 141.5293902  51.2839791
  77.5072247 141.1905061  50.8394953  78.9634285 141.5346525  50.6094756
  73.0994833 136.6488639  51.1746399  72.7944969 136.9634788  52.0256542
  74.0525275 136.7270059  51.2173732  71.5441265 142.8078862  52.8239353
  71.0162627 142.0731622  52.5112590  71.0428768 143.5853539  52.5779321
  76.5234111 141.0027883  57.9406399  75.8657786 141.6927144  58.0286528
  77.3274510 141.3924315  58.2840385  66.2759993 133.4698529  55.1845964
  66.8503745 133.2473710  54.4519157  66.8630975 133.5387223  55.9374566
  75.3339570 139.3572256  55.9910341  75.8471452 139.9902247  56.4932051
  75.9840794 138.7573451  55.6253701  66.6029580 135.5002990  49.2041850
  65.7666892 135.8377676  49.5251124  66.4634349 135.3651970  48.2668986
  68.5782660 130.3439778  53.9121034  67.9247073 130.0288795  53.2877648
  68.5363135 129.7215518  54.6380857  69.6893865 140.6259073  45.8274326
  68.7820927 140.3948326  46.0265475  70.1864897 139.8296692  46.0148307
  71.8120401 136.8321711  58.2368681  70.8942962 137.0536658  58.0790369
  72.2280544 136.9068022  57.3780389  72.5955449 138.2313127  53.3671362
  73.3427268 138.7434524  53.0578484  72.8647038 137.9097180  54.2275755
  70.8682099 140.7271668  50.3498316  69.9593318 140.4430700  50.4470786
  70.8977183 141.1470746  49.4901623  76.1001366 144.3378257  54.1189483
  75.6463693 143.4969167  54.1754674  75.4695333 144.9739655  54.4564264
  75.0434286 135.2670243  55.3490151  74.3057043 134.7547629  55.6800393
  75.2961059 134.8270625  54.5373428  74.5434305 146.1754754  55.0539302
  74.8357280 146.7359811  54.3351667  75.0532926 146.4683315  55.8092461
  75.1445913 128.0446495  55.9431920  75.4504790 127.1843859  55.6557835
  75.8698518 128.6364115  55.7430914  61.4370269 138.4477182  54.3313518
  61.2394669 137.8546542  53.6064585  60.8816933 138.1429392  55.0489457
  69.4166993 138.3400288  56.4508111  69.4715603 137.3874125  56.3750588
  68.6058195 138.4959727  56.9349410  70.5658187 142.2680411  47.6886394
  70.1277616 141.5516270  47.2292032  71.3068627 142.4956526  47.1271486
  67.3559353 136.9577348  54.2098490  66.5427218 137.2571518  54.6163682
  67.8518347 136.5633037  54.9272972  72.9533564 137.4219172  63.0413384
  73.3082952 137.6490645  63.9007850  73.6005696 137.7537549  62.4190639
  78.6831301 140.5437608  53.7462713  78.5449200 140.7339204  52.8183902
  78.3267520 141.3056991  54.2030764  66.8473427 134.5295703  59.8259725
  67.4872807 134.3884463  59.1282688  66.0150958 134.2430217  59.4498327
  78.7100681 142.6114135  58.7573985  79.1437188 142.5189424  59.6057039
  79.4232262 142.5871636  58.1194001  67.6233731 143.8298134  55.9394717
  68.4174330 143.3348454  55.7377292  66.9125424 143.3015997  55.5762423
  63.9316495 137.9741216  52.0154470  63.0014083 137.9125671  52.2324432
  64.0273967 137.4517168  51.2191111  63.8502044 134.4996028  54.6032712
  64.1108861 135.4141362  54.4941872  64.6719216 134.0320471  54.7529325
  65.3226969 135.9133786  61.7731536  65.9950023 135.7051148  61.1244185
  64.4956756 135.7155872  61.3336769  79.5716231 142.6537836  61.2906870
  79.7652121 143.5583646  61.5366145  79.4716849 142.1945255  62.1245455
  71.2252541 132.5395726  63.7897197  70.5780456 133.2385676  63.6961674
  71.9953557 132.9731870  64.1573445  74.6331339 142.8044579  66.8647751
  74.4816846 142.5755130  65.9477834  74.6236019 143.7615180  66.8779096
  71.4016676 140.3776491  61.8494017  72.3308736 140.5287651  61.6762984
  70.9807706 140.4660512  60.9942663  71.7510223 143.7808759  57.0081392
  71.4160055 143.7409528  57.9039042  71.2514168 143.1153474  56.5351803
  65.7254466 139.1876389  62.5333974  65.5874264 138.4556627  63.1345513
  66.6359390 139.0985289  62.2518161  74.6869414 141.1264793  47.2818452
  74.0698585 140.4011621  47.1851505  74.2185903 141.8874153  46.9385526
  68.3536767 138.8996348  62.0217653  69.0636386 138.2589540  61.9804272
  68.3106075 139.1509243  62.9443834  76.3423546 145.8363701  64.9424232
  76.2836092 145.1522921  64.2754815  76.7443064 146.5782691  64.4904858
  67.0665701 135.8861566  63.8413293  66.5303058 135.4352304  64.4934889
  66.4782410 136.0207475  63.0983757  66.4767960 135.3450217  46.4039756
  65.5997426 135.2239018  46.0402003  66.9525713 134.5536295  46.1518645
  76.3440953 143.8003285  63.1738212  75.4567732 143.4629207  63.2964611
  76.9139504 143.0686316  63.4106977  62.8004822 135.0217573  60.9266287
  62.7163011 134.4143243  60.1916697  61.9787529 135.5126592  60.9275783
  72.9728536 133.5071137  56.2936482  73.4697236 132.7541099  55.9737552
  72.2015518 133.5435454  55.7279692  80.8258294 139.2111503  57.9354774
  80.8148170 140.0936218  57.5648707  79.9575673 138.8583053  57.7409311
  74.0558317 142.2642824  53.8674906  73.1214596 142.3844287  53.6979610
  74.2334985 141.3615291  53.6034915  69.5563505 135.6488520  56.0208167
  69.1861292 135.0959560  56.7089072  70.0522597 135.0446653  55.4683167
  77.4430868 138.1060143  54.4024940  77.9091320 138.9388135  54.3285242
  77.8938369 137.6405125  55.1070198  75.5107099 144.4503965  51.4011092
  75.7866943 144.3360559  52.3104966  74.6411598 144.0521450  51.3623265
  75.4147531 130.4740730  58.4415841  74.5010611 130.7044957  58.6098048
  75.8440632 130.5579175  59.2929873  75.1853990 138.6630622  60.9415735
  74.5325440 138.9106530  60.2868188  75.5634369 137.8494761  60.6078212
  71.2341563 139.4050433  67.4281772  70.5582200 139.3044563  68.0984147
  72.0569196 139.2489647  67.8917769  57.5738076 138.2127970  58.7698731
  57.6122176 137.6791561  59.5635849  57.0678369 137.6863176  58.1509708
  64.9528839 133.0592511  62.2661273  65.0170165 133.9207342  61.8538671
  64.8895959 132.4466512  61.5333631  64.4281111 135.1315643  65.9134307
  65.0553150 134.7492721  66.5271831  63.5709030 134.9129845  66.2790000
  74.8275220 145.5378618  67.5188043  75.3715124 146.1508577  67.0242997
  74.2462065 146.0958197  68.0355056  61.2046654 136.9392072  51.8452662
  61.5000095 136.0302751  51.7919716  60.3034690 136.9179812  51.5233664
  64.7340901 135.0148069  57.8280211  64.0127487 135.6284037  57.6887684
  65.5234157 135.5505834  57.7496856  75.1767641 146.4608357  60.2782620
  74.2297977 146.3413708  60.2060947  75.5250414 145.5730855  60.3608882
  67.5367214 132.3502495  64.1020862  68.0601616 132.5964792  64.8647172
  67.3179548 133.1822530  63.6824000  62.9334496 134.6206170  51.9691987
  62.6047202 133.7403549  51.7867093  63.2873866 134.5653839  52.8568376
  66.0476319 134.9079140  52.3367465  66.3872391 135.4365061  51.6146073
  66.4948439 135.2459546  53.1126031  75.7848196 147.0789631  57.5651845
  76.7094744 146.8732493  57.4276297  75.6163500 146.8306033  58.4741187
  68.7419759 133.2916191  61.7870533  68.4016580 132.4924004  62.1891213
  68.0358766 133.5917901  61.2147366  69.3936231 130.3765503  60.2397856
  70.2162301 129.9025981  60.1176746  69.6374295 131.1555987  60.7396542
  68.0344466 133.4053761  50.5360758  68.7552828 133.7835014  50.0324474
  67.4109770 134.1242638  50.6395736  72.1775589 134.1098910  51.4719090
  72.3939203 134.9923548  51.1707918  71.6969656 133.7185124  50.7424732
  66.9174810 137.0684624  58.0489834  66.7719391 137.3824927  58.9414116
  66.4400014 137.6869524  57.4960733  68.7771193 134.0587172  58.0970724
  68.7632762 133.1628265  57.7603022  69.4943621 134.0657835  58.7309010
  70.6297324 134.4924512  60.1423851  70.3715101 135.4141582  60.1408182
  70.0982364 134.0954946  60.8324316  61.3920472 139.6089968  60.9877496
  60.8473940 140.3849776  61.1197770  62.2699822 139.9560773  60.8296617
  68.1808089 132.9401552  53.3658294  68.3024000 132.0118198  53.5649182
  67.8910131 132.9540238  52.4536610  71.0499279 130.6256462  56.5025014
  71.0720976 130.6895795  55.5476994  71.4667338 129.7860971  56.6965520
  81.4282904 140.3611722  54.5404237  81.8714050 139.6119047  54.1423360
  80.5509414 140.3521858  54.1577969  76.5618685 146.9142063  50.0210835
  77.2569590 147.5348756  50.2398150  76.9041835 146.0637415  50.2963213
  62.1786494 138.7359864  63.8807653  61.4368230 138.8842500  64.4672283
  61.8579238 138.9968130  63.0174402  78.4610108 144.3641769  51.5498166
  78.9861432 144.7029042  50.8247486  78.3732461 143.4288784  51.3661301
  67.6649168 134.4533549  67.5748227  67.7137324 135.3295672  67.1925996
  68.2071683 133.9110942  67.0019870  78.1504014 144.9974673  66.8549364
  77.3599558 144.9798811  66.3153863  77.9137369 145.5362966  67.6098400
  78.2701889 141.8467139  64.1682092  78.3199894 141.6817146  65.1097615
  78.1615812 140.9794398  63.7779973  75.5605652 137.8298067  65.4841399
  76.4615514 137.6904532  65.1925397  75.6353626 137.9952522  66.4239577
  69.8948457 135.2064922  64.3294585  69.0251766 135.4998488  64.0577174
  70.1307937 135.7905367  65.0501849  79.7720086 144.2664080  64.4124114
  79.4804894 144.6294061  65.2487575  79.1592217 143.5531089  64.2337446
  80.9715768 141.8316960  56.9326684  81.8062660 142.2706764  57.0964245
  81.1074897 141.3555613  56.1134930  78.0207274 139.3896695  62.8804172
  78.4961396 139.5824341  62.0723023  77.0972840 139.4455881  62.6347556
  64.9090781 140.5520862  52.4635250  64.6636823 139.6483192  52.6615460
  65.0786695 140.5538013  51.5214728  72.5987491 131.4244539  61.8460006
  73.1169435 132.1605566  61.5206494  72.2442623 131.7308532  62.6806765
  64.1786428 136.2849220  49.9621412  63.4855673 136.3593575  49.3061448
  63.9338180 135.5209563  50.4842929  72.8500085 127.8444821  57.3660902
  73.1301839 127.1768010  57.9921329  73.6350692 128.0373917  56.8535566
  76.7208943 136.2662455  61.1132478  77.6726366 136.3660553  61.1344702
  76.5512394 135.4740724  61.6230562  74.7423323 133.3518038  61.2991878
  74.1473255 133.6323051  60.6038367  74.4573019 133.8411939  62.0708620
  76.5018830 146.6206836  47.0198459  76.4232461 146.2866699  47.9134216
  77.3228497 147.1128603  47.0189931  79.1997021 139.4868575  60.2274777
  79.1673341 138.5484576  60.4134461  79.8097645 139.5652612  59.4940602
  71.0380352 138.3564628  46.2701981  71.9839457 138.2270836  46.3390399
  70.6594597 137.6179290  46.7471409  79.3491509 136.2779618  60.2733060
  78.8330558 135.4938075  60.0862989  80.2331458 135.9498335  60.4379580
  77.0102236 130.0220634  56.2328873  76.8127058 129.7135722  57.1172205
  77.6201942 130.7482273  56.3626803  85.0173571 140.5484582  59.3680814
  85.7476959 140.2869870  59.9288517  84.4080516 139.8113304  59.4082882
  83.0988868 138.6892444  59.9655265  82.3722032 138.5548409  59.3571757
  82.6836155 138.9969273  60.7711983  70.9219044 142.4082374  67.7302638
  71.8422054 142.5860973  67.9242685  70.8868627 141.4638419  67.5782337
  69.2223269 136.2814604  46.2056866  68.3154724 135.9847717  46.2819580
  69.4999250 135.9844422  45.3391153  60.1401209 137.6020968  56.6555913
  59.8203994 136.7486276  56.3630287  59.5934638 137.8169546  57.4113880
  63.9181117 140.3183409  60.3725419  64.1367127 141.2500516  60.3913453
  64.3306891 139.9591383  61.1580223  70.8385335 130.8251494  52.3601108
  70.0286063 130.4798579  52.7356354  71.5269752 130.5159038  52.9488719
  72.7675883 129.9029541  53.9825404  73.3206922 130.3224994  54.6415427
  73.0045969 128.9765289  54.0248360  68.7908982 135.8916614  69.7628168
  68.6905709 136.8410971  69.6940259  68.5730524 135.5634853  68.8904238
  67.9922054 133.1401539  46.3468846  68.8541218 133.4656438  46.6064663
  68.1772398 132.3533035  45.8341911  60.0089469 141.2223879  58.6249034
  59.3152941 140.8077832  58.1118989  60.7562460 141.2644416  58.0282453
  76.1454690 132.0130066  53.4904069  75.5653359 132.6714870  53.1082121
  75.8790623 131.1907410  53.0791486  74.5958256 131.4135124  55.6925389
  75.0958035 131.5251658  54.8839708  75.2393864 131.1096176  56.3326197
  68.6540252 139.3213753  68.5793230  68.1707334 140.1214113  68.7857119
  68.7401191 139.3321698  67.6260674  61.9226212 141.1542133  56.5015049
  61.8996900 141.2529820  55.5496932  62.2326848 142.0007284  56.8232215
  65.1712972 141.7819404  63.1832461  65.9905861 142.2763483  63.2067299
  65.4449780 140.8651372  63.1550029  74.9279568 134.1730156  52.5460417
  74.0405423 134.4579807  52.3280612  75.3433557 134.0123920  51.6987694
  78.2794104 134.1976677  56.2614756  79.0554494 134.6873130  56.5339373
  77.5542238 134.6234731  56.7186626  80.7166663 134.9104296  57.3188697
  81.3111154 134.6700032  56.6082005  80.7893247 134.1911427  57.9462233
  74.0722782 143.9374831  46.6408437  74.7758632 144.1424833  47.2566092
  73.3485430 144.5051593  46.9057520  74.9020592 139.6884692  52.7610707
  74.8455793 140.1453244  51.9218339  75.4548934 138.9275377  52.5833550
  78.7125398 135.4774424  53.5860827  78.4562332 135.0771060  54.4169034
  78.0878266 136.1918218  53.4610966  83.0237736 138.2170497  56.0932118
  82.4637294 138.2863687  56.8663680  82.4181239 138.0411482  55.3731614
  75.9809479 144.3757360  48.6906897  76.8155083 143.9438559  48.5084372
  75.8193822 144.2039374  49.6183791  75.6355371 140.8789473  50.0563236
  75.5804175 140.7133745  49.1151680  75.0101426 141.5865506  50.2125426
  60.4247886 136.1157538  63.8824658  61.0706750 135.6056492  64.3711884
  60.2165037 136.8526219  64.4568084  72.9501278 143.1838385  69.3816799
  73.8192438 143.3579038  69.0203434  72.4708030 144.0032802  69.2592528
  68.9451497 130.3797582  49.6348555  68.9330166 131.3239422  49.7916825
  69.8374919 130.1967728  49.3408016  72.7603616 126.9740359  53.8894491
  71.9936012 126.4198846  54.0351174  73.1714321 127.0462228  54.7508643
  64.7645377 133.2625155  67.9799673  65.6276839 132.9061960  68.1902997
  64.1910788 132.9239050  68.6675077  87.0868870 146.2675272  61.2242869
  86.7552195 147.1370683  61.0004084  86.4914483 145.9511556  61.9036899
  88.8459180 149.1886797  60.0814093  88.2033560 149.4819330  59.4353887
  88.3414108 149.0739717  60.8867289  83.8435318 149.1108006  59.0189813
  82.9819797 149.4089260  59.3106551  83.8697753 149.3278405  58.0870846
  77.3226878 146.6705872  68.9729644  76.9293824 146.1172070  69.6477288
  78.1393018 146.9816450  69.3636162  80.2394839 148.0863751  66.5649901
  80.9804552 148.6870904  66.4854363  80.4712762 147.3441388  66.0067943
  84.1852002 144.1144854  60.8414182  83.8416271 145.0046495  60.7653293
  84.5530964 143.9246511  59.9783767  81.7349396 148.9503165  54.4071856
  80.8790992 148.5610016  54.2277495  82.1476347 149.0295126  53.5471641
  83.2648542 146.4849509  58.8063416  82.7613338 146.4479644  57.9931221
  83.5579149 147.3942251  58.8660072  79.5091428 146.5688238  57.8129597
  80.3744425 146.3731047  57.4535487  79.5768937 146.3398590  58.7398954
  79.4176415 145.6731695  53.9121034  78.7640827 145.3580712  53.2877648
  79.3756889 145.0507436  54.6380857  85.8828040 150.5962161  55.3490151
  85.1450797 150.0839547  55.6800393  86.1354814 150.1562542  54.5373428
  85.9839668 143.3738413  55.9431920  86.2898544 142.5135776  55.6557835
  86.7092272 143.9656033  55.7430914  82.0646296 147.8687644  63.7897197
  81.4174211 148.5677594  63.6961674  82.8347311 148.3023788  64.1573445
  83.8122291 148.8363055  56.2936482  84.3090990 148.0833017  55.9737552
  83.0409272 148.8727371  55.7279692  86.2541285 145.8032648  58.4415841
  85.3404365 146.0336875  58.6098048  86.6834387 145.8871092  59.2929873
  80.2329986 145.7057421  60.2397856  81.0556055 145.2317899  60.1176746
  80.4768049 146.4847904  60.7396542  81.8893034 145.9548380  56.5025014
  81.9114731 146.0187713  55.5476994  82.3061093 145.1152889  56.6965520
  83.4381245 146.7536456  61.8460006  83.9563189 147.4897483  61.5206494
  83.0836378 147.0600450  62.6806765  83.6893839 143.1736739  57.3660902
  83.9695593 142.5059928  57.9921329  84.4744446 143.3665834  56.8535566
  85.5817077 148.6809956  61.2991878  84.9867009 148.9614969  60.6038367
  85.2966774 149.1703857  62.0708620  90.1885264 151.6071536  60.2733060
  89.6724313 150.8229993  60.0862989  91.0725212 151.2790253  60.4379580
  87.8495991 145.3512552  56.2328873  87.6520812 145.0427640  57.1172205
  88.4595696 146.0774190  56.3626803  81.6779089 146.1543412  52.3601108
  80.8679818 145.8090497  52.7356354  82.3663506 145.8450955  52.9488719
  83.6069638 145.2321458  53.9825404  84.1600676 145.6516912  54.6415427
  83.8439724 144.3057206  54.0248360  86.9848445 147.3421984  53.4904069
  86.4047114 148.0006788  53.1082121  86.7184377 146.5199328  53.0791486
  85.4352011 146.7427041  55.6925389  85.9351789 146.8543576  54.8839708
  86.0787619 146.4388094  56.3326197  85.7673323 149.5022074  52.5460417
  84.8799178 149.7871725  52.3280612  86.1827312 149.3415837  51.6987694
  89.1187859 149.5268595  56.2614756  89.8948249 150.0165047  56.5339373
  88.3935993 149.9526649  56.7186626  91.5560417 150.2396214  57.3188697
  92.1504908 149.9991950  56.6082005  91.6287001 149.5203345  57.9462233
  89.5519152 150.8066342  53.5860827  89.2956087 150.4062977  54.4169034
  88.9272020 151.5210136  53.4610966  79.7845251 145.7089500  49.6348555
  79.7723921 146.6531340  49.7916825  80.6768673 145.5259646  49.3408016
  83.5997371 142.3032277  53.8894491  82.8329766 141.7490763  54.0351174
  84.0108076 142.3754146  54.7508643   8.7337474  24.5945710  45.5107380
   9.3715884  24.4752457  44.8070720   8.6158317  25.5426554  45.5695332
   5.5427180  24.5473138  45.4468905   5.2045692  24.4314203  44.5589440
   6.4116948  24.1464303  45.4269911   1.4013996  26.4008615  41.4365796
   0.8378861  26.3098552  40.6682084   1.2866391  25.5808519  41.9168288
   6.0246963  25.7007990  51.4055111   6.0135604  25.3060788  50.5335614
   6.1867603  24.9674063  51.9988882   6.9813555  30.0679582  36.7480261
   6.3301534  30.6533663  36.3614275   7.7757917  30.5985777  36.8075298
   2.7454224  28.4845102  50.3534295   2.4544090  29.3890733  50.2380961
   3.3811209  28.5261629  51.0678364   3.6710431  25.8621950  46.9435654
   4.2674003  25.6377973  46.2292617   3.7285403  25.1206696  47.5461102
   8.2878742  22.3197164  42.5860588   9.0741832  21.9016587  42.2351005
   8.5517447  23.2243256  42.7542237   8.4588820  27.7570014  37.2849245
   7.8234653  27.8304641  37.9970150   8.1286226  28.3463613  36.6068324
  13.6887170  22.2572397  43.4893567  14.4212341  21.6871614  43.7231396
  12.9326525  21.8693998  43.9300072   5.3063289  24.6799639  40.6856909
   4.9421496  24.1530260  41.3969831   6.1630405  24.2898108  40.5123395
  11.2112590  15.9693971  47.9488175  10.8795915  16.8389382  47.7249390
  10.6158203  15.6530255  48.6282206   7.7044109  28.1706517  47.3484088
   7.4044833  29.0731556  47.2399895   7.3595169  27.9038700  48.2005241
  11.1041253  20.6889057  45.0281526  10.1958131  20.6204466  44.7340286
  11.0528849  21.1661002  45.8563351   2.6864889  34.9350838  40.3155056
   2.6088919  35.8858663  40.3943536   2.0826533  34.5896710  40.9729982
   5.1782119  22.1078703  52.9716423   4.4015453  22.6672623  52.9619287
   5.8172682  22.5935486  53.4931293  12.9702900  18.8905496  46.8059399
  12.3277280  19.1838029  46.1599194  12.4657828  18.7758416  47.6112596
  10.6243063  22.6368669  37.4945259  11.5360919  22.8696056  37.3192956
  10.1152710  23.2205713  36.9320337   3.4328491  24.9164156  52.5334390
   4.1743176  25.4549200  52.2569213   2.7265477  25.5430445  52.6905942
   8.9083831  27.0593297  51.1306551   9.3167187  26.6175707  50.3861184
   8.1861092  26.4845924  51.3840744   5.2614901  21.9965904  48.5040108
   6.1076096  22.4205317  48.6474757   5.2013539  21.3399528  49.1978671
   9.2312646  27.6194487  44.8858840   8.6021508  27.7840202  44.1834908
   8.8438308  28.0336097  45.6569804  13.1101877  28.5548925  42.2403204
  12.4252916  28.9347827  41.6900237  13.1945727  29.1644252  42.9735152
   8.4114346  19.6570272  50.1621282   8.1675278  20.4112333  49.6255558
   8.6874277  20.0355620  50.9968529  10.3652809  26.2008884  48.8398547
  10.5769704  26.8440644  48.1632929  10.3182557  25.3671201  48.3720478
   7.9679038  18.8126705  45.7435120   7.1063517  19.1107959  46.0351857
   7.9941473  19.0297104  44.8116152   4.7840607  27.3568896  42.1508925
   5.2478953  27.6356599  41.3613548   4.5197406  26.4552340  41.9682016
   1.6764689  26.9040377  45.0888689   2.2466046  27.3327645  44.4506173
   2.2672800  26.6222962  45.7872874   2.1689855  22.0703805  53.3349700
   1.5388516  22.7520085  53.5685097   2.0625943  21.9586886  52.3902838
  11.4798637  29.0780840  47.0120905  12.3016081  28.6761027  46.7303586
  11.4761040  28.9749074  47.9637021   5.2455240  28.6264883  49.1681615
   5.3099673  29.0885290  50.0039787   4.5366164  27.9962248  49.2963925
  19.5704630  25.4219588  43.3605876  18.8168338  24.8526986  43.2049881
  19.7052171  25.3882253  44.3076511   4.9603258  30.2932991  39.0360596
   4.8248933  31.1384526  39.4645443   5.5013071  30.4952268  38.2726529
   6.5871735  30.9156557  53.1660938   6.1435589  30.1292936  52.8481842
   7.2488948  31.1035708  52.5004828   1.3458856  32.4452359  47.6921616
   1.8966281  32.3169422  46.9198610   0.5070332  32.7447248  47.3416509
   8.6852973  31.1959357  51.1942339   8.6671448  32.0168238  50.7022608
   9.6072893  31.0713432  51.4192480   5.1426027  28.7103486  52.0365847
   5.6754364  27.9491775  51.8065155   4.6140108  28.4177138  52.7790002
  13.2480279  26.5604518  38.0085098  12.4709721  26.2215678  37.5640260
  13.9271760  26.5657141  37.3340063   6.5078739  27.8389479  39.5484659
   5.9800101  27.1042239  39.2357897   6.0066242  28.6164155  39.3024628
  11.4871585  26.0338499  44.6651706  10.8295260  26.7237761  44.7531834
  12.2911985  26.4234931  45.0085692  10.2977044  24.3882872  42.7155647
  10.8108926  25.0212864  43.2177357  10.9478268  23.7884068  42.3499007
   7.5599419  34.3667196  35.4716319   6.8861117  34.6698893  36.0801276
   7.9465240  35.1696277  35.1221776   6.7757875  21.8632328  44.9613988
   5.8580436  22.0847275  44.8035676   7.1918019  21.9378638  44.1025695
   7.5592923  23.2623743  40.0916668   8.3064742  23.7745141  39.7823790
   7.8284512  22.9407796  40.9521062  11.0638840  29.3688874  40.8434790
  10.6101168  28.5279783  40.8999981  10.4332807  30.0050272  41.1809570
  10.0071760  20.2980860  42.0735457   9.2694517  19.7858246  42.4045700
  10.2598534  19.8581241  41.2618734   9.5071780  31.2065370  41.7784608
   9.7994754  31.7670427  41.0596974  10.0170400  31.4993931  42.5337767
   4.3804467  23.3710905  43.1753418   4.4353077  22.4184741  43.0995894
   3.5695669  23.5270344  43.6594716   2.3196827  21.9887964  40.9343797
   1.5064693  22.2882135  41.3408989   2.8155821  21.5943653  41.6518279
   4.4705405  31.9845721  42.8678061   4.4281584  32.2106568  41.9386593
   5.3868104  31.7509096  43.0163863   7.9171039  22.4529789  49.7658691
   8.2720426  22.6801262  50.6253156   8.5643170  22.7848166  49.1435946
  13.6468776  25.5748225  40.4708020  13.5086674  25.7649821  39.5429209
  13.2904994  26.3367608  40.9276071  13.6738155  27.6424752  45.4819291
  14.1074662  27.5500041  46.3302345  14.3869736  27.6182252  44.8439307
   2.5871206  28.8608750  42.6640024   3.3811804  28.3659071  42.4622599
   1.8762898  28.3326614  42.3007730   7.4066050  31.2426846  47.0152392
   7.4603072  31.8117782  47.7830108   6.5380832  31.4128731  46.6506429
  14.5353705  27.6848452  48.0152177  14.7289595  28.5894263  48.2611451
  14.4354323  27.2255872  48.8490762   6.1890016  17.5706343  50.5142504
   5.5417931  18.2696293  50.4206980   6.9591031  18.0042487  50.8818752
   9.5968813  27.8355195  53.5893057   9.4454320  27.6065747  52.6723141
   9.5873493  28.7925797  53.6024402   6.3654150  25.4087108  48.5739324
   7.2946210  25.5598268  48.4008291   5.9445180  25.4971129  47.7187970
   5.1642482  29.4337772  46.3437861   5.0253567  29.0656557  47.2163799
   4.3757078  29.9485412  46.1721819   5.7590634  34.5346869  37.6863398
   5.9342389  34.0634912  38.5009020   5.0723422  35.1612635  37.9144658
   6.7147697  28.8119375  43.7326699   6.3797529  28.7720145  44.6284349
   6.2151643  28.1464091  43.2597109   0.6891941  24.2187005  49.2579280
   0.5511739  23.4867244  49.8590819   1.5996864  24.1295905  48.9763468
   3.3174241  23.9306964  48.7462960   4.0273860  23.2900157  48.7049578
   3.2743550  24.1819859  49.6689141  11.3061020  30.8674318  51.6669539
  11.2473566  30.1833538  51.0000122  11.7080539  31.6093308  51.2150165
   2.0303175  20.9172182  50.5658599   1.4940532  20.4662921  51.2180196
   1.4419884  21.0518091  49.8229064  11.3078427  28.8313902  49.8983519
  10.4205206  28.4939823  50.0209918  11.8776978  28.0996933  50.1352284
   4.8379581  33.4915354  46.8644762   4.7649752  34.2970326  47.3764066
   4.3956974  33.6907320  46.0392783   4.6269360  32.7287124  40.3747583
   3.8436882  33.2708804  40.4685808   5.3262106  33.2461104  40.7741825
   7.9366011  18.5381754  43.0181789   8.4334710  17.7851716  42.6982859
   7.1652992  18.5746070  42.4524998  15.7895768  24.2422119  44.6600080
  15.7785644  25.1246834  44.2894013  14.9213147  23.8893670  44.4654617
   7.2978264  33.3902188  49.0202921   8.0106237  34.0249653  48.9478822
   6.8068293  33.4866054  48.2042922   9.0195791  27.2953441  40.5920212
   8.0852070  27.4154903  40.4224917   9.1972460  26.3925908  40.3280222
   4.5200979  20.6799137  42.7453473   4.1498767  20.1270177  43.4334379
   5.0160072  20.0757270  42.1928473  12.4068343  23.1370760  41.1270246
  12.8728795  23.9698752  41.0530549  12.8575843  22.6715742  41.8315505
   2.3490178  31.1396632  49.8408491   3.0499637  31.7733114  49.9937886
   1.8785293  31.4811363  49.0804131  10.4744574  29.4814581  38.1256398
  10.7504418  29.3671176  39.0350272   9.6049072  29.0832066  38.0868571
  10.3785005  15.5051347  45.1661148   9.4648085  15.7355574  45.3343355
  10.8078107  15.5889791  46.0175180  10.1491464  23.6941239  47.6661042
   9.4962914  23.9417146  47.0113494  10.5271844  22.8805377  47.3323519
   7.1098638  33.7300932  41.7689212   7.2921032  32.9122588  42.2316964
   7.9331624  33.9468624  41.3314102   7.4440803  32.6569117  39.0304261
   7.9728570  32.1461572  38.4174423   7.7069023  32.3411647  39.8949794
   6.1979037  24.4361050  54.1527079   5.5219674  24.3355179  54.8229454
   7.0206671  24.2800264  54.6163076   4.9401820  35.7427977  48.3884695
   5.4920128  35.9059599  49.1533780   5.2808013  36.3332415  47.7164720
   9.7912694  30.5689235  54.2433349  10.3352598  31.1819193  53.7488304
   9.2099539  31.1268813  54.7600362   8.0770207  33.6909953  45.3748377
   7.9521346  32.8899693  44.8659322   8.7349298  34.1856146  44.8862347
  10.1405115  31.4918973  47.0027927   9.1935451  31.3724324  46.9306254
  10.4887888  30.6041471  47.0854188   7.1451549  31.2871689  43.2032279
   6.9976511  30.3588397  43.3839849   7.9705042  31.3091780  42.7189355
  10.7485671  32.1100248  44.2897152  11.6732218  31.9043109  44.1521603
  10.5800974  31.8616649  45.1986494   1.8812284  22.0995240  44.7735141
   1.7356865  22.4135543  45.6659423   1.4037488  22.7180141  44.2206040
   5.5934798  19.5235128  46.8669158   5.3352576  20.4452199  46.8653489
   5.0619838  19.1265563  47.5569622  10.5380987  32.6285915  39.6459243
  10.7117864  32.0632338  38.8933096  11.0309878  33.4286810  39.4638733
  16.3920378  25.3922338  41.2649543  16.8351524  24.6429664  40.8668666
  15.5146888  25.3832475  40.8823275  11.5256159  31.9452680  36.7456142
  12.2207064  32.5659373  36.9643456  11.8679309  31.0948031  37.0208520
  13.4247582  29.3952385  38.2743473  13.9498906  29.7339658  37.5492793
  13.3369935  28.4599401  38.0906607   5.0867631  33.3086459  50.4033349
   5.3954757  33.0635606  51.2756049   5.8843113  33.5133098  49.9152219
   5.1088243  35.4624369  42.6338726   4.6693233  34.9700747  43.3271582
   5.8596360  34.9197336  42.3930801   2.5562115  31.0062378  44.7061027
   1.9342125  30.3433083  44.4063255   3.2266982  31.0323510  44.0234675
  13.1141488  30.0285289  53.5794670  12.3237032  30.0109428  53.0399170
  12.8774843  30.5673583  54.3343707  13.2339363  26.8777755  50.8927399
  13.2837368  26.7127763  51.8342922  13.1253287  26.0105014  50.5025280
   2.1175622  29.5566301  38.1819488   2.2663743  30.2401766  37.5286161
   2.9242066  29.5371391  38.6968944  10.5243126  22.8608683  52.2086706
  11.4252989  22.7215148  51.9170704  10.5991100  23.0263138  53.1484883
   4.8585931  20.2375538  51.0539892   3.9889241  20.5309104  50.7822481
   5.0945412  20.8215983  51.7747156  14.7357560  29.2974697  51.1369421
  14.4442369  29.6604678  51.9732882  14.1229692  28.5841705  50.9582753
  15.9353243  26.8627577  43.6571991  16.7700134  27.3017381  43.8209551
  16.0712371  26.3866230  42.8380237  12.9844749  24.4207312  49.6049479
  13.4598870  24.6134958  48.7968330  12.0610314  24.4766497  49.3592862
   7.5624965  16.4555155  48.5705312   8.0806909  17.1916182  48.2451801
   7.2080098  16.7619148  49.4052072   5.6171028  32.0514432  35.6531235
   5.0444995  32.6704619  35.2001707   6.1903821  32.6013793  36.1871157
  11.6846418  21.2973072  47.8377784  12.6363840  21.3971169  47.8590008
  11.5149868  20.5051340  48.3475869   9.7060797  18.3828655  48.0237185
   9.1110729  18.6633668  47.3283674   9.4210494  18.8722556  48.7953926
   8.8368287  32.3351582  36.7839818   9.7698961  32.2697143  36.9872693
   8.7491500  33.1707849  36.3254350  11.4656304  31.6517452  33.7443765
  11.3869936  31.3177316  34.6379523  12.2865971  32.1439220  33.7435238
  14.1634495  24.5179191  46.9520084  14.1310815  23.5795192  47.1379768
  14.7735119  24.5963228  46.2185909  14.3128984  21.3090235  46.9978367
  13.7968032  20.5248691  46.8108296  15.1968932  20.9808951  47.1624886
  11.9739711  15.0531250  42.9574180  11.7764532  14.7446339  43.8417512
  12.5839416  15.7792889  43.0872110  19.9811045  25.5795198  46.0926121
  20.7114434  25.3180486  46.6533824  19.3717991  24.8423920  46.1328189
  18.0626342  23.7203061  46.6900572  17.3359506  23.5859026  46.0817063
  17.6473629  24.0279889  47.4957290   5.8856519  27.4392990  54.4547945
   6.8059528  27.6171589  54.6487991   5.8506102  26.4949036  54.3027644
   3.7546457  20.9227231  56.4873475   3.6543183  21.8721588  56.4185566
   3.5367999  20.5945470  55.6149545   9.5595731  16.4445740  42.4170696
  10.0595509  16.5562275  41.6085014  10.2031339  16.1406793  43.0571504
   3.6177727  24.3524370  55.3038537   3.1344808  25.1524730  55.5102426
   3.7038666  24.3632315  54.3505981  13.2431579  19.2287294  42.9860063
  14.0191969  19.7183746  43.2584680  12.5179713  19.6545348  43.4431932
  15.6804137  19.9414913  44.0434003  16.2748628  19.7010649  43.3327312
  15.7530721  19.2222044  44.6707540   9.8658066  24.7195309  39.4856014
   9.8093268  25.1763860  38.6463646  10.4186409  23.9585993  39.3078856
  13.6762872  20.5085041  40.3106133  13.4199806  20.1081676  41.1414341
  13.0515740  21.2228835  40.1856272  17.9875210  23.2481114  42.8177425
  17.4274768  23.3174303  43.5908987  17.3818713  23.0722098  42.0976921
  10.9446953  29.4067977  35.4152204  11.7792557  28.9749175  35.2329678
  10.7831296  29.2349990  36.3429098  10.5992846  25.9100090  36.7808543
  10.5441649  25.7444361  35.8396987   9.9738901  26.6176123  36.9370733
   7.9138753  28.2149002  56.1062106   8.7829912  28.3889654  55.7448741
   7.4345504  29.0343419  55.9837835   2.0824933  35.3346103  47.7851539
   2.9852180  35.3669713  48.1018034   1.8562303  34.4046554  47.7997875
   3.8378535  34.0877089  44.4461618   2.8874166  34.0878951  44.3325990
   4.1411021  33.3409824  43.9297653  19.5731228  39.9237628  45.5107380
  20.2109638  39.8044375  44.8070720  19.4552071  40.8718472  45.5695332
  16.3820935  39.8765056  45.4468905  16.0439446  39.7606121  44.5589440
  17.2510703  39.4756221  45.4269911  12.2407750  41.7300532  41.4365796
  11.6772616  41.6390469  40.6682084  12.1260145  40.9100437  41.9168288
  16.8640718  41.0299908  51.4055111  16.8529358  40.6352706  50.5335614
  17.0261357  40.2965980  51.9988882   9.7872182  43.2251724  44.2750016
  10.5793474  42.8842549  43.8596316  10.0268832  43.3346699  45.1952170
  17.8207309  45.3971500  36.7480261  17.1695289  45.9825580  36.3614275
  18.6151672  45.9277695  36.8075298  11.7462936  42.4860637  37.1467395
  12.5193812  41.9389624  37.0080271  12.0988335  43.3504886  37.3581857
  13.5847979  43.8137019  50.3534295  13.2937845  44.7182650  50.2380961
  14.2204963  43.8553547  51.0678364  14.5104186  41.1913868  46.9435654
  15.1067758  40.9669890  46.2292617  14.5679157  40.4498613  47.5461102
  14.0829214  38.6453303  34.7785845  14.3354735  38.1234825  34.0169308
  13.1453773  38.4819449  34.8812529  19.1272497  37.6489082  42.5860588
  19.9135586  37.2308505  42.2351005  19.3911201  38.5535174  42.7542237
  19.2982574  43.0861932  37.2849245  18.6628407  43.1596558  37.9970150
  18.9679981  43.6755531  36.6068324  24.5280924  37.5864315  43.4893567
  25.2606096  37.0163532  43.7231396  23.7720280  37.1985915  43.9300072
  13.8025503  40.5481409  36.9810220  13.6861761  39.8726313  37.6491304
  13.9127763  40.0613783  36.1642373  16.1457044  40.0091556  40.6856909
  15.7815251  39.4822177  41.3969831  17.0024160  39.6190025  40.5123395
  22.0506344  31.2985889  47.9488175  21.7189669  32.1681300  47.7249390
  21.4551958  30.9822173  48.6282206  15.7862531  35.0381456  35.6818258
  15.9536933  35.9061692  36.0488729  15.5959700  35.2008738  34.7579547
  18.5437864  43.4998435  47.3484088  18.2438587  44.4023474  47.2399895
  18.1988923  43.2330618  48.2005241  11.9950345  39.9512232  43.3820793
  11.0700842  39.8188446  43.5898484  12.2434759  40.7306451  43.8790735
  21.9435008  36.0180975  45.0281526  21.0351885  35.9496384  44.7340286
  21.8922603  36.4952920  45.8563351  15.7651752  37.4939114  36.6664925
  15.6451377  37.9396164  37.5050405  15.0704340  37.8424431  36.1078463
   9.3559156  39.5945505  44.2164582   9.4851538  39.8479984  45.1303993
   8.6756608  40.1873213  43.8969237  13.5258644  50.2642755  40.3155056
  13.4482673  51.2150580  40.3943536  12.9220287  49.9188628  40.9729982
  16.0175873  37.4370621  52.9716423  15.2409208  37.9964541  52.9619287
  16.6566437  37.9227404  53.4931293  23.8096654  34.2197414  46.8059399
  23.1671034  34.5129947  46.1599194  23.3051583  34.1050334  47.6112596
  21.4636818  37.9660587  37.4945259  22.3754674  38.1987973  37.3192956
  20.9546465  38.5497631  36.9320337  14.2722246  40.2456074  52.5334390
  15.0136930  40.7841118  52.2569213  13.5659231  40.8722363  52.6905942
  19.7477585  42.3885215  51.1306551  20.1560941  41.9467625  50.3861184
  19.0254847  41.8137842  51.3840744  16.1008655  37.3257821  48.5040108
  16.9469851  37.7497235  48.6474757  16.0407293  36.6691446  49.1978671
  20.0706400  42.9486405  44.8858840  19.4415263  43.1132119  44.1834908
  19.6832062  43.3628015  45.6569804  23.9495632  43.8840843  42.2403204
  23.2646670  44.2639744  41.6900237  24.0339481  44.4936170  42.9735152
  19.2508101  34.9862190  50.1621282  19.0069033  35.7404250  49.6255558
  19.5268031  35.3647537  50.9968529  21.2046564  41.5300802  48.8398547
  21.4163459  42.1732562  48.1632929  21.1576312  40.6963119  48.3720478
  18.8072793  34.1418623  45.7435120  17.9457272  34.4399876  46.0351857
  18.8335227  34.3589022  44.8116152  15.6234362  42.6860813  42.1508925
  16.0872707  42.9648516  41.3613548  15.3591160  41.7844258  41.9682016
  12.5158443  42.2332295  45.0888689  13.0859800  42.6619563  44.4506173
  13.1066555  41.9514879  45.7872874  14.5603248  38.8083966  38.9598490
  15.2627291  39.2605009  39.4272417  14.2283877  38.1667784  39.5878384
  13.0083610  37.3995722  53.3349700  12.3782270  38.0812003  53.5685097
  12.9019697  37.2878804  52.3902838   8.3028582  37.0667518  44.2615624
   7.5127636  37.3225047  43.7855735   8.7939829  37.8815856  44.3667665
  22.3192392  44.4072757  47.0120905  23.1409835  44.0052945  46.7303586
  22.3154794  44.3040992  47.9637021  10.2543327  37.4312098  41.2199101
   9.4574491  37.5430792  41.7382596  10.0268920  37.7698750  40.3539991
  16.0848995  43.9556801  49.1681615  16.1493427  44.4177208  50.0039787
  15.3759919  43.3254166  49.2963925   6.5866285  37.3198009  46.6930615
   6.8374323  38.2045019  46.9588191   7.1225833  37.1402610  45.9205707
  30.4098385  40.7511506  43.3605876  29.6562093  40.1818904  43.2049881
  30.5445926  40.7174170  44.3076511  15.7997013  45.6224908  39.0360596
  15.6642687  46.4676444  39.4645443  16.3406825  45.8244186  38.2726529
  12.2864352  31.7016488  55.6974951  11.8931298  31.1482687  56.3722595
  13.1030493  32.0127067  56.0881468   9.2526410  43.1400346  39.6088521
   9.7650931  43.9343597  39.7594085   9.9049123  42.4426637  39.5422122
  11.0621295  46.2566103  41.6911274  11.2387923  47.1784067  41.5032258
  11.8578128  45.9424522  42.1205654  15.2032313  33.1174367  53.2895207
  15.9442027  33.7181520  53.2099670  15.4350236  32.3752005  52.7313250
  10.3473651  38.3030734  51.5673437  10.2327166  37.4015992  51.8680536
   9.4918169  38.5494431  51.2158254  17.4265489  46.2448475  53.1660938
  16.9829343  45.4584853  52.8481842  18.0882703  46.4327625  52.5004828
  12.1852610  47.7744276  47.6921616  12.7360035  47.6461340  46.9198610
  11.3464086  48.0739165  47.3416509  19.5246727  46.5251275  51.1942339
  19.5065202  47.3460156  50.7022608  20.4466647  46.4005350  51.4192480
  15.9819781  44.0395404  52.0365847  16.5148118  43.2783692  51.8065155
  15.4533862  43.7469056  52.7790002  19.1489476  29.1455470  47.5659489
  18.8053746  30.0357112  47.4898600  19.5168439  28.9557128  46.7029074
   7.2175327  41.4689001  40.3848091   8.0550549  41.8786009  40.1681799
   7.3953594  40.5288443  40.3548285  19.1139759  39.1364081  36.0731924
  18.5986382  39.9068686  36.3120312  18.8417067  38.4629217  36.6964986
  16.6986870  33.9813782  41.1317163  15.8428466  33.5920632  40.9522801
  17.1113822  34.0605743  40.2716948  18.2286017  31.5160125  45.5308722
  17.7250812  31.4790260  44.7176528  18.5216623  32.4252868  45.5905379
  14.4728902  31.5998855  44.5374904  15.3381899  31.4041664  44.1780794
  14.5406411  31.3709207  45.4644261  24.0874033  41.8896436  38.0085098
  23.3103476  41.5507595  37.5640260  24.7665514  41.8949059  37.3340063
  18.9026062  37.0091173  37.8991705  18.5976198  37.3237322  38.7501849
  19.8556504  37.0872593  37.9419038  17.3472494  43.1681397  39.5484659
  16.8193856  42.4334156  39.2357897  16.8459997  43.9456073  39.3024628
  22.3265340  41.3630417  44.6651706  21.6689014  42.0529679  44.7531834
  23.1305739  41.7526849  45.0085692  12.0791222  33.8301063  41.9091271
  12.6534973  33.6076244  41.1764464  12.6662204  33.8989757  42.6619872
  21.1370799  39.7174790  42.7155647  21.6502681  40.3504782  43.2177357
  21.7872023  39.1175985  42.3499007  12.4060809  35.8605524  35.9287156
  11.5698121  36.1980210  36.2496431  12.2665578  35.7254504  34.9914293
  14.3813889  30.7042312  40.6366340  13.7278302  30.3891329  40.0122955
  14.3394363  30.0818052  41.3626163  15.4925094  40.9861607  32.5519632
  14.5852156  40.7550860  32.7510781  15.9896126  40.1899226  32.7393614
  18.3993173  49.6959114  35.4716319  17.7254872  49.9990811  36.0801276
  18.7858995  50.4988194  35.1221776  17.6151630  37.1924245  44.9613988
  16.6974191  37.4139192  44.8035676  18.0311773  37.2670556  44.1025695
  18.3986677  38.5915661  40.0916668  19.1458496  39.1037058  39.7823790
  18.6678267  38.2699714  40.9521062  16.6713328  41.0874202  37.0743622
  15.7624547  40.8033235  37.1716092  16.7008411  41.5073280  36.2146929
  21.9032595  44.6980791  40.8434790  21.4494922  43.8571701  40.8999981
  21.2726562  45.3342190  41.1809570  20.8465515  35.6272777  42.0735457
  20.1088271  35.1150163  42.4045700  21.0992288  35.1873159  41.2618734
  20.3465534  46.5357288  41.7784608  20.6388509  47.0962345  41.0596974
  20.8564155  46.8285849  42.5337767  20.9477142  28.4049029  42.6677227
  21.2536019  27.5446393  42.3803142  21.6729747  28.9966649  42.4676221
   7.2401498  38.8079716  41.0558825   7.0425898  38.2149077  40.3309891
   6.6848162  38.5031926  41.7734763  15.2198222  38.7002822  43.1753418
  15.2746831  37.7476659  43.0995894  14.4089424  38.8562261  43.6594716
  16.3689415  42.6282945  34.4131701  15.9308845  41.9118804  33.9537338
  17.1099856  42.8559060  33.8516792  13.1590582  37.3179882  40.9343797
  12.3458447  37.6174053  41.3408989  13.6549576  36.9235571  41.6518279
  15.3099159  47.3137639  42.8678061  15.2675338  47.5398485  41.9386593
  16.2261858  47.0801014  43.0163863  18.7564793  37.7821707  49.7658691
  19.1114181  38.0093180  50.6253156  19.4036924  38.1140083  49.1435946
  24.4862530  40.9040142  40.4708020  24.3480429  41.0941738  39.5429209
  24.1298749  41.6659525  40.9276071  12.6504656  34.8898238  46.5505032
  13.2904036  34.7486997  45.8527995  11.8182187  34.6032751  46.1743634
  24.5131910  42.9716669  45.4819291  24.9468416  42.8791959  46.3302345
  25.2263490  42.9474170  44.8439307  13.4264960  44.1900668  42.6640024
  14.2205559  43.6950988  42.4622599  12.7156653  43.6618531  42.3007730
  18.2459805  46.5718764  47.0152392  18.2996827  47.1409700  47.7830108
  17.3774586  46.7420649  46.6506429   9.7347724  38.3343750  38.7399777
   8.8045312  38.2728205  38.9569739   9.8305196  37.8119703  37.9436418
   9.6533273  34.8598563  41.3278018   9.9140090  35.7743896  41.2187179
  10.4750445  34.3923005  41.4774631  11.1258198  36.2736320  48.4976843
  11.7981251  36.0653682  47.8489492  10.2987985  36.0758406  48.0582075
  25.3747459  43.0140370  48.0152177  25.5683349  43.9186181  48.2611451
  25.2748077  42.5547789  48.8490762  17.0283770  32.8998261  50.5142504
  16.3811685  33.5988210  50.4206980  17.7984785  33.3334405  50.8818752
  20.4362568  43.1647113  53.5893057  20.2848074  42.9357665  52.6723141
  20.4267247  44.1217714  53.6024402  17.2047904  40.7379026  48.5739324
  18.1339964  40.8890185  48.4008291  16.7838934  40.8263046  47.7187970
  16.0036236  44.7629690  46.3437861  15.8647322  44.3948474  47.2163799
  15.2150832  45.2777329  46.1721819  16.5984388  49.8638786  37.6863398
  16.7736144  49.3926830  38.5009020  15.9117176  50.4904553  37.9144658
  17.5541451  44.1411293  43.7326699  17.2191284  44.1012063  44.6284349
  17.0545397  43.4756009  43.2597109  11.5285695  39.5478923  49.2579280
  11.3905493  38.8159162  49.8590819  12.4390619  39.4587823  48.9763468
  20.4900643  41.4867327  34.0063759  19.8729814  40.7614155  33.9096811
  20.0217131  42.2476687  33.6630833  14.1567996  39.2598882  48.7462960
  14.8667614  38.6192074  48.7049578  14.1137304  39.5111777  49.6689141
  22.1454775  46.1966235  51.6669539  22.0867321  45.5125456  51.0000122
  22.5474293  46.9385225  51.2150165  12.8696930  36.2464100  50.5658599
  12.3334287  35.7954838  51.2180196  12.2813638  36.3810009  49.8229064
  11.1645473  53.0128149  44.4603258  11.4042072  53.6446673  45.1382276
  10.3214670  52.6616189  44.7468617  12.2799189  35.7052751  33.1285063
  11.4028655  35.5841552  32.7647310  12.7556942  34.9138830  32.8763952
  22.1472182  44.1605819  49.8983519  21.2598961  43.8231741  50.0209918
  22.7170733  43.4288851  50.1352284   3.8001329  40.4929911  43.2226570
   4.4872369  40.1791641  42.6347585   3.6449458  41.3971276  42.9493821
   8.6036051  35.3820108  47.6511594   8.5194240  34.7745777  46.9162004
   7.7818758  35.8729126  47.6521090  15.6773335  48.8207272  46.8644762
  15.6043507  49.6262243  47.3764066  15.2350728  49.0199238  46.0392783
  15.4663115  48.0579042  40.3747583  14.6830637  48.6000722  40.4685808
  16.1655860  48.5753021  40.7741825  18.7759765  33.8673671  43.0181789
  19.2728465  33.1143634  42.6982859  18.0046747  33.9037988  42.4524998
  26.6289522  39.5714037  44.6600080  26.6179399  40.4538752  44.2894013
  25.7606902  39.2185588  44.4654617  18.1372019  48.7194106  49.0202921
  18.8499991  49.3541571  48.9478822  17.6462047  48.8157972  48.2042922
  19.8589546  42.6245358  40.5920212  18.9245824  42.7446821  40.4224917
  20.0366214  41.7217825  40.3280222  15.3594734  36.0091054  42.7453473
  14.9892521  35.4562095  43.4334379  15.8553826  35.4049188  42.1928473
  23.2462097  38.4662678  41.1270246  23.7122549  39.2990669  41.0530549
  23.6969598  38.0007659  41.8315505  13.1883932  46.4688549  49.8408491
  13.8893392  47.1025032  49.9937886  12.7179047  46.8103281  49.0804131
  21.3138328  44.8106499  38.1256398  21.5898172  44.6963094  39.0350272
  20.4442827  44.4123984  38.0868571  21.2178760  30.8343265  45.1661148
  20.3041840  31.0647492  45.3343355  21.6471861  30.9181709  46.0175180
  20.9885218  39.0233157  47.6661042  20.3356669  39.2709064  47.0113494
  21.3665598  38.2097295  47.3323519  17.9492392  49.0592850  41.7689212
  18.1314787  48.2414506  42.2316964  18.7725378  49.2760542  41.3314102
  18.2834558  47.9861035  39.0304261  18.8122324  47.4753490  38.4174423
  18.5462777  47.6703565  39.8949794  17.0372791  39.7652968  54.1527079
  16.3613428  39.6647097  54.8229454  17.8600425  39.6092181  54.6163076
   8.7851650  46.0024904  46.7739594   9.3705087  45.2568592  46.9067498
   8.5876489  46.3128861  47.6576258  11.6390306  49.0376152  41.7902036
  10.9700681  49.5222279  41.3066076  11.5003175  49.2845372  42.7045415
   3.3769305  38.5730504  45.4944037   3.4153405  38.0394095  46.2881155
   2.8709598  38.0465710  44.8755014  15.7795574  51.0719895  48.3884695
  16.3313882  51.2351517  49.1533780  16.1201768  51.6624333  47.7164720
  10.7560067  33.4195045  48.9906579  10.8201394  34.2809876  48.5783977
  10.6927188  32.8069047  48.2578938  10.2312340  35.4918178  52.6379614
  10.8584379  35.1095255  53.2517138   9.3740259  35.2732379  53.0035306
  20.6306449  45.8981153  54.2433349  21.1746353  46.5111111  53.7488304
  20.0493293  46.4560731  54.7600362   7.0077883  37.2994607  38.5697969
   7.3031324  36.3905285  38.5165022   6.1065918  37.2782346  38.2478971
  18.9163961  49.0201871  45.3748377  18.7915101  48.2191611  44.8659322
  19.5743053  49.5148064  44.8862347  10.5372130  35.3750603  44.5525517
   9.8158715  35.9886571  44.4132990  11.3265385  35.9108368  44.4742163
  20.9798870  46.8210891  47.0027927  20.0329205  46.7016242  46.9306254
  21.3281643  45.9333389  47.0854188  13.3398443  32.7105030  50.8266169
  13.8632845  32.9567326  51.5892478  13.1210777  33.5425065  50.4069306
   8.7365724  34.9808704  38.6937294   8.4078430  34.1006083  38.5112400
   9.0905095  34.9256373  39.5813683  17.9845303  46.6163607  43.2032279
  17.8370266  45.6880314  43.3839849  18.8098797  46.6383698  42.7189355
  11.8507547  35.2681674  39.0612771  12.1903620  35.7967595  38.3391380
  12.2979668  35.6062080  39.8371338  21.5879425  47.4392166  44.2897152
  22.5125972  47.2335027  44.1521603  21.4194728  47.1908567  45.1986494
  14.5450988  33.6518725  48.5115839  14.2047809  32.8526538  48.9136519
  13.8389995  33.9520436  47.9392673  15.1967460  30.7368037  46.9643162
  16.0193529  30.2628515  46.8422053  15.4405524  31.5158521  47.4641849
  13.8375695  33.7656296  37.2606064  14.5584057  34.1437548  36.7569781
  13.2140999  34.4845172  37.3641042  17.9806817  34.4701445  38.1964397
  18.1970432  35.3526083  37.8953225  17.5000885  34.0787658  37.4670039
  12.7206039  37.4287158  44.7735141  12.5750620  37.7427461  45.6659423
  12.2431242  38.0472058  44.2206040  14.5802422  34.4189706  44.8216031
  14.5663991  33.5230799  44.4848329  15.2974850  34.4260370  45.4554317
  16.4328552  34.8527046  46.8669158  16.1746330  35.7744117  46.8653489
  15.9013593  34.4557481  47.5569622  21.3774741  47.9577833  39.6459243
  21.5511619  47.3924256  38.8933096  21.8703632  48.7578728  39.4638733
   7.1951701  39.9692502  47.7122802   6.6505169  40.7452310  47.8443077
   8.0731051  40.3163307  47.5541924  13.9839318  33.3004086  40.0903601
  14.1055229  32.3720732  40.2894488  13.6941360  33.3142772  39.1781916
  16.8530508  30.9858997  43.2270321  16.8752205  31.0498330  42.2722300
  17.2698567  30.1463505  43.4210827  27.2314132  40.7214256  41.2649543
  27.6745278  39.9721581  40.8668666  26.3540643  40.7124392  40.8823275
  22.3649914  47.2744598  36.7456142  23.0600818  47.8951290  36.9643456
  22.7073064  46.4239949  37.0208520   7.9817723  39.0962399  50.6052959
   7.2399459  39.2445034  51.1917590   7.6610467  39.3570664  49.7419709
  24.2641337  44.7244303  38.2743473  24.7892661  45.0631576  37.5492793
  24.1763689  43.7891318  38.0906607  15.9261386  48.6378377  50.4033349
  16.2348512  48.3927524  51.2756049  16.7236868  48.8425015  49.9152219
  15.9481998  50.7916286  42.6338726  15.5086988  50.2992665  43.3271582
  16.6990115  50.2489254  42.3930801   8.4274337  46.9827827  42.6363354
   9.2532356  46.6831599  42.2561997   8.0768389  46.2135450  43.0853142
  13.3955870  46.3354295  44.7061027  12.7735879  45.6725000  44.4063255
  14.0660737  46.3615427  44.0234675   6.6282942  44.9014154  43.5952287
   5.7914850  44.4736328  43.4136289   6.6006587  45.0946597  44.5323079
  13.4680397  34.8136083  54.2993533  13.5168553  35.6898206  53.9171303
  14.0102911  34.2713477  53.7265177  23.9535243  45.3577207  53.5794670
  23.1630787  45.3401346  53.0399170  23.7168597  45.8965500  54.3343707
  24.0733118  42.2069673  50.8927399  24.1231123  42.0419681  51.8342922
  23.9647041  41.3396932  50.5025280  12.9569377  44.8858219  38.1819488
  13.1057497  45.5693683  37.5286161  13.7635820  44.8663309  38.6968944
  21.3636880  38.1900601  52.2086706  22.2646743  38.0507066  51.9170704
  21.4384855  38.3555056  53.1484883  15.6979686  35.5667456  51.0539892
  14.8282995  35.8601022  50.7822481  15.9339166  36.1507901  51.7747156
  25.5751315  44.6266615  51.1369421  25.2836123  44.9896595  51.9732882
  24.9623446  43.9133623  50.9582753  26.7746997  42.1919494  43.6571991
  27.6093888  42.6309298  43.8209551  26.9106126  41.7158148  42.8380237
  23.8238503  39.7499229  49.6049479  24.2992625  39.9426876  48.7968330
  22.9004068  39.8058415  49.3592862  10.7122010  40.9123396  39.1880557
  10.4668052  40.0085726  39.3860767  10.8817924  40.9140547  38.2460035
  18.4018720  31.7847073  48.5705312  18.9200663  32.5208100  48.2451801
  18.0473852  32.0911066  49.4052072   9.9817657  36.6451754  36.6866718
   9.2886902  36.7196109  36.0306754   9.7369409  35.8812098  37.2088235
  18.6531314  28.2047355  44.0906209  18.9333067  27.5370544  44.7166636
  19.4381921  28.3976451  43.5780873  16.4564782  47.3806349  35.6531235
  15.8838749  47.9996536  35.2001707  17.0297576  47.9305711  36.1871157
  22.5240172  36.6264989  47.8377784  23.4757595  36.7263087  47.8590008
  22.3543622  35.8343258  48.3475869  20.5454551  33.7120573  48.0237185
  19.9504484  33.9925585  47.3283674  20.2604248  34.2014473  48.7953926
  19.6762042  47.6643499  36.7839818  20.6092715  47.5989061  36.9872693
  19.5885255  48.4999766  36.3254350  22.3050059  46.9809370  33.7443765
  22.2263690  46.6469233  34.6379523  23.1259725  47.4731138  33.7435238
  25.0028250  39.8471109  46.9520084  24.9704570  38.9087110  47.1379768
  25.6128873  39.9255146  46.2185909  16.8411581  38.7167162  32.9947288
  17.7870685  38.5873370  33.0635706  16.4625826  37.9781824  33.4716716
  25.1522738  36.6382152  46.9978367  24.6361787  35.8540609  46.8108296
  26.0362687  36.3100869  47.1624886  22.8133465  30.3823168  42.9574180
  22.6158286  30.0738256  43.8417512  23.4233171  31.1084807  43.0872110
  30.8204800  40.9087116  46.0926121  31.5508188  40.6472404  46.6533824
  30.2111745  40.1715838  46.1328189  28.9020097  39.0494978  46.6900572
  28.1753260  38.9150943  46.0817063  28.4867384  39.3571807  47.4957290
  16.7250273  42.7684908  54.4547945  17.6453283  42.9463507  54.6487991
  16.6899856  41.8240953  54.3027644  15.0254498  36.6417138  32.9302173
  14.1185953  36.3450251  33.0064887  15.3030479  36.3446956  32.0636459
   5.9432438  37.9623502  43.3801219   5.6235223  37.1088810  43.0875593
   5.3965866  38.1772080  44.1359187   9.7212346  40.6785943  47.0970726
   9.9398356  41.6103051  47.1158760  10.1338120  40.3193917  47.8825530
  16.6416564  31.1854028  39.0846414  15.8317292  30.8401113  39.4601660
  17.3300980  30.8761572  39.6734026  18.5707112  30.2632075  40.7070711
  19.1238150  30.6827528  41.3660734  18.8077198  29.3367823  40.7493667
  14.5940211  36.2519149  56.4873475  14.4936938  37.2013506  56.4185566
  14.3761753  35.9237387  55.6149545  13.7953282  33.5004074  33.0714152
  14.6572446  33.8258972  33.3309970  13.9803627  32.7135570  32.5587218
   5.8120698  41.5826413  45.3494341   5.1184170  41.1680366  44.8364295
   6.5593689  41.6246950  44.7527760  21.9485919  32.3732600  40.2149375
  21.3684588  33.0317404  39.8327428  21.6821852  31.5509945  39.8036793
  20.3989485  31.7737658  42.4170696  20.8989264  31.8854192  41.6085014
  21.0425093  31.4698711  43.0571504  14.4571481  39.6816287  55.3038537
  13.9738563  40.4816648  55.5102426  14.5432420  39.6924232  54.3505981
   7.7257441  41.5144667  43.2260356   7.7028129  41.6132354  42.2742239
   8.0358077  42.3609818  43.5477522  10.3844819  43.5720822  47.3406970
  11.3388072  43.5404764  47.2736902  10.1857342  43.1111446  48.1557196
  10.9744201  42.1421938  49.9077768  11.7937090  42.6366017  49.9312605
  11.2481008  41.2253906  49.8795336  20.7310797  34.5332690  39.2705724
  19.8436652  34.8182341  39.0525918  21.1464786  34.3726454  38.4233000
  24.0825333  34.5579211  42.9860063  24.8585723  35.0475664  43.2584680
  23.3573467  34.9837266  43.4431932  26.5197892  35.2706831  44.0434003
  27.1142383  35.0302567  43.3327312  26.5924475  34.5513961  44.6707540
   8.7395047  49.1140442  44.3577168   8.6049515  48.3540842  43.7915166
   8.3227110  49.8381341  43.8905957  19.8754010  44.2977365  33.3653744
  20.5789861  44.5027368  33.9811399  19.1516659  44.8654127  33.6302827
  20.7051821  40.0487226  39.4856014  20.6487022  40.5055778  38.6463646
  21.2580163  39.2877911  39.3078856  24.5156627  35.8376958  40.3106133
  24.2593561  35.4373594  41.1414341  23.8909495  36.5520752  40.1856272
  28.8268964  38.5773032  42.8177425  28.2668522  38.6466221  43.5908987
  28.2212468  38.4014016  42.0976921  11.8964173  50.0109759  44.5695611
  11.7796557  50.9555191  44.4674301  11.0756620  49.7083320  44.9581410
  21.7840708  44.7359894  35.4152204  22.6186312  44.3041093  35.2329678
  21.6225051  44.5641908  36.3429098  21.4386600  41.2392008  36.7808543
  21.3835404  41.0736279  35.8396987  20.8132655  41.9468041  36.9370733
   6.2279115  36.4760072  50.6069965   6.8737979  35.9659026  51.0957190
   6.0196266  37.2128754  51.1813390  18.7532507  43.5440920  56.1062106
  19.6223667  43.7181572  55.7448741  18.2739259  44.3635336  55.9837835
  14.7482725  30.7400117  36.3593861  14.7361395  31.6841957  36.5162132
  15.6406147  30.5570262  36.0653322  12.9218687  50.6638021  47.7851539
  13.8245934  50.6961631  48.1018034  12.6956057  49.7338471  47.7997875
  14.6772289  49.4169007  44.4461618  13.7267920  49.4170869  44.3325990
  14.9804776  48.6701742  43.9297653  18.5634845  27.3342893  40.6139798
  17.7967241  26.7801380  40.7596480  18.9745550  27.4064762  41.4753950
  10.5676606  33.6227689  54.7044979  11.4308068  33.2664494  54.9148304
   9.9942017  33.2841584  55.3920384  30.4124983  55.2529545  45.5107380
  31.0503393  55.1336293  44.8070720  30.2945826  56.2010389  45.5695332
  27.2214689  55.2056974  45.4468905  26.8833201  55.0898038  44.5589440
  28.0904457  54.8048139  45.4269911  23.0801505  57.0592450  41.4365796
  22.5166370  56.9682387  40.6682084  22.9653900  56.2392354  41.9168288
  27.7034472  56.3591825  51.4055111  27.6923113  55.9644624  50.5335614
  27.8655112  55.6257898  51.9988882  20.6265937  58.5543642  44.2750016
  21.4187229  58.2134466  43.8596316  20.8662587  58.6638617  45.1952170
  28.6601064  60.7263418  36.7480261  28.0089043  61.3117498  36.3614275
  29.4545426  61.2569613  36.8075298  22.5856691  57.8152555  37.1467395
  23.3587567  57.2681542  37.0080271  22.9382090  58.6796804  37.3581857
  24.4241733  59.1428937  50.3534295  24.1331599  60.0474568  50.2380961
  25.0598718  59.1845465  51.0678364  25.3497940  56.5205786  46.9435654
  25.9461512  56.2961808  46.2292617  25.4072912  55.7790531  47.5461102
  24.9222969  53.9745221  34.7785845  25.1748489  53.4526742  34.0169308
  23.9847528  53.8111366  34.8812529  29.9666251  52.9780999  42.5860588
  30.7529341  52.5600422  42.2351005  30.2304956  53.8827091  42.7542237
  30.1376329  58.4153850  37.2849245  29.5022162  58.4888476  37.9970150
  29.8073735  59.0047448  36.6068324  35.3674679  52.9156232  43.4893567
  36.0999850  52.3455449  43.7231396  34.6114034  52.5277833  43.9300072
  24.6419257  55.8773327  36.9810220  24.5255515  55.2018230  37.6491304
  24.7521517  55.3905701  36.1642373  26.9850798  55.3383474  40.6856909
  26.6209005  54.8114095  41.3969831  27.8417914  54.9481943  40.5123395
  32.8900099  46.6277807  47.9488175  32.5583424  47.4973218  47.7249390
  32.2945712  46.3114091  48.6282206  26.6256285  50.3673374  35.6818258
  26.7930688  51.2353610  36.0488729  26.4353454  50.5300655  34.7579547
  29.3831618  58.8290353  47.3484088  29.0832341  59.7315391  47.2399895
  29.0382678  58.5622536  48.2005241  22.8344100  55.2804149  43.3820793
  21.9094596  55.1480364  43.5898484  23.0828513  56.0598369  43.8790735
  32.7828762  51.3472893  45.0281526  31.8745640  51.2788301  44.7340286
  32.7316358  51.8244838  45.8563351  26.6045506  52.8231031  36.6664925
  26.4845131  53.2688082  37.5050405  25.9098094  53.1716349  36.1078463
  20.1952911  54.9237423  44.2164582  20.3245292  55.1771902  45.1303993
  19.5150362  55.5165131  43.8969237  24.3652398  65.5934673  40.3155056
  24.2876428  66.5442498  40.3943536  23.7614042  65.2480545  40.9729982
  26.8569628  52.7662538  52.9716423  26.0802962  53.3256459  52.9619287
  27.4960191  53.2519321  53.4931293  34.6490409  49.5489331  46.8059399
  34.0064789  49.8421864  46.1599194  34.1445337  49.4342252  47.6112596
  32.3030572  53.2952504  37.4945259  33.2148428  53.5279891  37.3192956
  31.7940219  53.8789549  36.9320337  25.1116000  55.5747992  52.5334390
  25.8530685  56.1133036  52.2569213  24.4052986  56.2014280  52.6905942
  30.5871340  57.7177132  51.1306551  30.9954696  57.2759543  50.3861184
  29.8648601  57.1429760  51.3840744  26.9402410  52.6549739  48.5040108
  27.7863605  53.0789153  48.6474757  26.8801048  51.9983363  49.1978671
  30.9100155  58.2778323  44.8858840  30.2809017  58.4424037  44.1834908
  30.5225817  58.6919932  45.6569804  34.7889386  59.2132761  42.2403204
  34.1040425  59.5931662  41.6900237  34.8733236  59.8228087  42.9735152
  30.0901855  50.3154107  50.1621282  29.8462787  51.0696168  49.6255558
  30.3661786  50.6939455  50.9968529  32.0440318  56.8592720  48.8398547
  32.2557213  57.5024480  48.1632929  31.9970066  56.0255036  48.3720478
  29.6466547  49.4710540  45.7435120  28.7851026  49.7691794  46.0351857
  29.6728982  49.6880939  44.8116152  26.4628116  58.0152731  42.1508925
  26.9266462  58.2940434  41.3613548  26.1984915  57.1136175  41.9682016
  23.3552198  57.5624212  45.0888689  23.9253555  57.9911481  44.4506173
  23.9460309  57.2806797  45.7872874  25.3997003  54.1375883  38.9598490
  26.1021046  54.5896927  39.4272417  25.0677631  53.4959702  39.5878384
  23.8477364  52.7287640  53.3349700  23.2176025  53.4103921  53.5685097
  23.7413452  52.6170722  52.3902838  19.1422336  52.3959436  44.2615624
  18.3521390  52.6516964  43.7855735  19.6333584  53.2107774  44.3667665
  33.1586146  59.7364675  47.0120905  33.9803590  59.3344862  46.7303586
  33.1548549  59.6332909  47.9637021  21.0937082  52.7604015  41.2199101
  20.2968245  52.8722709  41.7382596  20.8662674  53.0990667  40.3539991
  26.9242749  59.2848718  49.1681615  26.9887182  59.7469126  50.0039787
  26.2153673  58.6546083  49.2963925  17.4260039  52.6489926  46.6930615
  17.6768078  53.5336936  46.9588191  17.9619588  52.4694528  45.9205707
  41.2492139  56.0803424  43.3605876  40.4955847  55.5110822  43.2049881
  41.3839680  56.0466088  44.3076511  26.6390767  60.9516826  39.0360596
  26.5036442  61.7968362  39.4645443  27.1800580  61.1536104  38.2726529
  23.1258107  47.0308406  55.6974951  22.7325052  46.4774604  56.3722595
  23.9424247  47.3418984  56.0881468  20.0920165  58.4692264  39.6088521
  20.6044685  59.2635514  39.7594085  20.7442877  57.7718554  39.5422122
  21.9015049  61.5858020  41.6911274  22.0781678  62.5075985  41.5032258
  22.6971883  61.2716439  42.1205654  26.0426068  48.4466285  53.2895207
  26.7835781  49.0473438  53.2099670  26.2743991  47.7043923  52.7313250
  21.1867406  53.6322652  51.5673437  21.0720921  52.7307909  51.8680536
  20.3311924  53.8786349  51.2158254  28.2659244  61.5740392  53.1660938
  27.8223098  60.7876771  52.8481842  28.9276457  61.7619543  52.5004828
  23.0246365  63.1036194  47.6921616  23.5753790  62.9753257  46.9198610
  22.1857841  63.4031083  47.3416509  30.3640482  61.8543192  51.1942339
  30.3458957  62.6752073  50.7022608  31.2860402  61.7297268  51.4192480
  26.8213536  59.3687322  52.0365847  27.3541873  58.6075610  51.8065155
  26.2927617  59.0760974  52.7790002  29.9883231  44.4747388  47.5659489
  29.6447500  45.3649029  47.4898600  30.3562193  44.2849045  46.7029074
  18.0569081  56.7980918  40.3848091  18.8944303  57.2077927  40.1681799
  18.2347349  55.8580360  40.3548285  29.9533513  54.4655999  36.0731924
  29.4380137  55.2360604  36.3120312  29.6810822  53.7921135  36.6964986
  27.5380624  49.3105700  41.1317163  26.6822221  48.9212550  40.9522801
  27.9507576  49.3897660  40.2716948  29.0679771  46.8452043  45.5308722
  28.5644567  46.8082178  44.7176528  29.3610378  47.7544786  45.5905379
  25.3122657  46.9290773  44.5374904  26.1775654  46.7333581  44.1780794
  25.3800166  46.7001124  45.4644261  34.9267788  57.2188354  38.0085098
  34.1497230  56.8799513  37.5640260  35.6059269  57.2240977  37.3340063
  29.7419817  52.3383091  37.8991705  29.4369952  52.6529240  38.7501849
  30.6950259  52.4164511  37.9419038  28.1866248  58.4973314  39.5484659
  27.6587610  57.7626074  39.2357897  27.6853751  59.2747991  39.3024628
  33.1659094  56.6922335  44.6651706  32.5082769  57.3821596  44.7531834
  33.9699494  57.0818767  45.0085692  22.9184976  49.1592981  41.9091271
  23.4928728  48.9368162  41.1764464  23.5055958  49.2281675  42.6619872
  31.9764553  55.0466707  42.7155647  32.4896435  55.6796699  43.2177357
  32.6265777  54.4467903  42.3499007  23.2454563  51.1897442  35.9287156
  22.4091875  51.5272128  36.2496431  23.1059333  51.0546421  34.9914293
  25.2207644  46.0334229  40.6366340  24.5672056  45.7183247  40.0122955
  25.1788118  45.4109970  41.3626163  26.3318849  56.3153525  32.5519632
  25.4245910  56.0842778  32.7510781  26.8289881  55.5191144  32.7393614
  29.2386927  65.0251032  35.4716319  28.5648626  65.3282729  36.0801276
  29.6252749  65.8280112  35.1221776  28.4545384  52.5216163  44.9613988
  27.5367945  52.7431110  44.8035676  28.8705528  52.5962474  44.1025695
  29.2380432  53.9207579  40.0916668  29.9852251  54.4328976  39.7823790
  29.5072021  53.5991631  40.9521062  27.5107082  56.4166119  37.0743622
  26.6018301  56.1325152  37.1716092  27.5402166  56.8365198  36.2146929
  32.7426349  60.0272709  40.8434790  32.2888677  59.1863619  40.8999981
  32.1120316  60.6634107  41.1809570  31.6859269  50.9564695  42.0735457
  30.9482026  50.4442081  42.4045700  31.9386043  50.5165077  41.2618734
  31.1859289  61.8649206  41.7784608  31.4782263  62.4254263  41.0596974
  31.6957909  62.1577767  42.5337767  31.7870896  43.7340947  42.6677227
  32.0929773  42.8738310  42.3803142  32.5123501  44.3258567  42.4676221
  18.0795252  54.1371634  41.0558825  17.8819652  53.5440994  40.3309891
  17.5241916  53.8323844  41.7734763  26.0591976  54.0294740  43.1753418
  26.1140586  53.0768576  43.0995894  25.2483178  54.1854179  43.6594716
  27.2083170  57.9574863  34.4131701  26.7702600  57.2410722  33.9537338
  27.9493611  58.1850978  33.8516792  23.9984336  52.6471800  40.9343797
  23.1852202  52.9465970  41.3408989  24.4943330  52.2527489  41.6518279
  26.1492914  62.6429557  42.8678061  26.1069093  62.8690403  41.9386593
  27.0655613  62.4092931  43.0163863  29.5958548  53.1113624  49.7658691
  29.9507935  53.3385097  50.6253156  30.2430679  53.4432001  49.1435946
  35.3256285  56.2332060  40.4708020  35.1874183  56.4233656  39.5429209
  34.9692503  56.9951443  40.9276071  23.4898411  50.2190155  46.5505032
  24.1297790  50.0778914  45.8527995  22.6575941  49.9324669  46.1743634
  35.3525664  58.3008587  45.4819291  35.7862171  58.2083876  46.3302345
  36.0657245  58.2766088  44.8439307  24.2658715  59.5192586  42.6640024
  25.0599313  59.0242906  42.4622599  23.5550407  58.9910449  42.3007730
  29.0853559  61.9010681  47.0152392  29.1390581  62.4701618  47.7830108
  28.2168341  62.0712566  46.6506429  20.5741478  53.6635667  38.7399777
  19.6439066  53.6020123  38.9569739  20.6698950  53.1411620  37.9436418
  20.4927027  50.1890480  41.3278018  20.7533844  51.1035814  41.2187179
  21.3144200  49.7214923  41.4774631  21.9651953  51.6028237  48.4976843
  22.6375006  51.3945600  47.8489492  21.1381739  51.4050323  48.0582075
  36.2141214  58.3432288  48.0152177  36.4077104  59.2478098  48.2611451
  36.1141832  57.8839707  48.8490762  27.8677525  48.2290178  50.5142504
  27.2205440  48.9280128  50.4206980  28.6378540  48.6626322  50.8818752
  31.2756322  58.4939031  53.5893057  31.1241829  58.2649582  52.6723141
  31.2661002  59.4509632  53.6024402  28.0441659  56.0670943  48.5739324
  28.9733719  56.2182103  48.4008291  27.6232689  56.1554964  47.7187970
  26.8429991  60.0921608  46.3437861  26.7041076  59.7240392  47.2163799
  26.0544587  60.6069247  46.1721819  27.4378143  65.1930704  37.6863398
  27.6129898  64.7218747  38.5009020  26.7510931  65.8196470  37.9144658
  28.3935206  59.4703210  43.7326699  28.0585038  59.4303980  44.6284349
  27.8939151  58.8047926  43.2597109  22.3679450  54.8770840  49.2579280
  22.2299248  54.1451079  49.8590819  23.2784373  54.7879741  48.9763468
  31.3294397  56.8159245  34.0063759  30.7123568  56.0906073  33.9096811
  30.8610886  57.5768605  33.6630833  24.9961750  54.5890800  48.7462960
  25.7061369  53.9483992  48.7049578  24.9531059  54.8403695  49.6689141
  32.9848529  61.5258153  51.6669539  32.9261075  60.8417373  51.0000122
  33.3868047  62.2677143  51.2150165  23.7090684  51.5756018  50.5658599
  23.1728041  51.1246756  51.2180196  23.1207393  51.7101926  49.8229064
  22.0039228  68.3420067  44.4603258  22.2435826  68.9738591  45.1382276
  21.1608424  67.9908107  44.7468617  23.1192943  51.0344669  33.1285063
  22.2422410  50.9133470  32.7647310  23.5950696  50.2430747  32.8763952
  32.9865936  59.4897737  49.8983519  32.0992715  59.1523659  50.0209918
  33.5564487  58.7580768  50.1352284  14.6395084  55.8221829  43.2226570
  15.3266123  55.5083559  42.6347585  14.4843212  56.7263193  42.9493821
  19.4429806  50.7112025  47.6511594  19.3587994  50.1037695  46.9162004
  18.6212512  51.2021044  47.6521090  26.5167090  64.1499189  46.8644762
  26.4437261  64.9554161  47.3764066  26.0744483  64.3491155  46.0392783
  26.3056869  63.3870959  40.3747583  25.5224391  63.9292640  40.4685808
  27.0049615  63.9044939  40.7741825  29.6153520  49.1965589  43.0181789
  30.1122219  48.4435551  42.6982859  28.8440501  49.2329906  42.4524998
  37.4683277  54.9005954  44.6600080  37.4573153  55.7830670  44.2894013
  36.6000656  54.5477505  44.4654617  28.9765773  64.0486023  49.0202921
  29.6893746  64.6833488  48.9478822  28.4855802  64.1449889  48.2042922
  30.6983300  57.9537276  40.5920212  29.7639579  58.0738739  40.4224917
  30.8759969  57.0509743  40.3280222  26.1988488  51.3382972  42.7453473
  25.8286276  50.7854012  43.4334379  26.6947581  50.7341105  42.1928473
  34.0855852  53.7954595  41.1270246  34.5516304  54.6282587  41.0530549
  34.5363352  53.3299577  41.8315505  24.0277687  61.7980467  49.8408491
  24.7287146  62.4316950  49.9937886  23.5572802  62.1395198  49.0804131
  32.1532083  60.1398417  38.1256398  32.4291927  60.0255011  39.0350272
  31.2836581  59.7415902  38.0868571  32.0572514  46.1635182  45.1661148
  31.1435594  46.3939409  45.3343355  32.4865616  46.2473626  46.0175180
  31.8278973  54.3525074  47.6661042  31.1750423  54.6000982  47.0113494
  32.2059353  53.5389213  47.3323519  28.7886147  64.3884768  41.7689212
  28.9708541  63.5706423  42.2316964  29.6119133  64.6052460  41.3314102
  29.1228312  63.3152953  39.0304261  29.6516079  62.8045407  38.4174423
  29.3856532  62.9995483  39.8949794  27.8766546  55.0944885  54.1527079
  27.2007183  54.9939015  54.8229454  28.6994180  54.9384099  54.6163076
  19.6245405  61.3316822  46.7739594  20.2098842  60.5860510  46.9067498
  19.4270243  61.6420779  47.6576258  22.4784060  64.3668069  41.7902036
  21.8094435  64.8514197  41.3066076  22.3396930  64.6137290  42.7045415
  14.2163060  53.9022422  45.4944037  14.2547159  53.3686013  46.2881155
  13.7103352  53.3757628  44.8755014  26.6189329  66.4011813  48.3884695
  27.1707637  66.5643434  49.1533780  26.9595522  66.9916251  47.7164720
  21.5953822  48.7486963  48.9906579  21.6595148  49.6101794  48.5783977
  21.5320942  48.1360964  48.2578938  21.0706094  50.8210095  52.6379614
  21.6978133  50.4387173  53.2517138  20.2134013  50.6024297  53.0035306
  31.4700203  61.2273070  54.2433349  32.0140107  61.8403029  53.7488304
  30.8887048  61.7852649  54.7600362  17.8471637  52.6286524  38.5697969
  18.1425078  51.7197203  38.5165022  16.9459673  52.6074264  38.2478971
  29.7557716  64.3493788  45.3748377  29.6308855  63.5483528  44.8659322
  30.4136807  64.8439982  44.8862347  21.3765884  50.7042521  44.5525517
  20.6552470  51.3178489  44.4132990  22.1659140  51.2400286  44.4742163
  31.8192624  62.1502808  47.0027927  30.8722960  62.0308160  46.9306254
  32.1675397  61.2625306  47.0854188  24.1792198  48.0396947  50.8266169
  24.7026600  48.2859244  51.5892478  23.9604531  48.8716982  50.4069306
  19.5759479  50.3100622  38.6937294  19.2472185  49.4298001  38.5112400
  19.9298849  50.2548291  39.5813683  28.8239058  61.9455525  43.2032279
  28.6764020  61.0172232  43.3839849  29.6492551  61.9675615  42.7189355
  22.6901302  50.5973592  39.0612771  23.0297374  51.1259513  38.3391380
  23.1373422  50.9353998  39.8371338  32.4273180  62.7684083  44.2897152
  33.3519727  62.5626945  44.1521603  32.2588483  62.5200485  45.1986494
  25.3844743  48.9810642  48.5115839  25.0441563  48.1818456  48.9136519
  24.6783749  49.2812353  47.9392673  26.0361215  46.0659955  46.9643162
  26.8587284  45.5920433  46.8422053  26.2799278  46.8450439  47.4641849
  24.6769449  49.0948213  37.2606064  25.3977812  49.4729466  36.7569781
  24.0534753  49.8137090  37.3641042  28.8200572  49.7993362  38.1964397
  29.0364186  50.6818000  37.8953225  28.3394639  49.4079576  37.4670039
  23.5599793  52.7579076  44.7735141  23.4144374  53.0719379  45.6659423
  23.0824997  53.3763976  44.2206040  25.4196176  49.7481624  44.8216031
  25.4057745  48.8522717  44.4848329  26.1368604  49.7552287  45.4554317
  27.2722307  50.1818964  46.8669158  27.0140085  51.1036034  46.8653489
  26.7407347  49.7849398  47.5569622  32.2168496  63.2869751  39.6459243
  32.3905373  62.7216173  38.8933096  32.7097387  64.0870646  39.4638733
  18.0345456  55.2984420  47.7122802  17.4898924  56.0744228  47.8443077
  18.9124805  55.6455224  47.5541924  24.8233072  48.6296004  40.0903601
  24.9448983  47.7012650  40.2894488  24.5335115  48.6434690  39.1781916
  27.6924263  46.3150914  43.2270321  27.7145959  46.3790247  42.2722300
  28.1092322  45.4755423  43.4210827  38.0707887  56.0506174  41.2649543
  38.5139033  55.3013499  40.8668666  37.1934397  56.0416310  40.8823275
  33.2043668  62.6036515  36.7456142  33.8994573  63.2243208  36.9643456
  33.5466818  61.7531866  37.0208520  18.8211477  54.4254316  50.6052959
  18.0793213  54.5736952  51.1917590  18.5004222  54.6862582  49.7419709
  35.1035091  60.0536221  38.2743473  35.6286415  60.3923494  37.5492793
  35.0157444  59.1183236  38.0906607  26.7655140  63.9670294  50.4033349
  27.0742266  63.7219441  51.2756049  27.5630622  64.1716933  49.9152219
  26.7875752  66.1208204  42.6338726  26.3480742  65.6284583  43.3271582
  27.5383869  65.5781172  42.3930801  19.2668091  62.3119745  42.6363354
  20.0926111  62.0123517  42.2561997  18.9162143  61.5427367  43.0853142
  24.2349624  61.6646213  44.7061027  23.6129634  61.0016918  44.4063255
  24.9054491  61.6907345  44.0234675  17.4676696  60.2306071  43.5952287
  16.6308604  59.8028246  43.4136289  17.4400342  60.4238515  44.5323079
  24.3074152  50.1428001  54.2993533  24.3562307  51.0190124  53.9171303
  24.8496666  49.6005394  53.7265177  34.7928997  60.6869124  53.5794670
  34.0024541  60.6693263  53.0399170  34.5562352  61.2257418  54.3343707
  34.9126872  57.5361591  50.8927399  34.9624877  57.3711598  51.8342922
  34.8040796  56.6688850  50.5025280  23.7963131  60.2150136  38.1819488
  23.9451252  60.8985601  37.5286161  24.6029575  60.1955227  38.6968944
  32.2030635  53.5192519  52.2086706  33.1040498  53.3798984  51.9170704
  32.2778609  53.6846974  53.1484883  26.5373440  50.8959374  51.0539892
  25.6676750  51.1892940  50.7822481  26.7732921  51.4799819  51.7747156
  36.4145069  59.9558532  51.1369421  36.1229878  60.3188513  51.9732882
  35.8017201  59.2425541  50.9582753  37.6140752  57.5211412  43.6571991
  38.4487643  57.9601216  43.8209551  37.7499880  57.0450065  42.8380237
  34.6632258  55.0791147  49.6049479  35.1386379  55.2718793  48.7968330
  33.7397823  55.1350333  49.3592862  21.5515764  56.2415314  39.1880557
  21.3061806  55.3377644  39.3860767  21.7211679  56.2432465  38.2460035
  29.2412474  47.1138991  48.5705312  29.7594418  47.8500017  48.2451801
  28.8867607  47.4202984  49.4052072  20.8211412  51.9743672  36.6866718
  20.1280657  52.0488027  36.0306754  20.5763164  51.2104015  37.2088235
  29.4925068  43.5339273  44.0906209  29.7726822  42.8662462  44.7166636
  30.2775675  43.7268369  43.5780873  27.2958537  62.7098267  35.6531235
  26.7232504  63.3288454  35.2001707  27.8691330  63.2597629  36.1871157
  33.3633927  51.9556907  47.8377784  34.3151349  52.0555005  47.8590008
  33.1937377  51.1635176  48.3475869  31.3848306  49.0412490  48.0237185
  30.7898238  49.3217503  47.3283674  31.0998003  49.5306391  48.7953926
  30.5155796  62.9935417  36.7839818  31.4486470  62.9280979  36.9872693
  30.4279009  63.8291684  36.3254350  33.1443813  62.3101287  33.7443765
  33.0657445  61.9761151  34.6379523  33.9653480  62.8023055  33.7435238
  35.8422004  55.1763027  46.9520084  35.8098324  54.2379027  47.1379768
  36.4522628  55.2547063  46.2185909  27.6805335  54.0459080  32.9947288
  28.6264440  53.9165288  33.0635706  27.3019580  53.3073742  33.4716716
  35.9916493  51.9674070  46.9978367  35.4755541  51.1832527  46.8108296
  36.8756441  51.6392787  47.1624886  33.6527220  45.7115086  42.9574180
  33.4552041  45.4030174  43.8417512  34.2626925  46.4376725  43.0872110
  41.6598554  56.2379034  46.0926121  42.3901943  55.9764322  46.6533824
  41.0505500  55.5007756  46.1328189  39.7413851  54.3786896  46.6900572
  39.0147015  54.2442861  46.0817063  39.3261138  54.6863725  47.4957290
  27.5644028  58.0976826  54.4547945  28.4847037  58.2755425  54.6487991
  27.5293611  57.1532871  54.3027644  25.8648252  51.9709056  32.9302173
  24.9579708  51.6742169  33.0064887  26.1424233  51.6738874  32.0636459
  16.7826193  53.2915419  43.3801219  16.4628977  52.4380728  43.0875593
  16.2359621  53.5063998  44.1359187  20.5606100  56.0077860  47.0970726
  20.7792110  56.9394968  47.1158760  20.9731874  55.6485835  47.8825530
  27.4810318  46.5145946  39.0846414  26.6711046  46.1693031  39.4601660
  28.1694735  46.2053490  39.6734026  29.4100866  45.5923993  40.7070711
  29.9631905  46.0119446  41.3660734  29.6470953  44.6659741  40.7493667
  25.4333966  51.5811066  56.4873475  25.3330692  52.5305423  56.4185566
  25.2155508  51.2529305  55.6149545  24.6347037  48.8295991  33.0714152
  25.4966201  49.1550890  33.3309970  24.8197381  48.0427487  32.5587218
  16.6514453  56.9118331  45.3494341  15.9577924  56.4972284  44.8364295
  17.3987444  56.9538867  44.7527760  32.7879673  47.7024518  40.2149375
  32.2078342  48.3609322  39.8327428  32.5215606  46.8801862  39.8036793
  31.2383240  47.1029575  42.4170696  31.7383018  47.2146110  41.6085014
  31.8818848  46.7990628  43.0571504  25.2965236  55.0108205  55.3038537
  24.8132317  55.8108565  55.5102426  25.3826175  55.0216150  54.3505981
  18.5651195  56.8436585  43.2260356  18.5421883  56.9424272  42.2742239
  18.8751832  57.6901736  43.5477522  21.2238573  58.9012740  47.3406970
  22.1781827  58.8696682  47.2736902  21.0251097  58.4403364  48.1557196
  21.8137955  57.4713856  49.9077768  22.6330844  57.9657935  49.9312605
  22.0874763  56.5545824  49.8795336  31.5704551  49.8624608  39.2705724
  30.6830406  50.1474259  39.0525918  31.9858541  49.7018372  38.4233000
  34.9219088  49.8871129  42.9860063  35.6979478  50.3767582  43.2584680
  34.1967222  50.3129183  43.4431932  37.3591646  50.5998748  44.0434003
  37.9536137  50.3594484  43.3327312  37.4318230  49.8805879  44.6707540
  19.5788802  64.4432359  44.3577168  19.4443270  63.6832760  43.7915166
  19.1620864  65.1673259  43.8905957  30.7147765  59.6269283  33.3653744
  31.4183615  59.8319285  33.9811399  29.9910414  60.1946045  33.6302827
  31.5445575  55.3779144  39.4856014  31.4880777  55.8347696  38.6463646
  32.0973918  54.6169829  39.3078856  35.3550381  51.1668876  40.3106133
  35.0987315  50.7665512  41.1414341  34.7303249  51.8812670  40.1856272
  39.6662719  53.9064949  42.8177425  39.1062277  53.9758139  43.5908987
  39.0606222  53.7305934  42.0976921  22.7357928  65.3401676  44.5695611
  22.6190312  66.2847109  44.4674301  21.9150374  65.0375238  44.9581410
  32.6234462  60.0651812  35.4152204  33.4580066  59.6333010  35.2329678
  32.4618805  59.8933826  36.3429098  32.2780354  56.5683925  36.7808543
  32.2229158  56.4028197  35.8396987  31.6526410  57.2759958  36.9370733
  17.0672869  51.8051990  50.6069965  17.7131733  51.2950944  51.0957190
  16.8590021  52.5420671  51.1813390  29.5926262  58.8732837  56.1062106
  30.4617421  59.0473489  55.7448741  29.1133013  59.6927254  55.9837835
  25.5876480  46.0692034  36.3593861  25.5755150  47.0133874  36.5162132
  26.4799902  45.8862180  36.0653322  23.7612442  65.9929938  47.7851539
  24.6639689  66.0253548  48.1018034  23.5349812  65.0630389  47.7997875
  25.5166044  64.7460925  44.4461618  24.5661675  64.7462786  44.3325990
  25.8198530  63.9993659  43.9297653  29.4028599  42.6634811  40.6139798
  28.6360995  42.1093298  40.7596480  29.8139304  42.7356680  41.4753950
  21.4070360  48.9519607  54.7044979  22.2701822  48.5956412  54.9148304
  20.8335771  48.6133502  55.3920384  41.2518737  70.5821463  45.5107380
  41.8897147  70.4628210  44.8070720  41.1339580  71.5302307  45.5695332
  38.0608444  70.5348891  45.4468905  37.7226955  70.4189956  44.5589440
  38.9298212  70.1340056  45.4269911  33.9195259  72.3884368  41.4365796
  33.3560125  72.2974305  40.6682084  33.8047654  71.5684272  41.9168288
  38.5428227  71.6883743  51.4055111  38.5316867  71.2936541  50.5335614
  38.7048866  70.9549816  51.9988882  31.4659691  73.8835559  44.2750016
  32.2580983  73.5426384  43.8596316  31.7056341  73.9930534  45.1952170
  39.4994818  76.0555335  36.7480261  38.8482798  76.6409416  36.3614275
  40.2939181  76.5861530  36.8075298  33.4250445  73.1444472  37.1467395
  34.1981321  72.5973460  37.0080271  33.7775844  74.0088722  37.3581857
  35.2635488  74.4720855  50.3534295  34.9725354  75.3766486  50.2380961
  35.8992472  74.5137382  51.0678364  36.1891695  71.8497703  46.9435654
  36.7855267  71.6253726  46.2292617  36.2466666  71.1082449  47.5461102
  35.7616723  69.3037139  34.7785845  36.0142244  68.7818660  34.0169308
  34.8241282  69.1403284  34.8812529  40.8060006  68.3072917  42.5860588
  41.5923095  67.8892340  42.2351005  41.0698710  69.2119009  42.7542237
  40.9770083  73.7445767  37.2849245  40.3415916  73.8180394  37.9970150
  40.6467490  74.3339366  36.6068324  46.2068433  68.2448150  43.4893567
  46.9393605  67.6747367  43.7231396  45.4507789  67.8569751  43.9300072
  35.4813012  71.2065245  36.9810220  35.3649270  70.5310148  37.6491304
  35.5915272  70.7197618  36.1642373  37.8244553  70.6675392  40.6856909
  37.4602760  70.1406013  41.3969831  38.6811669  70.2773861  40.5123395
  43.7293853  61.9569724  47.9488175  43.3977178  62.8265135  47.7249390
  43.1339467  61.6406008  48.6282206  37.4650040  65.6965291  35.6818258
  37.6324442  66.5645528  36.0488729  37.2747209  65.8592573  34.7579547
  40.2225373  74.1582270  47.3484088  39.9226096  75.0607309  47.2399895
  39.8776432  73.8914453  48.2005241  33.6737854  70.6096067  43.3820793
  32.7488351  70.4772281  43.5898484  33.9222268  71.3890286  43.8790735
  43.6222517  66.6764810  45.0281526  42.7139394  66.6080219  44.7340286
  43.5710112  67.1536755  45.8563351  37.4439261  68.1522949  36.6664925
  37.3238886  68.5980000  37.5050405  36.7491849  68.5008267  36.1078463
  31.0346665  70.2529341  44.2164582  31.1639047  70.5063820  45.1303993
  30.3544117  70.8457049  43.8969237  35.2046153  80.9226591  40.3155056
  35.1270182  81.8734416  40.3943536  34.6007796  80.5772463  40.9729982
  37.6963382  68.0954456  52.9716423  36.9196717  68.6548376  52.9619287
  38.3353946  68.5811239  53.4931293  45.4884163  64.8781249  46.8059399
  44.8458543  65.1713782  46.1599194  44.9839092  64.7634169  47.6112596
  43.1424327  68.6244422  37.4945259  44.0542183  68.8571809  37.3192956
  42.6333974  69.2081466  36.9320337  35.9509755  70.9039909  52.5334390
  36.6924439  71.4424953  52.2569213  35.2446740  71.5306198  52.6905942
  41.4265094  73.0469050  51.1306551  41.8348450  72.6051460  50.3861184
  40.7042356  72.4721677  51.3840744  37.7796164  67.9841657  48.5040108
  38.6257360  68.4081070  48.6474757  37.7194802  67.3275281  49.1978671
  41.7493909  73.6070240  44.8858840  41.1202771  73.7715955  44.1834908
  41.3619571  74.0211850  45.6569804  45.6283141  74.5424678  42.2403204
  44.9434179  74.9223580  41.6900237  45.7126990  75.1520005  42.9735152
  40.9295610  65.6446025  50.1621282  40.6856542  66.3988086  49.6255558
  41.2055540  66.0231373  50.9968529  42.8834073  72.1884637  48.8398547
  43.0950968  72.8316397  48.1632929  42.8363821  71.3546954  48.3720478
  40.4860302  64.8002458  45.7435120  39.6244781  65.0983712  46.0351857
  40.5122736  65.0172857  44.8116152  37.3021871  73.3444649  42.1508925
  37.7660216  73.6232352  41.3613548  37.0378669  72.4428093  41.9682016
  34.1945952  72.8916130  45.0888689  34.7647309  73.3203398  44.4506173
  34.7854064  72.6098715  45.7872874  36.2390757  69.4667801  38.9598490
  36.9414800  69.9188845  39.4272417  35.9071385  68.8251620  39.5878384
  34.6871119  68.0579558  53.3349700  34.0569779  68.7395838  53.5685097
  34.5807206  67.9462639  52.3902838  29.9816091  67.7251354  44.2615624
  29.1915145  67.9808882  43.7855735  30.4727338  68.5399691  44.3667665
  43.9979901  75.0656593  47.0120905  44.8197344  74.6636780  46.7303586
  43.9942303  74.9624827  47.9637021  31.9330836  68.0895933  41.2199101
  31.1362000  68.2014627  41.7382596  31.7056429  68.4282585  40.3539991
  37.7636504  74.6140636  49.1681615  37.8280936  75.0761043  50.0039787
  37.0547428  73.9838001  49.2963925  28.2653794  67.9781844  46.6930615
  28.5161832  68.8628854  46.9588191  28.8013342  67.7986446  45.9205707
  52.0885894  71.4095341  43.3605876  51.3349602  70.8402739  43.2049881
  52.2233435  71.3758006  44.3076511  37.4784522  76.2808744  39.0360596
  37.3430196  77.1260279  39.4645443  38.0194334  76.4828021  38.2726529
  33.9651861  62.3600323  55.6974951  33.5718807  61.8066522  56.3722595
  34.7818002  62.6710902  56.0881468  30.9313919  73.7984182  39.6088521
  31.4438440  74.5927432  39.7594085  31.5836632  73.1010472  39.5422122
  32.7408804  76.9149938  41.6911274  32.9175432  77.8367903  41.5032258
  33.5365637  76.6008357  42.1205654  36.8819822  63.7758203  53.2895207
  37.6229536  64.3765356  53.2099670  37.1137745  63.0335840  52.7313250
  32.0261160  68.9614570  51.5673437  31.9114675  68.0599827  51.8680536
  31.1705678  69.2078267  51.2158254  39.1052998  76.9032310  53.1660938
  38.6616852  76.1168689  52.8481842  39.7670212  77.0911461  52.5004828
  33.8640119  78.4328112  47.6921616  34.4147544  78.3045175  46.9198610
  33.0251595  78.7323001  47.3416509  41.2034236  77.1835110  51.1942339
  41.1852711  78.0043991  50.7022608  42.1254156  77.0589185  51.4192480
  37.6607290  74.6979240  52.0365847  38.1935627  73.9367528  51.8065155
  37.1321371  74.4052891  52.7790002  40.8276985  59.8039305  47.5659489
  40.4841255  60.6940947  47.4898600  41.1955948  59.6140963  46.7029074
  28.8962836  72.1272836  40.3848091  29.7338058  72.5369844  40.1681799
  29.0741103  71.1872278  40.3548285  40.7927268  69.7947917  36.0731924
  40.2773891  70.5652521  36.3120312  40.5204576  69.1213053  36.6964986
  38.3774379  64.6397617  41.1317163  37.5215975  64.2504468  40.9522801
  38.7901331  64.7189578  40.2716948  39.9073526  62.1743961  45.5308722
  39.4038321  62.1374096  44.7176528  40.2004132  63.0836703  45.5905379
  36.1516411  62.2582690  44.5374904  37.0169408  62.0625499  44.1780794
  36.2193920  62.0293042  45.4644261  45.7661542  72.5480271  38.0085098
  44.9890985  72.2091431  37.5640260  46.4453023  72.5532894  37.3340063
  40.5813571  67.6675009  37.8991705  40.2763707  67.9821158  38.7501849
  41.5344013  67.7456429  37.9419038  39.0260003  73.8265232  39.5484659
  38.4981364  73.0917992  39.2357897  38.5247506  74.6039908  39.3024628
  44.0052849  72.0214252  44.6651706  43.3476523  72.7113514  44.7531834
  44.8093248  72.4110684  45.0085692  33.7578731  64.4884898  41.9091271
  34.3322482  64.2660080  41.1764464  34.3449713  64.5573593  42.6619872
  42.8158308  70.3758625  42.7155647  43.3290189  71.0088617  43.2177357
  43.4659532  69.7759821  42.3499007  34.0848318  66.5189359  35.9287156
  33.2485630  66.8564046  36.2496431  33.9453087  66.3838339  34.9914293
  36.0601398  61.3626147  40.6366340  35.4065811  61.0475164  40.0122955
  36.0181872  60.7401888  41.3626163  37.1712603  71.6445442  32.5519632
  36.2639665  71.4134696  32.7510781  37.6683635  70.8483061  32.7393614
  40.0780682  80.3542949  35.4716319  39.4042381  80.6574646  36.0801276
  40.4646504  81.1572030  35.1221776  39.2939139  67.8508081  44.9613988
  38.3761700  68.0723028  44.8035676  39.7099282  67.9254391  44.1025695
  40.0774186  69.2499496  40.0916668  40.8246005  69.7620894  39.7823790
  40.3465776  68.9283549  40.9521062  38.3500837  71.7458037  37.0743622
  37.4412056  71.4617070  37.1716092  38.3795920  72.1657116  36.2146929
  43.5820104  75.3564627  40.8434790  43.1282431  74.5155536  40.8999981
  42.9514071  75.9926025  41.1809570  42.5253024  66.2856613  42.0735457
  41.7875780  65.7733999  42.4045700  42.7779797  65.8456994  41.2618734
  42.0253043  77.1941123  41.7784608  42.3176018  77.7546180  41.0596974
  42.5351664  77.4869684  42.5337767  42.6264651  59.0632865  42.6677227
  42.9323528  58.2030228  42.3803142  43.3517256  59.6550485  42.4676221
  28.9189007  69.4663551  41.0558825  28.7213407  68.8732912  40.3309891
  28.3635671  69.1615761  41.7734763  36.8985731  69.3586658  43.1753418
  36.9534340  68.4060494  43.0995894  36.0876933  69.5146097  43.6594716
  38.0476924  73.2866781  34.4131701  37.6096354  72.5702640  33.9537338
  38.7887365  73.5142896  33.8516792  34.8378090  67.9763717  40.9343797
  34.0245956  68.2757888  41.3408989  35.3337085  67.5819406  41.6518279
  36.9886668  77.9721474  42.8678061  36.9462847  78.1982321  41.9386593
  37.9049367  77.7384849  43.0163863  40.4352302  68.4405542  49.7658691
  40.7901690  68.6677015  50.6253156  41.0824433  68.7723919  49.1435946
  46.1650039  71.5623978  40.4708020  46.0267938  71.7525574  39.5429209
  45.8086258  72.3243361  40.9276071  34.3292165  65.5482073  46.5505032
  34.9691545  65.4070832  45.8527995  33.4969696  65.2616586  46.1743634
  46.1919419  73.6300505  45.4819291  46.6255925  73.5375794  46.3302345
  46.9050999  73.6058005  44.8439307  35.1052469  74.8484503  42.6640024
  35.8993068  74.3534824  42.4622599  34.3944162  74.3202367  42.3007730
  39.9247314  77.2302599  47.0152392  39.9784336  77.7993535  47.7830108
  39.0562095  77.4004484  46.6506429  31.4135233  68.9927585  38.7399777
  30.4832821  68.9312041  38.9569739  31.5092705  68.4703538  37.9436418
  31.3320782  65.5182398  41.3278018  31.5927599  66.4327731  41.2187179
  32.1537954  65.0506841  41.4774631  32.8045707  66.9320155  48.4976843
  33.4768760  66.7237517  47.8489492  31.9775494  66.7342241  48.0582075
  47.0534968  73.6724205  48.0152177  47.2470858  74.5770016  48.2611451
  46.9535586  73.2131625  48.8490762  38.7071279  63.5582096  50.5142504
  38.0599194  64.2572046  50.4206980  39.4772294  63.9918240  50.8818752
  42.1150077  73.8230948  53.5893057  41.9635583  73.5941500  52.6723141
  42.1054756  74.7801550  53.6024402  38.8835413  71.3962861  48.5739324
  39.8127473  71.5474021  48.4008291  38.4626443  71.4846882  47.7187970
  37.6823745  75.4213525  46.3437861  37.5434831  75.0532310  47.2163799
  36.8938341  75.9361165  46.1721819  38.2771897  80.5222622  37.6863398
  38.4523653  80.0510665  38.5009020  37.5904685  81.1488388  37.9144658
  39.2328960  74.7995128  43.7326699  38.8978793  74.7595898  44.6284349
  38.7332906  74.1339844  43.2597109  33.2073204  70.2062758  49.2579280
  33.0693002  69.4742997  49.8590819  34.1178128  70.1171658  48.9763468
  42.1688152  72.1451162  34.0063759  41.5517323  71.4197991  33.9096811
  41.7004640  72.9060523  33.6630833  35.8355505  69.9182717  48.7462960
  36.5455123  69.2775910  48.7049578  35.7924813  70.1695612  49.6689141
  43.8242284  76.8550071  51.6669539  43.7654830  76.1709291  51.0000122
  44.2261802  77.5969061  51.2150165  34.5484439  66.9047935  50.5658599
  34.0121796  66.4538674  51.2180196  33.9601147  67.0393844  49.8229064
  32.8432982  83.6711985  44.4603258  33.0829581  84.3030509  45.1382276
  32.0002179  83.3200025  44.7468617  33.9586698  66.3636587  33.1285063
  33.0816164  66.2425388  32.7647310  34.4344451  65.5722665  32.8763952
  43.8259691  74.8189655  49.8983519  42.9386470  74.4815577  50.0209918
  44.3958242  74.0872686  50.1352284  25.4788838  71.1513746  43.2226570
  26.1659878  70.8375476  42.6347585  25.3236967  72.0555111  42.9493821
  30.2823560  66.0403943  47.6511594  30.1981749  65.4329613  46.9162004
  29.4606267  66.5312961  47.6521090  37.3560844  79.4791107  46.8644762
  37.2831016  80.2846079  47.3764066  36.9138237  79.6783073  46.0392783
  37.1450624  78.7162877  40.3747583  36.3618146  79.2584557  40.4685808
  37.8443369  79.2336857  40.7741825  40.4547274  64.5257507  43.0181789
  40.9515974  63.7727469  42.6982859  39.6834256  64.5621823  42.4524998
  48.3077031  70.2297872  44.6600080  48.2966908  71.1122588  44.2894013
  47.4394411  69.8769423  44.4654617  39.8159528  79.3777941  49.0202921
  40.5287500  80.0125406  48.9478822  39.3249556  79.4741807  48.2042922
  41.5377055  73.2829194  40.5920212  40.6033333  73.4030656  40.4224917
  41.7153723  72.3801661  40.3280222  37.0382243  66.6674890  42.7453473
  36.6680030  66.1145930  43.4334379  37.5341335  66.0633023  42.1928473
  44.9249606  69.1246513  41.1270246  45.3910058  69.9574505  41.0530549
  45.3757107  68.6591495  41.8315505  34.8671441  77.1272385  49.8408491
  35.5680901  77.7608868  49.9937886  34.3966556  77.4687116  49.0804131
  42.9925837  75.4690334  38.1256398  43.2685681  75.3546929  39.0350272
  42.1230336  75.0707819  38.0868571  42.8966269  61.4927100  45.1661148
  41.9829349  61.7231327  45.3343355  43.3259370  61.5765544  46.0175180
  42.6672727  69.6816992  47.6661042  42.0144178  69.9292899  47.0113494
  43.0453107  68.8681130  47.3323519  39.6279901  79.7176685  41.7689212
  39.8102296  78.8998341  42.2316964  40.4512887  79.9344377  41.3314102
  39.9622067  78.6444870  39.0304261  40.4909833  78.1337325  38.4174423
  40.2250286  78.3287401  39.8949794  38.7160300  70.4236803  54.1527079
  38.0400937  70.3230932  54.8229454  39.5387934  70.2676017  54.6163076
  30.4639159  76.6608740  46.7739594  31.0492596  75.9152428  46.9067498
  30.2663998  76.9712696  47.6576258  33.3177815  79.6959987  41.7902036
  32.6488190  80.1806115  41.3066076  33.1790684  79.9429207  42.7045415
  25.0556814  69.2314340  45.4944037  25.0940914  68.6977931  46.2881155
  24.5497107  68.7049545  44.8755014  37.4583083  81.7303731  48.3884695
  38.0101391  81.8935352  49.1533780  37.7989277  82.3208168  47.7164720
  32.4347576  64.0778880  48.9906579  32.4988903  64.9393711  48.5783977
  32.3714697  63.4652882  48.2578938  31.9099849  66.1502013  52.6379614
  32.5371888  65.7679090  53.2517138  31.0527768  65.9316215  53.0035306
  42.3093958  76.5564988  54.2433349  42.8533861  77.1694946  53.7488304
  41.7280802  77.1144566  54.7600362  28.6865392  67.9578442  38.5697969
  28.9818833  67.0489120  38.5165022  27.7853427  67.9366181  38.2478971
  40.5951470  79.6785706  45.3748377  40.4702610  78.8775446  44.8659322
  41.2530562  80.1731899  44.8862347  32.2159639  66.0334439  44.5525517
  31.4946224  66.6470406  44.4132990  33.0052894  66.5692203  44.4742163
  42.6586379  77.4794726  47.0027927  41.7116714  77.3600077  46.9306254
  43.0069152  76.5917224  47.0854188  35.0185952  63.3688865  50.8266169
  35.5420354  63.6151162  51.5892478  34.7998285  64.2008900  50.4069306
  30.4153233  65.6392540  38.6937294  30.0865939  64.7589919  38.5112400
  30.7692604  65.5840208  39.5813683  39.6632812  77.2747442  43.2032279
  39.5157775  76.3464150  43.3839849  40.4886306  77.2967533  42.7189355
  33.5295056  65.9265509  39.0612771  33.8691129  66.4551431  38.3391380
  33.9767177  66.2645916  39.8371338  43.2666934  78.0976001  44.2897152
  44.1913481  77.8918862  44.1521603  43.0982237  77.8492402  45.1986494
  36.2238497  64.3102560  48.5115839  35.8835318  63.5110373  48.9136519
  35.5177504  64.6104271  47.9392673  36.8754969  61.3951873  46.9643162
  37.6981038  60.9212351  46.8422053  37.1193033  62.1742356  47.4641849
  35.5163204  64.4240131  37.2606064  36.2371566  64.8021384  36.7569781
  34.8928508  65.1429008  37.3641042  39.6594326  65.1285280  38.1964397
  39.8757941  66.0109918  37.8953225  39.1788394  64.7371493  37.4670039
  34.3993548  68.0870993  44.7735141  34.2538129  68.4011296  45.6659423
  33.9218751  68.7055894  44.2206040  36.2589931  65.0773541  44.8216031
  36.2451499  64.1814635  44.4848329  36.9762359  65.0844205  45.4554317
  38.1116061  65.5110881  46.8669158  37.8533839  66.4327952  46.8653489
  37.5801102  65.1141316  47.5569622  43.0562250  78.6161669  39.6459243
  43.2299128  78.0508091  38.8933096  43.5491141  79.4162563  39.4638733
  28.8739210  70.6276338  47.7122802  28.3292678  71.4036146  47.8443077
  29.7518560  70.9747142  47.5541924  35.6626827  63.9587921  40.0903601
  35.7842738  63.0304568  40.2894488  35.3728869  63.9726607  39.1781916
  38.5318017  61.6442832  43.2270321  38.5539714  61.7082165  42.2722300
  38.9486076  60.8047341  43.4210827  48.9101641  71.3798091  41.2649543
  49.3532787  70.6305417  40.8668666  48.0328152  71.3708228  40.8823275
  44.0437423  77.9328433  36.7456142  44.7388327  78.5535126  36.9643456
  44.3860573  77.0823784  37.0208520  29.6605232  69.7546234  50.6052959
  28.9186968  69.9028869  51.1917590  29.3397976  70.0154499  49.7419709
  45.9428846  75.3828138  38.2743473  46.4680170  75.7215411  37.5492793
  45.8551198  74.4475154  38.0906607  37.6048895  79.2962212  50.4033349
  37.9136021  79.0511359  51.2756049  38.4024377  79.5008851  49.9152219
  37.6269507  81.4500122  42.6338726  37.1874497  80.9576500  43.3271582
  38.3777624  80.9073089  42.3930801  30.1061846  77.6411663  42.6363354
  30.9319865  77.3415434  42.2561997  29.7555898  76.8719285  43.0853142
  35.0743379  76.9938131  44.7061027  34.4523388  76.3308836  44.4063255
  35.7448246  77.0199263  44.0234675  28.3070451  75.5597989  43.5952287
  27.4702359  75.1320163  43.4136289  28.2794096  75.7530432  44.5323079
  35.1467906  65.4719919  54.2993533  35.1956062  66.3482042  53.9171303
  35.6890420  64.9297312  53.7265177  45.6322752  76.0161042  53.5794670
  44.8418296  75.9985181  53.0399170  45.3956106  76.5549336  54.3343707
  45.7520627  72.8653508  50.8927399  45.8018632  72.7003516  51.8342922
  45.6434550  71.9980767  50.5025280  34.6356886  75.5442054  38.1819488
  34.7845006  76.2277519  37.5286161  35.4423329  75.5247144  38.6968944
  43.0424389  68.8484436  52.2086706  43.9434252  68.7090901  51.9170704
  43.1172364  69.0138891  53.1484883  37.3767195  66.2251291  51.0539892
  36.5070504  66.5184857  50.7822481  37.6126675  66.8091736  51.7747156
  47.2538824  75.2850450  51.1369421  46.9623632  75.6480431  51.9732882
  46.6410955  74.5717458  50.9582753  48.4534506  72.8503330  43.6571991
  49.2881397  73.2893134  43.8209551  48.5893635  72.3741983  42.8380237
  45.5026012  70.4083065  49.6049479  45.9780134  70.6010711  48.7968330
  44.5791577  70.4642250  49.3592862  32.3909519  71.5707232  39.1880557
  32.1455561  70.6669562  39.3860767  32.5605433  71.5724382  38.2460035
  40.0806228  62.4430908  48.5705312  40.5988172  63.1791935  48.2451801
  39.7261361  62.7494901  49.4052072  31.6605166  67.3035589  36.6866718
  30.9674411  67.3779944  36.0306754  31.4156918  66.5395933  37.2088235
  40.3318823  58.8631191  44.0906209  40.6120576  58.1954380  44.7166636
  41.1169430  59.0560286  43.5780873  38.1352291  78.0390185  35.6531235
  37.5626258  78.6580372  35.2001707  38.7085085  78.5889546  36.1871157
  44.2027681  67.2848825  47.8377784  45.1545104  67.3846922  47.8590008
  44.0331131  66.4927093  48.3475869  42.2242060  64.3704408  48.0237185
  41.6291993  64.6509421  47.3283674  41.9391757  64.8598309  48.7953926
  41.3549551  78.3227335  36.7839818  42.2880224  78.2572896  36.9872693
  41.2672764  79.1583602  36.3254350  43.9837568  77.6393205  33.7443765
  43.9051199  77.3053069  34.6379523  44.8047234  78.1314973  33.7435238
  46.6815759  70.5054944  46.9520084  46.6492079  69.5670945  47.1379768
  47.2916382  70.5838981  46.2185909  38.5199090  69.3750997  32.9947288
  39.4658194  69.2457205  33.0635706  38.1413335  68.6365659  33.4716716
  46.8310247  67.2965988  46.9978367  46.3149296  66.5124444  46.8108296
  47.7150196  66.9684704  47.1624886  44.4920974  61.0407003  42.9574180
  44.2945795  60.7322092  43.8417512  45.1020680  61.7668642  43.0872110
  52.4992309  71.5670951  46.0926121  53.2295697  71.3056239  46.6533824
  51.8899254  70.8299673  46.1328189  50.5807606  69.7078814  46.6900572
  49.8540769  69.5734779  46.0817063  50.1654893  70.0155642  47.4957290
  38.4037782  73.4268743  54.4547945  39.3240792  73.6047343  54.6487991
  38.3687365  72.4824789  54.3027644  36.7042007  67.3000974  32.9302173
  35.7973462  67.0034086  33.0064887  36.9817988  67.0030792  32.0636459
  27.6219947  68.6207337  43.3801219  27.3022732  67.7672645  43.0875593
  27.0753375  68.8355915  44.1359187  31.3999855  71.3369778  47.0970726
  31.6185865  72.2686886  47.1158760  31.8125629  70.9777753  47.8825530
  38.3204073  61.8437863  39.0846414  37.5104801  61.4984948  39.4601660
  39.0088489  61.5345407  39.6734026  40.2494621  60.9215910  40.7070711
  40.8025659  61.3411364  41.3660734  40.4864707  59.9951658  40.7493667
  36.2727720  66.9102984  56.4873475  36.1724447  67.8597341  56.4185566
  36.0549262  66.5821223  55.6149545  35.4740791  64.1587909  33.0714152
  36.3359955  64.4842807  33.3309970  35.6591136  63.3719405  32.5587218
  27.4908207  72.2410249  45.3494341  26.7971679  71.8264201  44.8364295
  28.2381198  72.2830785  44.7527760  43.6273428  63.0316435  40.2149375
  43.0472097  63.6901239  39.8327428  43.3609361  62.2093780  39.8036793
  42.0776994  62.4321493  42.4170696  42.5776773  62.5438028  41.6085014
  42.7212602  62.1282546  43.0571504  36.1358990  70.3400123  55.3038537
  35.6526072  71.1400483  55.5102426  36.2219929  70.3508068  54.3505981
  29.4044950  72.1728502  43.2260356  29.3815638  72.2716190  42.2742239
  29.7145586  73.0193653  43.5477522  32.0632328  74.2304657  47.3406970
  33.0175581  74.1988600  47.2736902  31.8644851  73.7695281  48.1557196
  32.6531710  72.8005774  49.9077768  33.4724599  73.2949852  49.9312605
  32.9268517  71.8837742  49.8795336  42.4098306  65.1916526  39.2705724
  41.5224161  65.4766176  39.0525918  42.8252295  65.0310289  38.4233000
  45.7612842  65.2163047  42.9860063  46.5373232  65.7059499  43.2584680
  45.0360976  65.6421101  43.4431932  48.1985401  65.9290666  44.0434003
  48.7929891  65.6886402  43.3327312  48.2711984  65.2097797  44.6707540
  30.4182556  79.7724277  44.3577168  30.2837024  79.0124678  43.7915166
  30.0014619  80.4965177  43.8905957  41.5541519  74.9561200  33.3653744
  42.2577370  75.1611203  33.9811399  40.8304168  75.5237962  33.6302827
  42.3839330  70.7071062  39.4856014  42.3274531  71.1639613  38.6463646
  42.9367672  69.9461746  39.3078856  46.1944136  66.4960794  40.3106133
  45.9381070  66.0957429  41.1414341  45.5697004  67.2104588  40.1856272
  50.5056473  69.2356867  42.8177425  49.9456031  69.3050056  43.5908987
  49.8999977  69.0597851  42.0976921  33.5751682  80.6693594  44.5695611
  33.4584066  81.6139026  44.4674301  32.7544129  80.3667156  44.9581410
  43.4628217  75.3943730  35.4152204  44.2973821  74.9624928  35.2329678
  43.3012560  75.2225743  36.3429098  43.1174109  71.8975843  36.7808543
  43.0622913  71.7320114  35.8396987  42.4920164  72.6051876  36.9370733
  27.9066624  67.1343907  50.6069965  28.5525488  66.6242861  51.0957190
  27.6983775  67.8712589  51.1813390  40.4320016  74.2024755  56.1062106
  41.3011176  74.3765407  55.7448741  39.9526768  75.0219172  55.9837835
  36.4270234  61.3983952  36.3593861  36.4148904  62.3425792  36.5162132
  37.3193656  61.2154097  36.0653322  34.6006196  81.3221856  47.7851539
  35.5033443  81.3545466  48.1018034  34.3743566  80.3922307  47.7997875
  36.3559798  80.0752842  44.4461618  35.4055429  80.0754704  44.3325990
  36.6592285  79.3285577  43.9297653  40.2422354  57.9926729  40.6139798
  39.4754750  57.4385215  40.7596480  40.6533059  58.0648597  41.4753950
  32.2464115  64.2811524  54.7044979  33.1095577  63.9248329  54.9148304
  31.6729526  63.9425419  55.3920384  52.0912492  85.9113381  45.5107380
  52.7290902  85.7920128  44.8070720  51.9733335  86.8594225  45.5695332
  48.9002198  85.8640809  45.4468905  48.5620710  85.7481874  44.5589440
  49.7691966  85.4631974  45.4269911  44.7589014  87.7176285  41.4365796
  44.1953879  87.6266222  40.6682084  44.6441409  86.8976190  41.9168288
  49.3821981  87.0175661  51.4055111  49.3710622  86.6228459  50.5335614
  49.5442621  86.2841733  51.9988882  42.3053446  89.2127477  44.2750016
  43.0974738  88.8718302  43.8596316  42.5450096  89.3222452  45.1952170
  50.3388573  91.3847253  36.7480261  49.6876552  91.9701333  36.3614275
  51.1332935  91.9153448  36.8075298  44.2644200  88.4736390  37.1467395
  45.0375076  87.9265377  37.0080271  44.6169599  89.3380639  37.3581857
  46.1029242  89.8012772  50.3534295  45.8119108  90.7058403  50.2380961
  46.7386227  89.8429300  51.0678364  47.0285449  87.1789621  46.9435654
  47.6249021  86.9545643  46.2292617  47.0860421  86.4374366  47.5461102
  46.6010478  84.6329056  34.7785845  46.8535998  84.1110578  34.0169308
  45.6635037  84.4695202  34.8812529  51.6453760  83.6364835  42.5860588
  52.4316850  83.2184258  42.2351005  51.9092465  84.5410927  42.7542237
  51.8163838  89.0737685  37.2849245  51.1809671  89.1472311  37.9970150
  51.4861244  89.6631284  36.6068324  46.3206766  86.5357162  36.9810220
  46.2043024  85.8602066  37.6491304  46.4309026  86.0489536  36.1642373
  48.6638307  85.9967309  40.6856909  48.2996514  85.4697930  41.3969831
  49.5205423  85.6065778  40.5123395  48.3043794  81.0257209  35.6818258
  48.4718197  81.8937445  36.0488729  48.1140963  81.1884491  34.7579547
  51.0619127  89.4874188  47.3484088  50.7619850  90.3899227  47.2399895
  50.7170187  89.2206371  48.2005241  44.5131609  85.9387985  43.3820793
  43.5882105  85.8064199  43.5898484  44.7616022  86.7182204  43.8790735
  54.4616271  82.0056728  45.0281526  53.5533149  81.9372137  44.7340286
  54.4103867  82.4828673  45.8563351  48.2833015  83.4814867  36.6664925
  48.1632640  83.9271917  37.5050405  47.5885603  83.8300184  36.1078463
  41.8740420  85.5821258  44.2164582  42.0032801  85.8355737  45.1303993
  41.1937871  86.1748966  43.8969237  46.0439907  96.2518508  40.3155056
  45.9663937  97.2026333  40.3943536  45.4401551  95.9064381  40.9729982
  48.5357137  83.4246374  52.9716423  47.7590471  83.9840294  52.9619287
  49.1747700  83.9103157  53.4931293  53.9818081  83.9536340  37.4945259
  54.8935937  84.1863726  37.3192956  53.4727728  84.5373384  36.9320337
  46.7903509  86.2331827  52.5334390  47.5318194  86.7716871  52.2569213
  46.0840495  86.8598116  52.6905942  52.2658849  88.3760968  51.1306551
  52.6742205  87.9343378  50.3861184  51.5436110  87.8013595  51.3840744
  48.6189919  83.3133574  48.5040108  49.4651114  83.7372988  48.6474757
  48.5588557  82.6567199  49.1978671  52.5887664  88.9362158  44.8858840
  51.9596526  89.1007872  44.1834908  52.2013326  89.3503768  45.6569804
  56.4676895  89.8716596  42.2403204  55.7827934  90.2515497  41.6900237
  56.5520745  90.4811923  42.9735152  51.7689364  80.9737943  50.1621282
  51.5250296  81.7280003  49.6255558  52.0449295  81.3523290  50.9968529
  53.7227827  87.5176555  48.8398547  53.9344722  88.1608315  48.1632929
  53.6757575  86.6838872  48.3720478  51.3254056  80.1294376  45.7435120
  50.4638535  80.4275629  46.0351857  51.3516491  80.3464775  44.8116152
  48.1415625  88.6736566  42.1508925  48.6053971  88.9524269  41.3613548
  47.8772424  87.7720011  41.9682016  45.0339706  88.2208048  45.0888689
  45.6041064  88.6495316  44.4506173  45.6247818  87.9390633  45.7872874
  47.0784511  84.7959719  38.9598490  47.7808555  85.2480762  39.4272417
  46.7465140  84.1543537  39.5878384  45.5264873  83.3871475  53.3349700
  44.8963534  84.0687756  53.5685097  45.4200961  83.2754557  52.3902838
  40.8209845  83.0543271  44.2615624  40.0308899  83.3100800  43.7855735
  41.3121093  83.8691609  44.3667665  54.8373655  90.3948510  47.0120905
  55.6591099  89.9928698  46.7303586  54.8336058  90.2916745  47.9637021
  42.7724591  83.4187851  41.2199101  41.9755754  83.5306545  41.7382596
  42.5450183  83.7574503  40.3539991  48.6030258  89.9432554  49.1681615
  48.6674691  90.4052961  50.0039787  47.8941182  89.3129919  49.2963925
  39.1047548  83.3073762  46.6930615  39.3555587  84.1920772  46.9588191
  39.6407097  83.1278363  45.9205707  48.3178276  91.6100661  39.0360596
  48.1823951  92.4552197  39.4645443  48.8588089  91.8119939  38.2726529
  44.8045616  77.6892241  55.6974951  44.4112561  77.1358440  56.3722595
  45.6211756  78.0002820  56.0881468  41.7707673  89.1276099  39.6088521
  42.2832194  89.9219350  39.7594085  42.4230386  88.4302390  39.5422122
  43.5802558  92.2441856  41.6911274  43.7569187  93.1659820  41.5032258
  44.3759392  91.9300275  42.1205654  47.7213577  79.1050120  53.2895207
  48.4623290  79.7057273  53.2099670  47.9531500  78.3627758  52.7313250
  42.8654915  84.2906487  51.5673437  42.7508430  83.3891745  51.8680536
  42.0099432  84.5370184  51.2158254  49.9446752  92.2324228  53.1660938
  49.5010607  91.4460606  52.8481842  50.6063966  92.4203378  52.5004828
  44.7033874  93.7620029  47.6921616  45.2541299  93.6337093  46.9198610
  43.8645350  94.0614918  47.3416509  48.5001045  90.0271157  52.0365847
  49.0329381  89.2659445  51.8065155  47.9715126  89.7344809  52.7790002
  51.6670740  75.1331223  47.5659489  51.3235009  76.0232865  47.4898600
  52.0349702  74.9432881  46.7029074  39.7356590  87.4564754  40.3848091
  40.5731812  87.8661762  40.1681799  39.9134858  86.5164196  40.3548285
  51.6321022  85.1239834  36.0731924  51.1167646  85.8944439  36.3120312
  51.3598331  84.4504970  36.6964986  49.2168133  79.9689535  41.1317163
  48.3609730  79.5796385  40.9522801  49.6295085  80.0481496  40.2716948
  50.7467280  77.5035878  45.5308722  50.2432076  77.4666013  44.7176528
  51.0397887  78.4128621  45.5905379  46.9910166  77.5874608  44.5374904
  47.8563163  77.3917417  44.1780794  47.0587675  77.3584960  45.4644261
  56.6055297  87.8772189  38.0085098  55.8284739  87.5383348  37.5640260
  57.2846777  87.8824812  37.3340063  51.4207326  82.9966926  37.8991705
  51.1157461  83.3113076  38.7501849  52.3737768  83.0748346  37.9419038
  49.8653757  89.1557150  39.5484659  49.3375119  88.4209909  39.2357897
  49.3641260  89.9331826  39.3024628  54.8446603  87.3506170  44.6651706
  54.1870278  88.0405432  44.7531834  55.6487003  87.7402602  45.0085692
  44.5972485  79.8176816  41.9091271  45.1716237  79.5951997  41.1764464
  45.1843467  79.8865510  42.6619872  53.6552062  85.7050543  42.7155647
  54.1683944  86.3380535  43.2177357  54.3053286  85.1051738  42.3499007
  44.9242072  81.8481277  35.9287156  44.0879384  82.1855964  36.2496431
  44.7846842  81.7130257  34.9914293  46.8995153  76.6918065  40.6366340
  46.2459565  76.3767082  40.0122955  46.8575627  76.0693805  41.3626163
  48.0106358  86.9737360  32.5519632  47.1033419  86.7426613  32.7510781
  48.5077390  86.1774979  32.7393614  50.9174436  95.6834867  35.4716319
  50.2436135  95.9866564  36.0801276  51.3040258  96.4863947  35.1221776
  50.1332893  83.1799998  44.9613988  49.2155454  83.4014945  44.8035676
  50.5493037  83.2546309  44.1025695  50.9167941  84.5791414  40.0916668
  51.6639760  85.0912811  39.7823790  51.1859530  84.2575467  40.9521062
  49.1894591  87.0749955  37.0743622  48.2805810  86.7908988  37.1716092
  49.2189675  87.4949033  36.2146929  54.4213858  90.6856544  40.8434790
  53.9676186  89.8447454  40.8999981  53.7907825  91.3217943  41.1809570
  53.3646778  81.6148530  42.0735457  52.6269535  81.1025917  42.4045700
  53.6173552  81.1748912  41.2618734  52.8646798  92.5233041  41.7784608
  53.1569772  93.0838098  41.0596974  53.3745418  92.8161602  42.5337767
  39.7582761  84.7955469  41.0558825  39.5607161  84.2024830  40.3309891
  39.2029425  84.4907679  41.7734763  47.7379485  84.6878575  43.1753418
  47.7928095  83.7352412  43.0995894  46.9270687  84.8438014  43.6594716
  48.8870679  88.6158698  34.4131701  48.4490109  87.8994557  33.9537338
  49.6281120  88.8434813  33.8516792  45.6771845  83.3055635  40.9343797
  44.8639711  83.6049806  41.3408989  46.1730839  82.9111324  41.6518279
  47.8280423  93.3013392  42.8678061  47.7856602  93.5274238  41.9386593
  48.7443122  93.0676767  43.0163863  51.2746057  83.7697460  49.7658691
  51.6295444  83.9968933  50.6253156  51.9218188  84.1015836  49.1435946
  57.0043794  86.8915895  40.4708020  56.8661692  87.0817491  39.5429209
  56.6480012  87.6535278  40.9276071  45.1685920  80.8773991  46.5505032
  45.8085299  80.7362750  45.8527995  44.3363450  80.5908504  46.1743634
  57.0313173  88.9592422  45.4819291  57.4649680  88.8667712  46.3302345
  57.7444754  88.9349923  44.8439307  45.9446224  90.1776421  42.6640024
  46.7386822  89.6826741  42.4622599  45.2337916  89.6494284  42.3007730
  50.7641068  92.5594517  47.0152392  50.8178090  93.1285453  47.7830108
  49.8955849  92.7296402  46.6506429  42.2528987  84.3219503  38.7399777
  41.3226575  84.2603958  38.9569739  42.3486459  83.7995456  37.9436418
  42.1714536  80.8474316  41.3278018  42.4321353  81.7619649  41.2187179
  42.9931708  80.3798758  41.4774631  43.6439461  82.2612073  48.4976843
  44.3162515  82.0529435  47.8489492  42.8169248  82.0634159  48.0582075
  49.5465034  78.8874014  50.5142504  48.8992949  79.5863963  50.4206980
  50.3166049  79.3210158  50.8818752  49.7229168  86.7254779  48.5739324
  50.6521228  86.8765938  48.4008291  49.3020198  86.8138799  47.7187970
  48.5217500  90.7505443  46.3437861  48.3828585  90.3824227  47.2163799
  47.7332096  91.2653082  46.1721819  49.1165652  95.8514540  37.6863398
  49.2917407  95.3802583  38.5009020  48.4298440  96.4780306  37.9144658
  50.0722715  90.1287046  43.7326699  49.7372547  90.0887816  44.6284349
  49.5726660  89.4631762  43.2597109  44.0466959  85.5354676  49.2579280
  43.9086757  84.8034915  49.8590819  44.9571882  85.4463576  48.9763468
  53.0081906  87.4743080  34.0063759  52.3911077  86.7489908  33.9096811
  52.5398395  88.2352440  33.6630833  46.6749259  85.2474635  48.7462960
  47.3848878  84.6067827  48.7049578  46.6318568  85.4987530  49.6689141
  45.3878193  82.2339853  50.5658599  44.8515550  81.7830591  51.2180196
  44.7994902  82.3685762  49.8229064  43.6826737  99.0003902  44.4603258
  43.9223335  99.6322426  45.1382276  42.8395933  98.6491942  44.7468617
  44.7980452  81.6928504  33.1285063  43.9209919  81.5717305  32.7647310
  45.2738205  80.9014583  32.8763952  54.6653445  90.1481572  49.8983519
  53.7780224  89.8107494  50.0209918  55.2351996  89.4164604  50.1352284
  36.3182592  86.4805664  43.2226570  37.0053632  86.1667394  42.6347585
  36.1630721  87.3847029  42.9493821  41.1217315  81.3695861  47.6511594
  41.0375503  80.7621530  46.9162004  40.3000021  81.8604879  47.6521090
  48.1954599  94.8083025  46.8644762  48.1224770  95.6137996  47.3764066
  47.7531992  95.0074991  46.0392783  47.9844378  94.0454795  40.3747583
  47.2011900  94.5876475  40.4685808  48.6837124  94.5628774  40.7741825
  51.2941028  79.8549424  43.0181789  51.7909728  79.1019387  42.6982859
  50.5228010  79.8913741  42.4524998  50.6553282  94.7069859  49.0202921
  51.3681254  95.3417324  48.9478822  50.1643311  94.8033725  48.2042922
  52.3770809  88.6121111  40.5920212  51.4427088  88.7322574  40.4224917
  52.5547478  87.7093578  40.3280222  47.8775997  81.9966807  42.7453473
  47.5073785  81.4437848  43.4334379  48.3735090  81.3924941  42.1928473
  45.7065196  92.4564302  49.8408491  46.4074655  93.0900785  49.9937886
  45.2360311  92.7979034  49.0804131  53.8319592  90.7982252  38.1256398
  54.1079436  90.6838847  39.0350272  52.9624090  90.3999737  38.0868571
  53.7360023  76.8219018  45.1661148  52.8223103  77.0523245  45.3343355
  54.1653125  76.9057462  46.0175180  53.5066482  85.0108910  47.6661042
  52.8537932  85.2584817  47.0113494  53.8846862  84.1973048  47.3323519
  50.4673656  95.0468603  41.7689212  50.6496050  94.2290259  42.2316964
  51.2906642  95.2636295  41.3314102  50.8015821  93.9736788  39.0304261
  51.3303588  93.4629243  38.4174423  51.0644041  93.6579318  39.8949794
  41.3032914  91.9900657  46.7739594  41.8886351  91.2444345  46.9067498
  41.1057752  92.3004614  47.6576258  44.1571569  95.0251905  41.7902036
  43.4881944  95.5098032  41.3066076  44.0184439  95.2721125  42.7045415
  35.8950569  84.5606257  45.4944037  35.9334668  84.0269848  46.2881155
  35.3890861  84.0341463  44.8755014  48.2976838  97.0595648  48.3884695
  48.8495146  97.2227270  49.1533780  48.6383031  97.6500086  47.7164720
  43.2741331  79.4070798  48.9906579  43.3382657  80.2685629  48.5783977
  43.2108451  78.7944800  48.2578938  42.7493603  81.4793931  52.6379614
  43.3765642  81.0971008  53.2517138  41.8921522  81.2608132  53.0035306
  39.5259146  83.2870360  38.5697969  39.8212587  82.3781038  38.5165022
  38.6247182  83.2658099  38.2478971  51.4345225  95.0077624  45.3748377
  51.3096364  94.2067364  44.8659322  52.0924316  95.5023817  44.8862347
  43.0553393  81.3626356  44.5525517  42.3339979  81.9762324  44.4132990
  43.8446649  81.8984121  44.4742163  53.4980133  92.8086644  47.0027927
  52.5510469  92.6891995  46.9306254  53.8462906  91.9209142  47.0854188
  45.8579707  78.6980783  50.8266169  46.3814109  78.9443079  51.5892478
  45.6392040  79.5300818  50.4069306  41.2546988  80.9684457  38.6937294
  40.9259694  80.0881836  38.5112400  41.6086358  80.9132126  39.5813683
  50.5026567  92.6039360  43.2032279  50.3551529  91.6756067  43.3839849
  51.3280060  92.6259451  42.7189355  44.3688811  81.2557427  39.0612771
  44.7084883  81.7843348  38.3391380  44.8160931  81.5937833  39.8371338
  54.1060688  93.4267919  44.2897152  55.0307236  93.2210780  44.1521603
  53.9375992  93.1784320  45.1986494  47.0632252  79.6394478  48.5115839
  46.7229072  78.8402291  48.9136519  46.3571258  79.9396189  47.9392673
  47.7148724  76.7243790  46.9643162  48.5374793  76.2504268  46.8422053
  47.9586787  77.5034274  47.4641849  46.3556958  79.7532049  37.2606064
  47.0765321  80.1313301  36.7569781  45.7322262  80.4720926  37.3641042
  50.4988081  80.4577198  38.1964397  50.7151695  81.3401836  37.8953225
  50.0182148  80.0663411  37.4670039  45.2387302  83.4162911  44.7735141
  45.0931883  83.7303214  45.6659423  44.7612506  84.0347811  44.2206040
  47.0983685  80.4065459  44.8216031  47.0845254  79.5106552  44.4848329
  47.8156113  80.4136123  45.4554317  48.9509816  80.8402799  46.8669158
  48.6927594  81.7619870  46.8653489  48.4194856  80.4433234  47.5569622
  53.8956005  93.9453586  39.6459243  54.0692882  93.3800009  38.8933096
  54.3884896  94.7454481  39.4638733  39.7132964  85.9568255  47.7122802
  39.1686433  86.7328063  47.8443077  40.5912314  86.3039060  47.5541924
  46.5020581  79.2879839  40.0903601  46.6236492  78.3596485  40.2894488
  46.2122624  79.3018525  39.1781916  49.3711772  76.9734750  43.2270321
  49.3933468  77.0374083  42.2722300  49.7879831  76.1339258  43.4210827
  54.8831177  93.2620351  36.7456142  55.5782082  93.8827043  36.9643456
  55.2254327  92.4115702  37.0208520  40.4998986  85.0838152  50.6052959
  39.7580722  85.2320787  51.1917590  40.1791731  85.3446417  49.7419709
  56.7822600  90.7120056  38.2743473  57.3073924  91.0507329  37.5492793
  56.6944953  89.7767071  38.0906607  48.4442649  94.6254130  50.4033349
  48.7529775  94.3803277  51.2756049  49.2418131  94.8300768  49.9152219
  48.4663261  96.7792039  42.6338726  48.0268251  96.2868418  43.3271582
  49.2171378  96.2365007  42.3930801  40.9455600  92.9703580  42.6363354
  41.7713620  92.6707352  42.2561997  40.5949652  92.2011203  43.0853142
  45.9137133  92.3230049  44.7061027  45.2917142  91.6600754  44.4063255
  46.5842000  92.3491180  44.0234675  39.1464205  90.8889907  43.5952287
  38.3096113  90.4612081  43.4136289  39.1187851  91.0822350  44.5323079
  45.9861661  80.8011837  54.2993533  46.0349816  81.6773959  53.9171303
  46.5284175  80.2589230  53.7265177  56.5914381  88.1945426  50.8927399
  56.6412386  88.0295434  51.8342922  56.4828305  87.3272685  50.5025280
  45.4750640  90.8733972  38.1819488  45.6238760  91.5569436  37.5286161
  46.2817084  90.8539062  38.6968944  48.2160949  81.5543209  51.0539892
  47.3464259  81.8476775  50.7822481  48.4520430  82.1383654  51.7747156
  58.0932578  90.6142368  51.1369421  57.8017387  90.9772348  51.9732882
  57.4804710  89.9009376  50.9582753  56.3419766  85.7374982  49.6049479
  56.8173888  85.9302629  48.7968330  55.4185332  85.7934168  49.3592862
  43.2303273  86.8999149  39.1880557  42.9849315  85.9961479  39.3860767
  43.3999188  86.9016300  38.2460035  50.9199983  77.7722826  48.5705312
  51.4381927  78.5083853  48.2451801  50.5655116  78.0786819  49.4052072
  42.4998921  82.6327507  36.6866718  41.8068166  82.7071862  36.0306754
  42.2550673  81.8687851  37.2088235  51.1712577  74.1923108  44.0906209
  51.4514331  73.5246297  44.7166636  51.9563184  74.3852204  43.5780873
  48.9746046  93.3682102  35.6531235  48.4020013  93.9872289  35.2001707
  49.5478839  93.9181464  36.1871157  55.0421435  82.6140742  47.8377784
  55.9938858  82.7138840  47.8590008  54.8724886  81.8219011  48.3475869
  52.1943305  93.6519252  36.7839818  53.1273979  93.5864814  36.9872693
  52.1066518  94.4875519  36.3254350  54.8231322  92.9685123  33.7443765
  54.7444954  92.6344986  34.6379523  55.6440989  93.4606891  33.7435238
  49.3592844  84.7042915  32.9947288  50.3051949  84.5749123  33.0635706
  48.9807089  83.9657577  33.4716716  47.5435761  82.6292891  32.9302173
  46.6367217  82.3326004  33.0064887  47.8211742  82.3322710  32.0636459
  38.4613702  83.9499255  43.3801219  38.1416486  83.0964563  43.0875593
  37.9147130  84.1647833  44.1359187  42.2393609  86.6661696  47.0970726
  42.4579619  87.5978804  47.1158760  42.6519383  86.3069670  47.8825530
  49.1597827  77.1729781  39.0846414  48.3498555  76.8276866  39.4601660
  49.8482244  76.8637325  39.6734026  51.0888375  76.2507828  40.7070711
  51.6419414  76.6703281  41.3660734  51.3258462  75.3243576  40.7493667
  47.1121475  82.2394902  56.4873475  47.0118201  83.1889259  56.4185566
  46.8943017  81.9113140  55.6149545  46.3134546  79.4879827  33.0714152
  47.1753710  79.8134725  33.3309970  46.4984890  78.7011323  32.5587218
  38.3301962  87.5702166  45.3494341  37.6365433  87.1556119  44.8364295
  39.0774953  87.6122703  44.7527760  52.9170749  77.7613411  42.4170696
  53.4170527  77.8729945  41.6085014  53.5606357  77.4574464  43.0571504
  40.2438704  87.5020420  43.2260356  40.2209392  87.6008107  42.2742239
  40.5539341  88.3485571  43.5477522  42.9026082  89.5596575  47.3406970
  43.8569336  89.5280517  47.2736902  42.7038606  89.0987199  48.1557196
  43.4925464  88.1297691  49.9077768  44.3118353  88.6241770  49.9312605
  43.7662272  87.2129659  49.8795336  53.2492060  80.5208443  39.2705724
  52.3617915  80.8058094  39.0525918  53.6646049  80.3602207  38.4233000
  41.2576311  95.1016195  44.3577168  41.1230779  94.3416596  43.7915166
  40.8408373  95.8257094  43.8905957  52.3935274  90.2853118  33.3653744
  53.0971124  90.4903121  33.9811399  51.6697923  90.8529880  33.6302827
  53.2233084  86.0362979  39.4856014  53.1668286  86.4931531  38.6463646
  53.7761427  85.2753664  39.3078856  44.4145437  95.9985512  44.5695611
  44.2977821  96.9430944  44.4674301  43.5937883  95.6959073  44.9581410
  54.3021971  90.7235647  35.4152204  55.1367575  90.2916846  35.2329678
  54.1406314  90.5517661  36.3429098  53.9567863  87.2267761  36.7808543
  53.9016667  87.0612032  35.8396987  53.3313919  87.9343794  36.9370733
  38.7460378  82.4635825  50.6069965  39.3919242  81.9534779  51.0957190
  38.5377530  83.2004507  51.1813390  47.2663989  76.7275870  36.3593861
  47.2542659  77.6717710  36.5162132  48.1587411  76.5446015  36.0653322
  45.4399951  96.6513774  47.7851539  46.3427198  96.6837384  48.1018034
  45.2137321  95.7214224  47.7997875  47.1953553  95.4044760  44.4461618
  46.2449184  95.4046622  44.3325990  47.4986039  94.6577495  43.9297653
  51.0816108  73.3218646  40.6139798  50.3148504  72.7677133  40.7596480
  51.4926813  73.3940515  41.4753950  43.0857869  79.6103442  54.7044979
  43.9489331  79.2540247  54.9148304  42.5123280  79.2717337  55.3920384
  59.7395953 101.1932727  45.4468905  59.4014464 101.0773791  44.5589440
  60.6085721 100.7923892  45.4269911  55.5982768 103.0468203  41.4365796
  55.0347633 102.9558140  40.6682084  55.4835163 102.2268107  41.9168288
  53.1447200 104.5419395  44.2750016  53.9368492 104.2010219  43.8596316
  53.3843850 104.6514370  45.1952170  61.1782327 106.7139171  36.7480261
  60.5270307 107.2993251  36.3614275  61.9726690 107.2445366  36.8075298
  55.1037954 103.8028308  37.1467395  55.8768830 103.2557295  37.0080271
  55.4563353 104.6672557  37.3581857  56.9422997 105.1304690  50.3534295
  56.6512863 106.0350321  50.2380961  57.5779981 105.1721218  51.0678364
  57.8679204 102.5081539  46.9435654  58.4642776 102.2837561  46.2292617
  57.9254175 101.7666284  47.5461102  57.4404232  99.9620974  34.7785845
  57.6929753  99.4402495  34.0169308  56.5028791  99.7987119  34.8812529
  62.6557592 104.4029603  37.2849245  62.0203425 104.4764229  37.9970150
  62.3254999 104.9923201  36.6068324  57.1600521 101.8649080  36.9810220
  57.0436779 101.1893983  37.6491304  57.2702781 101.3781454  36.1642373
  59.1437549  96.3549127  35.6818258  59.3111951  97.2229363  36.0488729
  58.9534718  96.5176408  34.7579547  61.9012882 104.8166106  47.3484088
  61.6013605 105.7191144  47.2399895  61.5563941 104.5498289  48.2005241
  55.3525363 101.2679902  43.3820793  54.4275860 101.1356117  43.5898484
  55.6009777 102.0474122  43.8790735  59.1226770  98.8106784  36.6664925
  59.0026395  99.2563835  37.5050405  58.4279358  99.1592102  36.1078463
  52.7134174 100.9113176  44.2164582  52.8426556 101.1647655  45.1303993
  52.0331626 101.5040884  43.8969237  56.8833662 111.5810426  40.3155056
  56.8057691 112.5318251  40.3943536  56.2795305 111.2356298  40.9729982
  58.9809380 104.0028484  42.1508925  59.4447725 104.2816187  41.3613548
  58.7166178 103.1011929  41.9682016  55.8733461 103.5499965  45.0888689
  56.4434818 103.9787234  44.4506173  56.4641573 103.2682550  45.7872874
  57.9178266 100.1251636  38.9598490  58.6202309 100.5772680  39.4272417
  57.5858894  99.4835455  39.5878384  51.6603600  98.3835189  44.2615624
  50.8702654  98.6392718  43.7855735  52.1514847  99.1983527  44.3667665
  53.6118345  98.7479768  41.2199101  52.8149509  98.8598462  41.7382596
  53.3843938  99.0866420  40.3539991  59.4424013 105.2724471  49.1681615
  59.5068445 105.7344879  50.0039787  58.7334937 104.6421836  49.2963925
  49.9441303  98.6365679  46.6930615  50.1949341  99.5212689  46.9588191
  50.4800851  98.4570281  45.9205707  59.1572031 106.9392579  39.0360596
  59.0217705 107.7844115  39.4645443  59.6981843 107.1411857  38.2726529
  52.6101428 104.4568017  39.6088521  53.1225949 105.2511267  39.7594085
  53.2624141 103.7594307  39.5422122  54.4196313 107.5733773  41.6911274
  54.5962941 108.4951738  41.5032258  55.2153146 107.2592192  42.1205654
  53.7048669  99.6198405  51.5673437  53.5902184  98.7183662  51.8680536
  52.8493187  99.8662102  51.2158254  60.7840507 107.5616145  53.1660938
  60.3404361 106.7752524  52.8481842  61.4457721 107.7495296  52.5004828
  55.5427628 109.0911947  47.6921616  56.0935053 108.9629010  46.9198610
  54.7039104 109.3906836  47.3416509  62.8821745 107.8418945  51.1942339
  62.8640220 108.6627826  50.7022608  63.8041665 107.7173021  51.4192480
  59.3394799 105.3563075  52.0365847  59.8723136 104.5951363  51.8065155
  58.8108880 105.0636727  52.7790002  50.5750345 102.7856671  40.3848091
  51.4125567 103.1953680  40.1681799  50.7528612 101.8456113  40.3548285
  62.4714777 100.4531752  36.0731924  61.9561400 101.2236357  36.3120312
  62.1992085  99.7796888  36.6964986  57.8303920  92.9166526  44.5374904
  58.6956917  92.7209334  44.1780794  57.8981429  92.6876877  45.4644261
  67.4449051 103.2064107  38.0085098  66.6678494 102.8675266  37.5640260
  68.1240532 103.2116730  37.3340063  60.7047512 104.4849067  39.5484659
  60.1768873 103.7501827  39.2357897  60.2035015 105.2623744  39.3024628
  55.4366240  95.1468734  41.9091271  56.0109991  94.9243915  41.1764464
  56.0237222  95.2157428  42.6619872  55.7635827  97.1773195  35.9287156
  54.9273139  97.5147881  36.2496431  55.6240596  97.0422174  34.9914293
  58.8500112 102.3029278  32.5519632  57.9427174 102.0718531  32.7510781
  59.3471144 101.5066897  32.7393614  61.7568191 111.0126785  35.4716319
  61.0829890 111.3158482  36.0801276  62.1434013 111.8155865  35.1221776
  60.0288346 102.4041872  37.0743622  59.1199565 102.1200905  37.1716092
  60.0583429 102.8240951  36.2146929  65.2607613 106.0148462  40.8434790
  64.8069940 105.1739372  40.8999981  64.6301580 106.6509860  41.1809570
  63.7040552 107.8524959  41.7784608  63.9963527 108.4130016  41.0596974
  64.2139173 108.1453520  42.5337767  50.5976516 100.1247387  41.0558825
  50.4000916  99.5316747  40.3309891  50.0423180  99.8199597  41.7734763
  58.5773240 100.0170493  43.1753418  58.6321849  99.0644329  43.0995894
  57.7664442 100.1729932  43.6594716  59.7264433 103.9450616  34.4131701
  59.2883863 103.2286475  33.9537338  60.4674874 104.1726731  33.8516792
  56.5165599  98.6347553  40.9343797  55.7033465  98.9341723  41.3408989
  57.0124594  98.2403242  41.6518279  58.6674177 108.6305310  42.8678061
  58.6250356 108.8566156  41.9386593  59.5836876 108.3968684  43.0163863
  56.0079674  96.2065908  46.5505032  56.6479054  96.0654667  45.8527995
  55.1757205  95.9200422  46.1743634  56.7839978 105.5068339  42.6640024
  57.5780577 105.0118659  42.4622599  56.0731671 104.9786202  42.3007730
  61.6034823 107.8886434  47.0152392  61.6571845 108.4577371  47.7830108
  60.7349604 108.0588319  46.6506429  53.0922742  99.6511420  38.7399777
  52.1620330  99.5895876  38.9569739  53.1880214  99.1287373  37.9436418
  53.0108291  96.1766233  41.3278018  53.2715108  97.0911567  41.2187179
  53.8325463  95.7090676  41.4774631  54.4833216  97.5903990  48.4976843
  55.1556269  97.3821353  47.8489492  53.6563003  97.3926076  48.0582075
  59.3611254 106.0797361  46.3437861  59.2222340 105.7116145  47.2163799
  58.5725850 106.5945000  46.1721819  59.9559406 111.1806457  37.6863398
  60.1311162 110.7094500  38.5009020  59.2692194 111.8072223  37.9144658
  60.9116469 105.4578963  43.7326699  60.5766302 105.4179733  44.6284349
  60.4120415 104.7923679  43.2597109  54.8860713 100.8646593  49.2579280
  54.7480511 100.1326832  49.8590819  55.7965637 100.7755494  48.9763468
  63.8475661 102.8034998  34.0063759  63.2304832 102.0781826  33.9096811
  63.3792149 103.5644358  33.6630833  57.5143014 100.5766553  48.7462960
  58.2242632  99.9359745  48.7049578  57.4712322 100.8279448  49.6689141
  54.5220491 114.3295820  44.4603258  54.7617090 114.9614344  45.1382276
  53.6789688 113.9783860  44.7468617  55.6374207  97.0220422  33.1285063
  54.7603673  96.9009223  32.7647310  56.1131960  96.2306500  32.8763952
  47.1576347 101.8097582  43.2226570  47.8447387 101.4959312  42.6347585
  47.0024476 102.7138946  42.9493821  51.9611069  96.6987778  47.6511594
  51.8769258  96.0913448  46.9162004  51.1393776  97.1896797  47.6521090
  59.0348353 110.1374942  46.8644762  58.9618525 110.9429914  47.3764066
  58.5925746 110.3366908  46.0392783  58.8238133 109.3746712  40.3747583
  58.0405655 109.9168393  40.4685808  59.5230878 109.8920692  40.7741825
  61.4947037 110.0361776  49.0202921  62.2075009 110.6709241  48.9478822
  61.0037065 110.1325642  48.2042922  58.7169752  97.3258725  42.7453473
  58.3467539  96.7729765  43.4334379  59.2128844  96.7216858  42.1928473
  56.5458950 107.7856220  49.8408491  57.2468410 108.4192703  49.9937886
  56.0754065 108.1270951  49.0804131  64.6713346 106.1274170  38.1256398
  64.9473190 106.0130764  39.0350272  63.8017845 105.7291655  38.0868571
  61.3067410 110.3760521  41.7689212  61.4889805 109.5582176  42.2316964
  62.1300396 110.5928213  41.3314102  61.6409576 109.3028706  39.0304261
  62.1697342 108.7921160  38.4174423  61.9037795 108.9871236  39.8949794
  52.1426668 107.3192575  46.7739594  52.7280105 106.5736263  46.9067498
  51.9451507 107.6296532  47.6576258  54.9965324 110.3543822  41.7902036
  54.3275699 110.8389950  41.3066076  54.8578193 110.6013043  42.7045415
  46.7344323  99.8898175  45.4944037  46.7728423  99.3561766  46.2881155
  46.2284616  99.3633381  44.8755014  59.1370592 112.3887566  48.3884695
  59.6888900 112.5519187  49.1533780  59.4776786 112.9792004  47.7164720
  54.1135085  94.7362716  48.9906579  54.1776412  95.5977547  48.5783977
  54.0502206  94.1236717  48.2578938  53.5887358  96.8085848  52.6379614
  54.2159397  96.4262926  53.2517138  52.7315277  96.5900050  53.0035306
  50.3652901  98.6162277  38.5697969  50.6606342  97.7072956  38.5165022
  49.4640936  98.5950017  38.2478971  62.2738979 110.3369541  45.3748377
  62.1490119 109.5359281  44.8659322  62.9318071 110.8315735  44.8862347
  53.8947148  96.6918274  44.5525517  53.1733733  97.3054242  44.4132990
  54.6840403  97.2276039  44.4742163  64.3373888 108.1378561  47.0027927
  63.3904223 108.0183913  46.9306254  64.6856661 107.2501060  47.0854188
  52.0940742  96.2976375  38.6937294  51.7653448  95.4173754  38.5112400
  52.4480113  96.2424044  39.5813683  61.3420321 107.9331278  43.2032279
  61.1945284 107.0047985  43.3839849  62.1673815 107.9551368  42.7189355
  55.2082565  96.5849345  39.0612771  55.5478638  97.1135266  38.3391380
  55.6554686  96.9229751  39.8371338  64.9454443 108.7559836  44.2897152
  65.8700990 108.5502698  44.1521603  64.7769746 108.5076238  45.1986494
  57.9026006  94.9686396  48.5115839  57.5622827  94.1694209  48.9136519
  57.1965013  95.2688106  47.9392673  57.1950713  95.0823966  37.2606064
  57.9159075  95.4605219  36.7569781  56.5716017  95.8012843  37.3641042
  56.0781057  98.7454829  44.7735141  55.9325638  99.0595132  45.6659423
  55.6006260  99.3639729  44.2206040  57.9377440  95.7357377  44.8216031
  57.9239008  94.8398470  44.4848329  58.6549868  95.7428040  45.4554317
  64.7349759 109.2745504  39.6459243  64.9086637 108.7091926  38.8933096
  65.2278650 110.0746399  39.4638733  50.5526719 101.2860173  47.7122802
  50.0080187 102.0619981  47.8443077  51.4306069 101.6330977  47.5541924
  65.7224932 108.5912268  36.7456142  66.4175836 109.2118961  36.9643456
  66.0648082 107.7407620  37.0208520  51.3392741 100.4130069  50.6052959
  50.5974477 100.5612705  51.1917590  51.0185485 100.6738335  49.7419709
  67.6216355 106.0411974  38.2743473  68.1467679 106.3799247  37.5492793
  67.5338707 105.1058989  38.0906607  59.2836403 109.9546047  50.4033349
  59.5923530 109.7095194  51.2756049  60.0811886 110.1592686  49.9152219
  59.3057016 112.1083957  42.6338726  58.8662006 111.6160336  43.3271582
  60.0565132 111.5656925  42.3930801  51.7849355 108.2995498  42.6363354
  52.6107374 107.9999270  42.2561997  51.4343407 107.5303120  43.0853142
  56.7530888 107.6521966  44.7061027  56.1310897 106.9892671  44.4063255
  57.4235755 107.6783098  44.0234675  49.9857960 106.2181824  43.5952287
  49.1489868 105.7903999  43.4136289  49.9581605 106.4114268  44.5323079
  56.3144395 106.2025890  38.1819488  56.4632515 106.8861354  37.5286161
  57.1210838 106.1830980  38.6968944  54.0697028 102.2291067  39.1880557
  53.8243070 101.3253397  39.3860767  54.2392942 102.2308218  38.2460035
  53.3392675  97.9619425  36.6866718  52.6461920  98.0363780  36.0306754
  53.0944427  97.1979768  37.2088235  59.8139800 108.6974020  35.6531235
  59.2413767 109.3164207  35.2001707  60.3872594 109.2473382  36.1871157
  63.0337060 108.9811170  36.7839818  63.9667733 108.9156732  36.9872693
  62.9460273 109.8167437  36.3254350  65.6625077 108.2977040  33.7443765
  65.5838708 107.9636904  34.6379523  66.4834743 108.7898808  33.7435238
  60.1986599 100.0334833  32.9947288  61.1445703  99.9041041  33.0635706
  59.8200844  99.2949495  33.4716716  60.0825291 104.0852579  54.4547945
  61.0028301 104.2631178  54.6487991  60.0474874 103.1408624  54.3027644
  58.3829516  97.9584809  32.9302173  57.4760971  97.6617922  33.0064887
  58.6605497  97.6614627  32.0636459  49.3007456  99.2791173  43.3801219
  48.9810241  98.4256481  43.0875593  48.7540884  99.4939751  44.1359187
  53.0787364 101.9953614  47.0970726  53.2973373 102.9270721  47.1158760
  53.4913138 101.6361588  47.8825530  57.1528300  94.8171744  33.0714152
  58.0147464  95.1426643  33.3309970  57.3378645  94.0303240  32.5587218
  49.1695716 102.8994084  45.3494341  48.4759188 102.4848037  44.8364295
  49.9168707 102.9414621  44.7527760  51.0832459 102.8312338  43.2260356
  51.0603147 102.9300025  42.2742239  51.3933095 103.6777489  43.5477522
  53.7419837 104.8888493  47.3406970  54.6963090 104.8572435  47.2736902
  53.5432360 104.4279117  48.1557196  54.3319219 103.4589609  49.9077768
  55.1512108 103.9533688  49.9312605  54.6056026 102.5421577  49.8795336
  52.0970065 110.4308112  44.3577168  51.9624533 109.6708513  43.7915166
  51.6802128 111.1549012  43.8905957  63.2329028 105.6145036  33.3653744
  63.9364878 105.8195038  33.9811399  62.5091677 106.1821798  33.6302827
  55.2539191 111.3277429  44.5695611  55.1371575 112.2722862  44.4674301
  54.4331638 111.0250991  44.9581410  65.1415726 106.0527565  35.4152204
  65.9761330 105.6208764  35.2329678  64.9800069 105.8809579  36.3429098
  64.7961618 102.5559678  36.7808543  64.7410422 102.3903950  35.8396987
  64.1707673 103.2635711  36.9370733  49.5854133  97.7927743  50.6069965
  50.2312997  97.2826697  51.0957190  49.3771284  98.5296424  51.1813390
  62.1107525 104.8608590  56.1062106  62.9798685 105.0349243  55.7448741
  61.6314277 105.6803007  55.9837835  58.1057743  92.0567787  36.3593861
  58.0936413  93.0009627  36.5162132  58.9981165  91.8737933  36.0653322
  56.2793705 111.9805691  47.7851539  57.1820952 112.0129301  48.1018034
  56.0531075 111.0506142  47.7997875  58.0347307 110.7336678  44.4461618
  57.0842938 110.7338539  44.3325990  58.3379794 109.9869412  43.9297653
  61.9209863  88.6510564  40.6139798  61.1542259  88.0969051  40.7596480
  62.3320568  88.7232433  41.4753950  73.7700001 116.5697216  45.5107380
  74.4078411 116.4503964  44.8070720  73.6520844 117.5178060  45.5695332
  70.5789707 116.5224644  45.4468905  70.2408219 116.4065709  44.5589440
  71.4479475 116.1215809  45.4269911  66.4376523 118.3760121  41.4365796
  65.8741388 118.2850058  40.6682084  66.3228918 117.5560025  41.9168288
  71.0609490 117.6759496  51.4055111  71.0498131 117.2812294  50.5335614
  71.2230130 116.9425569  51.9988882  63.9840955 119.8711312  44.2750016
  64.7762247 119.5302137  43.8596316  64.2237605 119.9806287  45.1952170
  72.0176082 122.0431088  36.7480261  71.3664061 122.6285169  36.3614275
  72.8120444 122.5737283  36.8075298  65.9431709 119.1320226  37.1467395
  66.7162585 118.5849213  37.0080271  66.2957108 119.9964475  37.3581857
  67.7816751 120.4596608  50.3534295  67.4906617 121.3642239  50.2380961
  68.4173736 120.5013135  51.0678364  68.7072958 117.8373456  46.9435654
  69.3036530 117.6129479  46.2292617  68.7647930 117.0958202  47.5461102
  68.2797987 115.2912892  34.7785845  68.5323507 114.7694413  34.0169308
  67.3422546 115.1279037  34.8812529  73.3241269 114.2948670  42.5860588
  74.1104359 113.8768093  42.2351005  73.5879974 115.1994762  42.7542237
  73.4951347 119.7321520  37.2849245  72.8597180 119.8056147  37.9970150
  73.1648753 120.3215119  36.6068324  78.7249696 114.2323903  43.4893567
  79.4574868 113.6623120  43.7231396  77.9689052 113.8445504  43.9300072
  67.9994275 117.1940998  36.9810220  67.8830533 116.5185901  37.6491304
  68.1096535 116.7073372  36.1642373  70.3425816 116.6551145  40.6856909
  69.9784023 116.1281766  41.3969831  71.1992932 116.2649614  40.5123395
  69.9831303 111.6841044  35.6818258  70.1505706 112.5521281  36.0488729
  69.7928472 111.8468326  34.7579547  72.7406636 120.1458023  47.3484088
  72.4407359 121.0483062  47.2399895  72.3957696 119.8790207  48.2005241
  66.1919118 116.5971820  43.3820793  65.2669614 116.4648034  43.5898484
  66.4403531 117.3766039  43.8790735  76.1403780 112.6640563  45.0281526
  75.2320657 112.5955972  44.7340286  76.0891376 113.1412508  45.8563351
  69.9620524 114.1398702  36.6664925  69.8420149 114.5855753  37.5050405
  69.2673112 114.4884020  36.1078463  63.5527929 116.2405094  44.2164582
  63.6820310 116.4939573  45.1303993  62.8725380 116.8332802  43.8969237
  67.7227416 126.9102344  40.3155056  67.6451446 127.8610169  40.3943536
  67.1189060 126.5648216  40.9729982  70.2144646 114.0830209  52.9716423
  69.4377980 114.6424129  52.9619287  70.8535209 114.5686992  53.4931293
  78.0065427 110.8657002  46.8059399  77.3639807 111.1589535  46.1599194
  77.5020355 110.7509922  47.6112596  75.6605590 114.6120175  37.4945259
  76.5723446 114.8447562  37.3192956  75.1515237 115.1957219  36.9320337
  68.4691018 116.8915662  52.5334390  69.2105703 117.4300706  52.2569213
  67.7628004 117.5181951  52.6905942  73.9446358 119.0344803  51.1306551
  74.3529714 118.5927213  50.3861184  73.2223619 118.4597430  51.3840744
  70.2977428 113.9717410  48.5040108  71.1438623 114.3956823  48.6474757
  70.2376066 113.3151034  49.1978671  74.2675173 119.5945994  44.8858840
  73.6384035 119.7591708  44.1834908  73.8800835 120.0087603  45.6569804
  78.1464404 120.5300431  42.2403204  77.4615443 120.9099333  41.6900237
  78.2308254 121.1395758  42.9735152  73.4476873 111.6321778  50.1621282
  73.2037805 112.3863839  49.6255558  73.7236804 112.0107126  50.9968529
  75.4015336 118.1760390  48.8398547  75.6132231 118.8192150  48.1632929
  75.3545084 117.3422707  48.3720478  73.0041565 110.7878211  45.7435120
  72.1426044 111.0859465  46.0351857  73.0304000 111.0048610  44.8116152
  69.8203134 119.3320402  42.1508925  70.2841480 119.6108105  41.3613548
  69.5559933 118.4303846  41.9682016  66.7127215 118.8791883  45.0888689
  67.2828573 119.3079152  44.4506173  67.3035327 118.5974468  45.7872874
  68.7572020 115.4543554  38.9598490  69.4596064 115.9064598  39.4272417
  68.4252649 114.8127373  39.5878384  67.2052382 114.0455311  53.3349700
  66.5751043 114.7271591  53.5685097  67.0988470 113.9338392  52.3902838
  62.4997354 113.7127107  44.2615624  61.7096408 113.9684635  43.7855735
  62.9908602 114.5275445  44.3667665  76.5161164 121.0532346  47.0120905
  77.3378608 120.6512533  46.7303586  76.5123567 120.9500580  47.9637021
  64.4512100 114.0771686  41.2199101  63.6543263 114.1890380  41.7382596
  64.2237692 114.4158338  40.3539991  70.2817767 120.6016389  49.1681615
  70.3462200 121.0636796  50.0039787  69.5728691 119.9713754  49.2963925
  60.7835057 113.9657597  46.6930615  61.0343096 114.8504607  46.9588191
  61.3194606 113.7862199  45.9205707  84.6067157 117.3971094  43.3605876
  83.8530865 116.8278492  43.2049881  84.7414698 117.3633759  44.3076511
  69.9965785 122.2684497  39.0360596  69.8611460 123.1136032  39.4645443
  70.5375598 122.4703774  38.2726529  63.4495182 119.7859935  39.6088521
  63.9619703 120.5803185  39.7594085  64.1017895 119.0886225  39.5422122
  65.2590067 122.9025691  41.6911274  65.4356696 123.8243656  41.5032258
  66.0546901 122.5884110  42.1205654  64.5442424 114.9490323  51.5673437
  64.4295939 114.0475580  51.8680536  63.6886941 115.1954020  51.2158254
  71.6234261 122.8908063  53.1660938  71.1798116 122.1044442  52.8481842
  72.2851475 123.0787214  52.5004828  66.3821383 124.4203865  47.6921616
  66.9328808 124.2920928  46.9198610  65.5432859 124.7198754  47.3416509
  73.7215500 123.1710863  51.1942339  73.7033975 123.9919744  50.7022608
  74.6435420 123.0464938  51.4192480  70.1788554 120.6854993  52.0365847
  70.7116890 119.9243281  51.8065155  69.6502635 120.3928644  52.7790002
  61.4144099 118.1148589  40.3848091  62.2519321 118.5245597  40.1681799
  61.5922367 117.1748031  40.3548285  73.3108531 115.7823670  36.0731924
  72.7955155 116.5528274  36.3120312  73.0385840 115.1088806  36.6964986
  70.8955642 110.6273370  41.1317163  70.0397239 110.2380221  40.9522801
  71.3082594 110.7065331  40.2716948  78.2842805 118.5356024  38.0085098
  77.5072248 118.1967184  37.5640260  78.9634286 118.5408647  37.3340063
  73.0994835 113.6550762  37.8991705  72.7944970 113.9696911  38.7501849
  74.0525277 113.7332182  37.9419038  71.5441266 119.8140985  39.5484659
  71.0162628 119.0793745  39.2357897  71.0428769 120.5915661  39.3024628
  76.5234112 118.0090005  44.6651706  75.8657787 118.6989267  44.7531834
  77.3274512 118.3986437  45.0085692  66.2759994 110.4760651  41.9091271
  66.8503746 110.2535833  41.1764464  66.8630976 110.5449346  42.6619872
  75.3339571 116.3634378  42.7155647  75.8471453 116.9964370  43.2177357
  75.9840795 115.7635574  42.3499007  66.6029581 112.5065112  35.9287156
  65.7666893 112.8439799  36.2496431  66.4634351 112.3714092  34.9914293
  68.5782662 107.3501900  40.6366340  67.9247074 107.0350917  40.0122955
  68.5363136 106.7277641  41.3626163  69.6893867 117.6321195  32.5519632
  68.7820928 117.4010449  32.7510781  70.1864899 116.8358815  32.7393614
  72.5961945 126.3418702  35.4716319  71.9223644 126.6450399  36.0801276
  72.9827767 127.1447783  35.1221776  71.8120402 113.8383834  44.9613988
  70.8942963 114.0598781  44.8035676  72.2280546 113.9130144  44.1025695
  72.5955450 115.2375249  40.0916668  73.3427269 115.7496647  39.7823790
  72.8647039 114.9159302  40.9521062  70.8682100 117.7333790  37.0743622
  69.9593319 117.4492823  37.1716092  70.8977184 118.1532869  36.2146929
  76.1001367 121.3440380  40.8434790  75.6463695 120.5031290  40.8999981
  75.4695334 121.9801778  41.1809570  75.0434287 112.2732366  42.0735457
  74.3057044 111.7609752  42.4045700  75.2961061 111.8332747  41.2618734
  74.5434307 123.1816876  41.7784608  74.8357281 123.7421933  41.0596974
  75.0532927 123.4745437  42.5337767  61.4370270 115.4539304  41.0558825
  61.2394670 114.8608665  40.3309891  60.8816934 115.1491514  41.7734763
  69.4166994 115.3462411  43.1753418  69.4715604 114.3936247  43.0995894
  68.6058196 115.5021850  43.6594716  70.5658188 119.2742534  34.4131701
  70.1277618 118.5578393  33.9537338  71.3068629 119.5018649  33.8516792
  67.3559354 113.9639470  40.9343797  66.5427220 114.2633641  41.3408989
  67.8518348 113.5695159  41.6518279  69.5067932 123.9597227  42.8678061
  69.4644111 124.1858074  41.9386593  70.4230631 123.7260602  43.0163863
  72.9533566 114.4281295  49.7658691  73.3082953 114.6552768  50.6253156
  73.6005697 114.7599672  49.1435946  78.6831303 117.5499731  40.4708020
  78.5449201 117.7401327  39.5429209  78.3267521 118.3119114  40.9276071
  66.8473429 111.5357826  46.5505032  67.4872808 111.3946585  45.8527995
  66.0150959 111.2492339  46.1743634  78.7100682 119.6176258  45.4819291
  79.1437189 119.5251547  46.3302345  79.4232263 119.5933758  44.8439307
  67.6233733 120.8360256  42.6640024  68.4174331 120.3410577  42.4622599
  66.9125425 120.3078120  42.3007730  72.4428577 123.2178352  47.0152392
  72.4965599 123.7869288  47.7830108  71.5743358 123.3880237  46.6506429
  63.9316496 114.9803338  38.7399777  63.0014084 114.9187794  38.9569739
  64.0273968 114.4579291  37.9436418  63.8502045 111.5058151  41.3278018
  64.1108862 112.4203484  41.2187179  64.6719217 111.0382594  41.4774631
  65.3226970 112.9195908  48.4976843  65.9950024 112.7113270  47.8489492
  64.4956757 112.7217994  48.0582075  79.5716232 119.6599959  48.0152177
  79.7652122 120.5645769  48.2611451  79.4716850 119.2007378  48.8490762
  74.6331340 119.8106701  53.5893057  74.4816847 119.5817253  52.6723141
  74.6236020 120.7677303  53.6024402  71.4016677 117.3838614  48.5739324
  72.3308737 117.5349774  48.4008291  70.9807707 117.4722635  47.7187970
  70.2005009 121.4089278  46.3437861  70.0616094 121.0408063  47.2163799
  69.4119605 121.9236918  46.1721819  70.7953161 126.5098375  37.6863398
  70.9704916 126.0386418  38.5009020  70.1085949 127.1364141  37.9144658
  71.7510224 120.7870881  43.7326699  71.4160056 120.7471651  44.6284349
  71.2514169 120.1215597  43.2597109  65.7254468 116.1938511  49.2579280
  65.5874266 115.4618750  49.8590819  66.6359391 116.1047411  48.9763468
  74.6869415 118.1326915  34.0063759  74.0698586 117.4073744  33.9096811
  74.2185904 118.8936276  33.6630833  68.3536768 115.9058470  48.7462960
  69.0636387 115.2651663  48.7049578  68.3106077 116.1571365  49.6689141
  76.3423547 122.8425824  51.6669539  76.2836093 122.1585044  51.0000122
  76.7443065 123.5844814  51.2150165  67.0665702 112.8923688  50.5658599
  66.5303059 112.4414427  51.2180196  66.4782411 113.0269597  49.8229064
  65.3614246 129.6587738  44.4603258  65.6010844 130.2906262  45.1382276
  64.5183442 129.3075778  44.7468617  66.4767961 112.3512340  33.1285063
  65.5997428 112.2301141  32.7647310  66.9525714 111.5598418  32.8763952
  76.3440954 120.8065408  49.8983519  75.4567733 120.4691330  50.0209918
  76.9139505 120.0748439  50.1352284  57.9970101 117.1389499  43.2226570
  58.6841141 116.8251230  42.6347585  57.8418230 118.0430864  42.9493821
  62.8004824 112.0279696  47.6511594  62.7163012 111.4205366  46.9162004
  61.9787530 112.5188714  47.6521090  69.8742108 125.4666860  46.8644762
  69.8012279 126.2721832  47.3764066  69.4319501 125.6658826  46.0392783
  69.6631887 124.7038630  40.3747583  68.8799409 125.2460310  40.4685808
  70.3624633 125.2212610  40.7741825  72.9728537 110.5133260  43.0181789
  73.4697237 109.7603222  42.6982859  72.2015519 110.5497576  42.4524998
  80.8258295 116.2173625  44.6600080  80.8148171 117.0998341  44.2894013
  79.9575674 115.8645176  44.4654617  72.3340791 125.3653694  49.0202921
  73.0468763 126.0001159  48.9478822  71.8430820 125.4617560  48.2042922
  74.0558318 119.2704947  40.5920212  73.1214597 119.3906409  40.4224917
  74.2334987 118.3677414  40.3280222  69.5563506 112.6550643  42.7453473
  69.1861294 112.1021683  43.4334379  70.0522599 112.0508776  42.1928473
  77.4430870 115.1122266  41.1270246  77.9091322 115.9450258  41.0530549
  77.8938370 114.6467248  41.8315505  67.3852705 123.1148138  49.8408491
  68.0862164 123.7484621  49.9937886  66.9147820 123.4562869  49.0804131
  75.5107101 121.4566087  38.1256398  75.7866945 121.3422682  39.0350272
  74.6411599 121.0583572  38.0868571  75.1853991 115.6692745  47.6661042
  74.5325441 115.9168652  47.0113494  75.5634371 114.8556883  47.3323519
  72.1461165 125.7052438  41.7689212  72.3283559 124.8874094  42.2316964
  72.9694151 125.9220130  41.3314102  72.4803330 124.6320623  39.0304261
  73.0091097 124.1213078  38.4174423  72.7431550 124.3163154  39.8949794
  71.2341564 116.4112556  54.1527079  70.5582201 116.3106685  54.8229454
  72.0569198 116.2551770  54.6163076  62.9820423 122.6484493  46.7739594
  63.5673860 121.9028181  46.9067498  62.7845261 122.9588449  47.6576258
  65.8359078 125.6835740  41.7902036  65.1669453 126.1681868  41.3066076
  65.6971948 125.9304960  42.7045415  57.5738078 115.2190093  45.4944037
  57.6122177 114.6853684  46.2881155  57.0678370 114.6925298  44.8755014
  69.9764347 127.7179484  48.3884695  70.5282655 127.8811105  49.1533780
  70.3170540 128.3083921  47.7164720  64.9528840 110.0654633  48.9906579
  65.0170166 110.9269464  48.5783977  64.8895960 109.4528635  48.2578938
  64.4281112 112.1377766  52.6379614  65.0553151 111.7554843  53.2517138
  63.5709031 111.9191968  53.0035306  74.8275221 122.5440741  54.2433349
  75.3715125 123.1570699  53.7488304  74.2462066 123.1020319  54.7600362
  61.2046655 113.9454195  38.5697969  61.5000096 113.0364873  38.5165022
  60.3034691 113.9241934  38.2478971  73.1132734 125.6661459  45.3748377
  72.9883873 124.8651199  44.8659322  73.7711825 126.1607652  44.8862347
  64.7340902 112.0210192  44.5525517  64.0127488 112.6346159  44.4132990
  65.5234158 112.5567956  44.4742163  75.1767642 123.4670479  47.0027927
  74.2297978 123.3475830  46.9306254  75.5250415 122.5792977  47.0854188
  62.9334497 111.6268293  38.6937294  62.6047203 110.7465672  38.5112400
  63.2873867 111.5715961  39.5813683  72.1814076 123.2623195  43.2032279
  72.0339038 122.3339903  43.3839849  73.0067569 123.2843286  42.7189355
  66.0476320 111.9141262  39.0612771  66.3872392 112.4427184  38.3391380
  66.4948440 112.2521669  39.8371338  75.7848197 124.0851754  44.2897152
  76.7094745 123.8794615  44.1521603  75.6163501 123.8368155  45.1986494
  68.7419761 110.2978313  48.5115839  68.4016581 109.4986126  48.9136519
  68.0358767 110.5980024  47.9392673  68.0344467 110.4115884  37.2606064
  68.7552830 110.7897137  36.7569781  67.4109771 111.1304761  37.3641042
  72.1775590 111.1161033  38.1964397  72.3939204 111.9985671  37.8953225
  71.6969657 110.7247246  37.4670039  66.9174811 114.0746746  44.7735141
  66.7719392 114.3887049  45.6659423  66.4400015 114.6931647  44.2206040
  68.7771194 111.0649294  44.8216031  68.7632763 110.1690388  44.4848329
  69.4943622 111.0719958  45.4554317  70.6297325 111.4986634  46.8669158
  70.3715103 112.4203705  46.8653489  70.0982365 111.1017069  47.5569622
  75.5743514 124.6037422  39.6459243  75.7480391 124.0383844  38.8933096
  76.0672405 125.4038316  39.4638733  61.3920473 116.6152091  47.7122802
  60.8473942 117.3911899  47.8443077  62.2699823 116.9622895  47.5541924
  68.1808090 109.9463675  40.0903601  68.3024001 109.0180321  40.2894488
  67.8910133 109.9602360  39.1781916  81.4282905 117.3673844  41.2649543
  81.8714051 116.6181170  40.8668666  80.5509415 117.3583981  40.8823275
  76.5618686 123.9204186  36.7456142  77.2569591 124.5410879  36.9643456
  76.9041836 123.0699537  37.0208520  62.1786495 115.7421987  50.6052959
  61.4368231 115.8904622  51.1917590  61.8579240 116.0030253  49.7419709
  78.4610109 121.3703891  38.2743473  78.9861433 121.7091164  37.5492793
  78.3732462 120.4350907  38.0906607  70.1230158 125.2837965  50.4033349
  70.4317284 125.0387112  51.2756049  70.9205640 125.4884604  49.9152219
  70.1450770 127.4375875  42.6338726  69.7055760 126.9452253  43.3271582
  70.8958887 126.8948842  42.3930801  62.6243109 123.6287416  42.6363354
  63.4501129 123.3291187  42.2561997  62.2737161 122.8595038  43.0853142
  67.5924642 122.9813884  44.7061027  66.9704651 122.3184589  44.4063255
  68.2629509 123.0075016  44.0234675  60.8251714 121.5473742  43.5952287
  59.9883622 121.1195916  43.4136289  60.7975359 121.7406185  44.5323079
  78.1504015 122.0036795  53.5794670  77.3599559 121.9860934  53.0399170
  77.9137370 122.5425089  54.3343707  78.2701890 118.8529262  50.8927399
  78.3199895 118.6879269  51.8342922  78.1615814 117.9856521  50.5025280
  67.1538149 121.5317807  38.1819488  67.3026269 122.2153272  37.5286161
  67.9604593 121.5122897  38.6968944  75.5605653 114.8360190  52.2086706
  76.4615516 114.6966654  51.9170704  75.6353627 115.0014644  53.1484883
  69.8948458 112.2127044  51.0539892  69.0251768 112.5060610  50.7822481
  70.1307938 112.7967489  51.7747156  79.7720087 121.2726203  51.1369421
  79.4804896 121.6356184  51.9732882  79.1592219 120.5593211  50.9582753
  80.9715770 118.8379083  43.6571991  81.8062661 119.2768887  43.8209551
  81.1074898 118.3617736  42.8380237  78.0207275 116.3958818  49.6049479
  78.4961397 116.5886464  48.7968330  77.0972841 116.4518003  49.3592862
  64.9090782 117.5582985  39.1880557  64.6636824 116.6545315  39.3860767
  65.0786697 117.5600135  38.2460035  64.1786430 113.2911342  36.6866718
  63.4855675 113.3655697  36.0306754  63.9338182 112.5271686  37.2088235
  70.6533555 124.0265938  35.6531235  70.0807522 124.6456125  35.2001707
  71.2266348 124.5765299  36.1871157  76.7208944 113.2724578  47.8377784
  77.6726367 113.3722675  47.8590008  76.5512395 112.4802846  48.3475869
  74.7423324 110.3580161  48.0237185  74.1473256 110.6385174  47.3283674
  74.4573021 110.8474062  48.7953926  73.8730814 124.3103088  36.7839818
  74.8061488 124.2448649  36.9872693  73.7854027 125.1459355  36.3254350
  76.5018831 123.6268958  33.7443765  76.4232463 123.2928822  34.6379523
  77.3228498 124.1190726  33.7435238  79.1997022 116.4930697  46.9520084
  79.1673342 115.5546698  47.1379768  79.8097646 116.5714734  46.2185909
  71.0380353 115.3626750  32.9947288  71.9839458 115.2332959  33.0635706
  70.6594598 114.6241412  33.4716716  79.3491511 113.2841741  46.9978367
  78.8330559 112.5000197  46.8108296  80.2331459 112.9560457  47.1624886
  85.0173572 117.5546704  46.0926121  85.7476961 117.2931992  46.6533824
  84.4080518 116.8175426  46.1328189  83.0988869 115.6954567  46.6900572
  82.3722033 115.5610532  46.0817063  82.6836156 116.0031395  47.4957290
  70.9219046 119.4144497  54.4547945  71.8422055 119.5923096  54.6487991
  70.8868629 118.4700542  54.3027644  69.2223270 113.2876727  32.9302173
  68.3154726 112.9909839  33.0064887  69.4999251 112.9906545  32.0636459
  60.1401211 114.6083090  43.3801219  59.8203995 113.7548398  43.0875593
  59.5934639 114.8231668  44.1359187  63.9181118 117.3245531  47.0970726
  64.1367128 118.2562639  47.1158760  64.3306892 116.9653506  47.8825530
  70.8385336 107.8313616  39.0846414  70.0286064 107.4860701  39.4601660
  71.5269753 107.5221160  39.6734026  67.9922055 110.1463662  33.0714152
  68.8541219 110.4718560  33.3309970  68.1772399 109.3595158  32.5587218
  60.0089471 118.2286002  45.3494341  59.3152942 117.8139954  44.8364295
  60.7562462 118.2706538  44.7527760  76.1454691 109.0192188  40.2149375
  75.5653360 109.6776992  39.8327428  75.8790624 108.1969533  39.8036793
  68.6540254 116.3275876  55.3038537  68.1707335 117.1276236  55.5102426
  68.7401193 116.3383821  54.3505981  61.9226213 118.1604255  43.2260356
  61.8996901 118.2591943  42.2742239  62.2326850 119.0069406  43.5477522
  64.5813591 120.2180410  47.3406970  65.5356845 120.1864353  47.2736902
  64.3826115 119.7571034  48.1557196  65.1712973 118.7881527  49.9077768
  65.9905862 119.2825605  49.9312605  65.4449781 117.8713495  49.8795336
  74.9279569 111.1792279  39.2705724  74.0405424 111.4641929  39.0525918
  75.3433558 111.0186042  38.4233000  78.2794106 111.2038800  42.9860063
  79.0554496 111.6935252  43.2584680  77.5542240 111.6296854  43.4431932
  80.7166664 111.9166419  44.0434003  81.3111155 111.6762155  43.3327312
  80.7893248 111.1973550  44.6707540  62.9363820 125.7600030  44.3577168
  62.8018288 125.0000431  43.7915166  62.5195882 126.4840930  43.8905957
  74.0722783 120.9436954  33.3653744  74.7758633 121.1486956  33.9811399
  73.3485432 121.5113715  33.6302827  74.9020593 116.6946815  39.4856014
  74.8455795 117.1515366  38.6463646  75.4548936 115.9337499  39.3078856
  78.7125399 112.4836547  40.3106133  78.4562333 112.0833182  41.1414341
  78.0878267 113.1980341  40.1856272  83.0237737 115.2232620  42.8177425
  82.4637295 115.2925809  43.5908987  82.4181240 115.0473605  42.0976921
  66.0932946 126.6569347  44.5695611  65.9765330 127.6014779  44.4674301
  65.2725392 126.3542909  44.9581410  75.9809480 121.3819483  35.4152204
  76.8155084 120.9500681  35.2329678  75.8193823 121.2101496  36.3429098
  75.6355372 117.8851596  36.7808543  75.5804176 117.7195867  35.8396987
  75.0101428 118.5927629  36.9370733  60.4247887 113.1219660  50.6069965
  61.0706751 112.6118614  51.0957190  60.2165039 113.8588342  51.1813390
  72.9501280 120.1900508  56.1062106  73.8192439 120.3641160  55.7448741
  72.4708031 121.0094925  55.9837835  68.9451498 107.3859705  36.3593861
  68.9330168 108.3301545  36.5162132  69.8374920 107.2029850  36.0653322
  67.1187460 127.3097609  47.7851539  68.0214707 127.3421219  48.1018034
  66.8924830 126.3798060  47.7997875  68.8741062 126.0628595  44.4461618
  67.9236693 126.0630457  44.3325990  69.1773548 125.3161330  43.9297653
  64.7645378 110.2687277  54.7044979  65.6276840 109.9124082  54.9148304
  64.1910789 109.9301172  55.3920384  84.6093755 131.8989134  45.5107380
  85.2472165 131.7795881  44.8070720  84.4914598 132.8469978  45.5695332
  81.4183462 131.8516562  45.4468905  81.0801973 131.7357627  44.5589440
  82.2873230 131.4507727  45.4269911  77.2770277 133.7052038  41.4365796
  76.7135142 133.6141975  40.6682084  77.1622672 132.8851943  41.9168288
  81.9003245 133.0051414  51.4055111  81.8891885 132.6104212  50.5335614
  82.0623884 132.2717486  51.9988882  74.8234709 135.2003230  44.2750016
  75.6156001 134.8594055  43.8596316  75.0631359 135.3098205  45.1952170
  82.8569836 137.3723006  36.7480261  82.2057816 137.9577086  36.3614275
  83.6514199 137.9029201  36.8075298  76.7825463 134.4612143  37.1467395
  77.5556339 133.9141130  37.0080271  77.1350862 135.3256393  37.3581857
  78.6210506 135.7888525  50.3534295  78.3300372 136.6934156  50.2380961
  79.2567490 135.8305053  51.0678364  79.5466713 133.1665374  46.9435654
  80.1430285 132.9421396  46.2292617  79.6041684 132.4250119  47.5461102
  79.1191741 130.6204809  34.7785845  79.3717262 130.0986331  34.0169308
  78.1816300 130.4570955  34.8812529  84.1635024 129.6240588  42.5860588
  84.9498113 129.2060011  42.2351005  84.4273728 130.5286680  42.7542237
  84.3345101 135.0613438  37.2849245  83.6990934 135.1348065  37.9970150
  84.0042508 135.6507037  36.6068324  89.5643451 129.5615821  43.4893567
  90.2968623 128.9915038  43.7231396  88.8082807 129.1737421  43.9300072
  78.8388030 132.5232915  36.9810220  78.7224288 131.8477819  37.6491304
  78.9490290 132.0365289  36.1642373  81.1819571 131.9843062  40.6856909
  80.8177778 131.4573683  41.3969831  82.0386687 131.5941531  40.5123395
  87.0868871 123.2737395  47.9488175  86.7552196 124.1432806  47.7249390
  86.4914485 122.9573679  48.6282206  80.8225058 127.0132962  35.6818258
  80.9899460 127.8813198  36.0488729  80.6322227 127.1760244  34.7579547
  83.5800391 135.4749941  47.3484088  83.2801114 136.3774980  47.2399895
  83.2351450 135.2082124  48.2005241  77.0312872 131.9263738  43.3820793
  76.1063369 131.7939952  43.5898484  77.2797286 132.7057957  43.8790735
  86.9797535 127.9932481  45.0281526  86.0714412 127.9247890  44.7340286
  86.9285130 128.4704426  45.8563351  80.8014279 129.4690620  36.6664925
  80.6813904 129.9147670  37.5050405  80.1066867 129.8175937  36.1078463
  74.3921683 131.5697011  44.2164582  74.5214065 131.8231490  45.1303993
  73.7119135 132.1624719  43.8969237  78.5621171 142.2394261  40.3155056
  78.4845200 143.1902086  40.3943536  77.9582814 141.8940134  40.9729982
  81.0538400 129.4122127  52.9716423  80.2771734 129.9716047  52.9619287
  81.6928963 129.8978910  53.4931293  88.8459181 126.1948920  46.8059399
  88.2033561 126.4881453  46.1599194  88.3414110 126.0801840  47.6112596
  86.4999345 129.9412093  37.4945259  87.4117201 130.1739480  37.3192956
  85.9908992 130.5249137  36.9320337  79.3084773 132.2207580  52.5334390
  80.0499457 132.7592624  52.2569213  78.6021758 132.8473869  52.6905942
  84.7840112 134.3636721  51.1306551  85.1923468 133.9219131  50.3861184
  84.0617374 133.7889348  51.3840744  81.1371182 129.3009327  48.5040108
  81.9832378 129.7248741  48.6474757  81.0769820 128.6442952  49.1978671
  85.1068927 134.9237911  44.8858840  84.4777789 135.0883625  44.1834908
  84.7194589 135.3379521  45.6569804  88.9858159 135.8592349  42.2403204
  88.3009197 136.2391250  41.6900237  89.0702008 136.4687676  42.9735152
  84.2870628 126.9613696  50.1621282  84.0431560 127.7155756  49.6255558
  84.5630558 127.3399043  50.9968529  86.2409091 133.5052308  48.8398547
  86.4525986 134.1484068  48.1632929  86.1938839 132.6714625  48.3720478
  83.8435319 126.1170129  45.7435120  82.9819799 126.4151382  46.0351857
  83.8697754 126.3340528  44.8116152  80.6596889 134.6612319  42.1508925
  81.1235234 134.9400022  41.3613548  80.3953687 133.7595764  41.9682016
  77.5520970 134.2083801  45.0888689  78.1222327 134.6371069  44.4506173
  78.1429082 133.9266386  45.7872874  79.5965775 130.7835472  38.9598490
  80.2989818 131.2356515  39.4272417  79.2646403 130.1419291  39.5878384
  78.0446136 129.3747228  53.3349700  77.4144797 130.0563509  53.5685097
  77.9382224 129.2630310  52.3902838  73.3391109 129.0419024  44.2615624
  72.5490163 129.2976553  43.7855735  73.8302356 129.8567362  44.3667665
  87.3554918 136.3824264  47.0120905  88.1772362 135.9804451  46.7303586
  87.3517321 136.2792498  47.9637021  75.2905854 129.4063604  41.2199101
  74.4937018 129.5182298  41.7382596  75.0631446 129.7450256  40.3539991
  81.1211522 135.9308307  49.1681615  81.1855954 136.3928714  50.0039787
  80.4122446 135.3005672  49.2963925  71.6228812 129.2949515  46.6930615
  71.8736850 130.1796525  46.9588191  72.1588360 129.1154116  45.9205707
  95.4460912 132.7263012  43.3605876  94.6924620 132.1570410  43.2049881
  95.5808453 132.6925676  44.3076511  80.8359540 137.5976414  39.0360596
  80.7005214 138.4427950  39.4645443  81.3769352 137.7995692  38.2726529
  77.3226879 123.6767994  55.6974951  76.9293825 123.1234193  56.3722595
  78.1393020 123.9878573  56.0881468  74.2888937 135.1151852  39.6088521
  74.8013458 135.9095103  39.7594085  74.9411650 134.4178143  39.5422122
  76.0983822 138.2317609  41.6911274  76.2750450 139.1535573  41.5032258
  76.8940655 137.9176028  42.1205654  80.2394840 125.0925873  53.2895207
  80.9804554 125.6933026  53.2099670  80.4712763 124.3503511  52.7313250
  75.3836178 130.2782240  51.5673437  75.2689693 129.3767498  51.8680536
  74.5280696 130.5245937  51.2158254  82.4628016 138.2199981  53.1660938
  82.0191870 137.4336359  52.8481842  83.1245230 138.4079131  52.5004828
  77.2215137 139.7495782  47.6921616  77.7722562 139.6212846  46.9198610
  76.3826613 140.0490671  47.3416509  84.5609254 138.5002781  51.1942339
  84.5427729 139.3211662  50.7022608  85.4829174 138.3756856  51.4192480
  81.0182308 136.0146910  52.0365847  81.5510645 135.2535198  51.8065155
  80.4896389 135.7220562  52.7790002  84.1852003 121.1206976  47.5659489
  83.8416273 122.0108618  47.4898600  84.5530966 120.9308634  46.7029074
  72.2537854 133.4440507  40.3848091  73.0913076 133.8537515  40.1681799
  72.4316121 132.5039949  40.3548285  84.1502286 131.1115587  36.0731924
  83.6348909 131.8820192  36.3120312  83.8779594 130.4380723  36.6964986
  81.7349397 125.9565288  41.1317163  80.8790993 125.5672138  40.9522801
  82.1476349 126.0357249  40.2716948  83.2648544 123.4911631  45.5308722
  82.7613339 123.4541766  44.7176528  83.5579150 124.4004374  45.5905379
  79.5091429 123.5750361  44.5374904  80.3744426 123.3793170  44.1780794
  79.5768938 123.3460713  45.4644261  89.1236560 133.8647942  38.0085098
  88.3466003 133.5259101  37.5640260  89.8028041 133.8700565  37.3340063
  83.9388589 128.9842679  37.8991705  83.6338725 129.2988829  38.7501849
  84.8919031 129.0624099  37.9419038  82.3835021 135.1432903  39.5484659
  81.8556382 134.4085662  39.2357897  81.8822524 135.9207579  39.3024628
  87.3627867 133.3381923  44.6651706  86.7051541 134.0281185  44.7531834
  88.1668266 133.7278355  45.0085692  77.1153748 125.8052569  41.9091271
  77.6897500 125.5827750  41.1764464  77.7024731 125.8741263  42.6619872
  86.1733326 131.6926296  42.7155647  86.6865207 132.3256288  43.2177357
  86.8234550 131.0927491  42.3499007  77.4423336 127.8357030  35.9287156
  76.6060648 128.1731717  36.2496431  77.3028105 127.7006010  34.9914293
  79.4176416 122.6793818  40.6366340  78.7640829 122.3642835  40.0122955
  79.3756890 122.0569558  41.3626163  80.5287621 132.9613113  32.5519632
  79.6214683 132.7302366  32.7510781  81.0258653 132.1650732  32.7393614
  83.4355700 141.6710620  35.4716319  82.7617399 141.9742317  36.0801276
  83.8221522 142.4739700  35.1221776  82.6514157 129.1675751  44.9613988
  81.7336718 129.3890698  44.8035676  83.0674300 129.2422062  44.1025695
  83.4349204 130.5667167  40.0916668  84.1821023 131.0788564  39.7823790
  83.7040794 130.2451220  40.9521062  81.7075854 133.0625708  37.0743622
  80.7987074 132.7784741  37.1716092  81.7370938 133.4824786  36.2146929
  86.9395122 136.6732297  40.8434790  86.4857449 135.8323207  40.8999981
  86.3089089 137.3093696  41.1809570  85.8828041 127.6024283  42.0735457
  85.1450798 127.0901670  42.4045700  86.1354815 127.1624665  41.2618734
  85.3828061 138.5108794  41.7784608  85.6751036 139.0713851  41.0596974
  85.8926682 138.8037355  42.5337767  85.9839669 120.3800535  42.6677227
  86.2898546 119.5197899  42.3803142  86.7092274 120.9718156  42.4676221
  72.2764025 130.7831222  41.0558825  72.0788425 130.1900583  40.3309891
  71.7210689 130.4783432  41.7734763  80.2560749 130.6754328  43.1753418
  80.3109358 129.7228165  43.0995894  79.4451951 130.8313768  43.6594716
  81.4051942 134.6034451  34.4131701  80.9671372 133.8870310  33.9537338
  82.1462383 134.8310566  33.8516792  78.1953108 129.2931388  40.9343797
  77.3820974 129.5925559  41.3408989  78.6912103 128.8987077  41.6518279
  80.3461686 139.2889145  42.8678061  80.3037865 139.5149991  41.9386593
  81.2624385 139.0552520  43.0163863  83.7927320 129.7573213  49.7658691
  84.1476708 129.9844686  50.6253156  84.4399451 130.0891589  49.1435946
  89.5225057 132.8791649  40.4708020  89.3842956 133.0693244  39.5429209
  89.1661276 133.6411031  40.9276071  77.6867183 126.8649744  46.5505032
  78.3266563 126.7238503  45.8527995  76.8544714 126.5784257  46.1743634
  89.5494437 134.9468176  45.4819291  89.9830943 134.8543465  46.3302345
  90.2626017 134.9225676  44.8439307  78.4627487 136.1652174  42.6640024
  79.2568086 135.6702494  42.4622599  77.7519180 135.6370037  42.3007730
  83.2822332 138.5470270  47.0152392  83.3359354 139.1161206  47.7830108
  82.4137113 138.7172155  46.6506429  74.7710251 130.3095256  38.7399777
  73.8407839 130.2479711  38.9569739  74.8667723 129.7871209  37.9436418
  74.6895800 126.8350069  41.3278018  74.9502617 127.7495402  41.2187179
  75.5112972 126.3674511  41.4774631  76.1620725 128.2487826  48.4976843
  76.8343778 128.0405188  47.8489492  75.3350511 128.0509912  48.0582075
  90.4109986 134.9891876  48.0152177  90.6045876 135.8937687  48.2611451
  90.3110604 134.5299295  48.8490762  82.0646297 124.8749767  50.5142504
  81.4174212 125.5739716  50.4206980  82.8347312 125.3085911  50.8818752
  85.4725095 135.1398619  53.5893057  85.3210601 134.9109171  52.6723141
  85.4629774 136.0969220  53.6024402  82.2410431 132.7130532  48.5739324
  83.1702491 132.8641691  48.4008291  81.8201461 132.8014552  47.7187970
  81.0398763 136.7381196  46.3437861  80.9009849 136.3699980  47.2163799
  80.2513359 137.2528836  46.1721819  81.6346915 141.8390293  37.6863398
  81.8098671 141.3678336  38.5009020  80.9479703 142.4656059  37.9144658
  82.5903978 136.1162799  43.7326699  82.2553811 136.0763569  44.6284349
  82.0907924 135.4507515  43.2597109  76.5648222 131.5230429  49.2579280
  76.4268020 130.7910668  49.8590819  77.4753146 131.4339329  48.9763468
  85.5263170 133.4618833  34.0063759  84.9092341 132.7365661  33.9096811
  85.0579658 134.2228193  33.6630833  79.1930523 131.2350388  48.7462960
  79.9030141 130.5943580  48.7049578  79.1499831 131.4863283  49.6689141
  87.1817302 138.1717741  51.6669539  87.1229848 137.4876962  51.0000122
  87.5836820 138.9136731  51.2150165  77.9059457 128.2215606  50.5658599
  77.3696814 127.7706344  51.2180196  77.3176165 128.3561515  49.8229064
  76.2008000 144.9879655  44.4603258  76.4404599 145.6198179  45.1382276
  75.3577197 144.6367695  44.7468617  77.3161716 127.6804257  33.1285063
  76.4391182 127.5593058  32.7647310  77.7919469 126.8890336  32.8763952
  87.1834709 136.1357325  49.8983519  86.2961488 135.7983247  50.0209918
  87.7533260 135.4040357  50.1352284  68.8363856 132.4681417  43.2226570
  69.5234896 132.1543147  42.6347585  68.6811985 133.3722782  42.9493821
  73.6398578 127.3571614  47.6511594  73.5556767 126.7497283  46.9162004
  72.8181285 127.8480632  47.6521090  80.7135862 140.7958778  46.8644762
  80.6406034 141.6013749  47.3764066  80.2713255 140.9950744  46.0392783
  80.5025642 140.0330548  40.3747583  79.7193164 140.5752228  40.4685808
  81.2018387 140.5504527  40.7741825  83.8122292 125.8425177  43.0181789
  84.3090992 125.0895140  42.6982859  83.0409273 125.8789494  42.4524998
  91.6652049 131.5465543  44.6600080  91.6541926 132.4290258  44.2894013
  90.7969429 131.1937094  44.4654617  83.1734546 140.6945612  49.0202921
  83.8862518 141.3293077  48.9478822  82.6824574 140.7909478  48.2042922
  84.8952073 134.5996864  40.5920212  83.9608351 134.7198327  40.4224917
  85.0728741 133.6969331  40.3280222  80.3957261 127.9842560  42.7453473
  80.0255048 127.4313601  43.4334379  80.8916353 127.3800694  42.1928473
  88.2824624 130.4414184  41.1270246  88.7485076 131.2742175  41.0530549
  88.7332125 129.9759165  41.8315505  78.2246459 138.4440055  49.8408491
  78.9255919 139.0776538  49.9937886  77.7541574 138.7854787  49.0804131
  86.3500855 136.7858005  38.1256398  86.6260699 136.6714600  39.0350272
  85.4805354 136.3875490  38.0868571  86.2541287 122.8094771  45.1661148
  85.3404367 123.0398998  45.3343355  86.6834388 122.8933215  46.0175180
  86.0247745 130.9984663  47.6661042  85.3719195 131.2460570  47.0113494
  86.4028125 130.1848801  47.3323519  82.9854919 141.0344356  41.7689212
  83.1677314 140.2166012  42.2316964  83.8087905 141.2512048  41.3314102
  83.3197085 139.9612541  39.0304261  83.8484851 139.4504996  38.4174423
  83.5825304 139.6455071  39.8949794  82.0735318 131.7404474  54.1527079
  81.3975955 131.6398603  54.8229454  82.8962952 131.5843688  54.6163076
  73.8214177 137.9776410  46.7739594  74.4067614 137.2320098  46.9067498
  73.6239016 138.2880367  47.6576258  76.6752833 141.0127658  41.7902036
  76.0063208 141.4973785  41.3066076  76.5365702 141.2596878  42.7045415
  68.4131832 130.5482011  45.4944037  68.4515932 130.0145601  46.2881155
  67.9072125 130.0217216  44.8755014  80.8158101 143.0471401  48.3884695
  81.3676409 143.2103023  49.1533780  81.1564295 143.6375839  47.7164720
  75.7922594 125.3946551  48.9906579  75.8563921 126.2561382  48.5783977
  75.7289715 124.7820553  48.2578938  75.2674867 127.4669684  52.6379614
  75.8946906 127.0846761  53.2517138  74.4102786 127.2483886  53.0035306
  85.6668975 137.8732659  54.2433349  86.2108879 138.4862617  53.7488304
  85.0855820 138.4312237  54.7600362  72.0440410 129.2746113  38.5697969
  72.3393851 128.3656791  38.5165022  71.1428445 129.2533852  38.2478971
  83.9526488 140.9953377  45.3748377  83.8277628 140.1943117  44.8659322
  84.6105580 141.4899570  44.8862347  75.5734657 127.3502109  44.5525517
  74.8521242 127.9638077  44.4132990  76.3627912 127.8859874  44.4742163
  86.0161397 138.7962397  47.0027927  85.0691732 138.6767748  46.9306254
  86.3644170 137.9084895  47.0854188  78.3760970 124.6856536  50.8266169
  78.8995372 124.9318832  51.5892478  78.1573303 125.5176571  50.4069306
  73.7728251 126.9560210  38.6937294  73.4440957 126.0757589  38.5112400
  74.1267622 126.9007879  39.5813683  83.0207830 138.5915113  43.2032279
  82.8732793 137.6631820  43.3839849  83.8461324 138.6135204  42.7189355
  76.8870074 127.2433180  39.0612771  77.2266147 127.7719101  38.3391380
  77.3342195 127.5813586  39.8371338  86.6241952 139.4143672  44.2897152
  87.5488499 139.2086533  44.1521603  86.4557255 139.1660073  45.1986494
  79.5813515 125.6270231  48.5115839  79.2410336 124.8278044  48.9136519
  78.8752521 125.9271942  47.9392673  80.2329987 122.7119543  46.9643162
  81.0556056 122.2380021  46.8422053  80.4768051 123.4910027  47.4641849
  78.8738222 125.7407802  37.2606064  79.5946584 126.1189055  36.7569781
  78.2503526 126.4596679  37.3641042  83.0169344 126.4452951  38.1964397
  83.2332959 127.3277589  37.8953225  82.5363412 126.0539164  37.4670039
  77.7568566 129.4038664  44.7735141  77.6113147 129.7178967  45.6659423
  77.2793769 130.0223564  44.2206040  79.6164949 126.3941212  44.8216031
  79.6026517 125.4982305  44.4848329  80.3337377 126.4011876  45.4554317
  81.4691079 126.8278552  46.8669158  81.2108857 127.7495623  46.8653489
  80.9376120 126.4308987  47.5569622  86.4137268 139.9329339  39.6459243
  86.5874146 139.3675762  38.8933096  86.9066159 140.7330234  39.4638733
  72.2314228 131.9444008  47.7122802  71.6867696 132.7203816  47.8443077
  73.1093578 132.2914813  47.5541924  79.0201845 125.2755592  40.0903601
  79.1417756 124.3472238  40.2894488  78.7303887 125.2894278  39.1781916
  81.8893035 122.9610503  43.2270321  81.9114732 123.0249836  42.2722300
  82.3061094 122.1215011  43.4210827  92.2676659 132.6965762  41.2649543
  92.7107805 131.9473087  40.8668666  91.3903170 132.6875899  40.8823275
  87.4012441 139.2496104  36.7456142  88.0963345 139.8702796  36.9643456
  87.7435591 138.3991455  37.0208520  73.0180250 131.0713905  50.6052959
  72.2761986 131.2196540  51.1917590  72.6972994 131.3322170  49.7419709
  89.3003864 136.6995809  38.2743473  89.8255188 137.0383082  37.5492793
  89.2126216 135.7642824  38.0906607  80.9623912 140.6129883  50.4033349
  81.2711039 140.3679030  51.2756049  81.7599394 140.8176521  49.9152219
  80.9844525 142.7667792  42.6338726  80.5449515 142.2744171  43.3271582
  81.7352641 142.2240760  42.3930801  73.4636864 138.9579333  42.6363354
  74.2894883 138.6583105  42.2561997  73.1130915 138.1886956  43.0853142
  78.4318397 138.3105802  44.7061027  77.8098406 137.6476507  44.4063255
  79.1023264 138.3366933  44.0234675  71.6645469 136.8765660  43.5952287
  70.8277377 136.4487834  43.4136289  71.6369114 137.0698103  44.5323079
  78.5042924 126.7887590  54.2993533  78.5531080 127.6649712  53.9171303
  79.0465438 126.2464983  53.7265177  88.9897770 137.3328713  53.5794670
  88.1993314 137.3152852  53.0399170  88.7531124 137.8717006  54.3343707
  89.1095645 134.1821179  50.8927399  89.1593650 134.0171187  51.8342922
  89.0009568 133.3148438  50.5025280  77.9931904 136.8609725  38.1819488
  78.1420024 137.5445189  37.5286161  78.7998347 136.8414815  38.6968944
  86.3999407 130.1652107  52.2086706  87.3009270 130.0258572  51.9170704
  86.4747382 130.3306562  53.1484883  80.7342213 127.5418962  51.0539892
  79.8645522 127.8352528  50.7822481  80.9701693 128.1259407  51.7747156
  90.6113842 136.6018121  51.1369421  90.3198650 136.9648101  51.9732882
  89.9985973 135.8885129  50.9582753  91.8109524 134.1671000  43.6571991
  92.6456415 134.6060805  43.8209551  91.9468653 133.6909654  42.8380237
  88.8601030 131.7250735  49.6049479  89.3355152 131.9178382  48.7968330
  87.9366595 131.7809921  49.3592862  75.7484537 132.8874903  39.1880557
  75.5030579 131.9837233  39.3860767  75.9180451 132.8892053  38.2460035
  83.4381246 123.7598579  48.5705312  83.9563190 124.4959606  48.2451801
  83.0836379 124.0662572  49.4052072  75.0180184 128.6203260  36.6866718
  74.3249429 128.6947615  36.0306754  74.7731936 127.8563604  37.2088235
  83.6893841 120.1798861  44.0906209  83.9695594 119.5122050  44.7166636
  84.4744448 120.3727957  43.5780873  81.4927309 139.3557855  35.6531235
  80.9201276 139.9748042  35.2001707  82.0660103 139.9057217  36.1871157
  87.5602699 128.6016495  47.8377784  88.5120122 128.7014593  47.8590008
  87.3906149 127.8094764  48.3475869  85.5817078 125.6872079  48.0237185
  84.9867011 125.9677091  47.3283674  85.2966775 126.1765980  48.7953926
  84.7124569 139.6395005  36.7839818  85.6455242 139.5740567  36.9872693
  84.6247782 140.4751272  36.3254350  87.3412586 138.9560876  33.7443765
  87.2626217 138.6220739  34.6379523  88.1622252 139.4482644  33.7435238
  90.0390777 131.8222615  46.9520084  90.0067097 130.8838616  47.1379768
  90.6491400 131.9006652  46.2185909  81.8774108 130.6918668  32.9947288
  82.8233212 130.5624876  33.0635706  81.4988353 129.9533330  33.4716716
  90.1885265 128.6133659  46.9978367  89.6724314 127.8292115  46.8108296
  91.0725214 128.2852375  47.1624886  87.8495992 122.3574674  42.9574180
  87.6520813 122.0489762  43.8417512  88.4595698 123.0836313  43.0872110
  95.8567327 132.8838622  46.0926121  96.5870715 132.6223910  46.6533824
  95.2474272 132.1467344  46.1328189  93.9382624 131.0246485  46.6900572
  93.2115787 130.8902449  46.0817063  93.5229911 131.3323313  47.4957290
  81.7612800 134.7436414  54.4547945  82.6815810 134.9215013  54.6487991
  81.7262383 133.7992460  54.3027644  80.0617025 128.6168644  32.9302173
  79.1548480 128.3201757  33.0064887  80.3393006 128.3198463  32.0636459
  70.9794965 129.9375008  43.3801219  70.6597749 129.0840316  43.0875593
  70.4328393 130.1523586  44.1359187  74.7574873 132.6537449  47.0970726
  74.9760882 133.5854557  47.1158760  75.1700647 132.2945423  47.8825530
  81.6779090 123.1605534  39.0846414  80.8679819 122.8152619  39.4601660
  82.3663507 122.8513078  39.6734026  83.6069639 122.2383581  40.7070711
  84.1600677 122.6579034  41.3660734  83.8439725 121.3119329  40.7493667
  79.6302738 128.2270655  56.4873475  79.5299465 129.1765012  56.4185566
  79.4124280 127.8988894  55.6149545  78.8315809 125.4755580  33.0714152
  79.6934973 125.8010478  33.3309970  79.0166154 124.6887076  32.5587218
  70.8483225 133.5577919  45.3494341  70.1546697 133.1431872  44.8364295
  71.5956216 133.5998456  44.7527760  86.9848446 124.3484106  40.2149375
  86.4047115 125.0068910  39.8327428  86.7184379 123.5261451  39.8036793
  85.4352012 123.7489164  42.4170696  85.9351791 123.8605698  41.6085014
  86.0787620 123.4450217  43.0571504  79.4934008 131.6567793  55.3038537
  79.0101090 132.4568154  55.5102426  79.5794947 131.6675738  54.3505981
  72.7619968 133.4896173  43.2260356  72.7390656 133.5883860  42.2742239
  73.0720604 134.3361324  43.5477522  75.4207346 135.5472328  47.3406970
  76.3750599 135.5156270  47.2736902  75.2219869 135.0862952  48.1557196
  76.0106728 134.1173444  49.9077768  76.8299617 134.6117523  49.9312605
  76.2843535 133.2005412  49.8795336  85.7673324 126.5084197  39.2705724
  84.8799179 126.7933847  39.0525918  86.1827313 126.3477960  38.4233000
  89.1187860 126.5330718  42.9860063  89.8948250 127.0227170  43.2584680
  88.3935994 126.9588772  43.4431932  91.5560419 127.2458337  44.0434003
  92.1504909 127.0054073  43.3327312  91.6287002 126.5265467  44.6707540
  73.7757574 141.0891948  44.3577168  73.6412042 140.3292349  43.7915166
  73.3589637 141.8132848  43.8905957  84.9116537 136.2728871  33.3653744
  85.6152387 136.4778874  33.9811399  84.1879186 136.8405633  33.6302827
  85.7414348 132.0238732  39.4856014  85.6849549 132.4807284  38.6463646
  86.2942690 131.2629417  39.3078856  89.5519154 127.8128464  40.3106133
  89.2956088 127.4125100  41.1414341  88.9272022 128.5272258  40.1856272
  93.8631491 130.5524538  42.8177425  93.3031049 130.6217727  43.5908987
  93.2574995 130.3765522  42.0976921  76.9326700 141.9861265  44.5695611
  76.8159084 142.9306697  44.4674301  76.1119146 141.6834826  44.9581410
  86.8203235 136.7111400  35.4152204  87.6548839 136.2792599  35.2329678
  86.6587578 136.5393414  36.3429098  86.4749127 133.2143514  36.7808543
  86.4197931 133.0487785  35.8396987  85.8495182 133.9219547  36.9370733
  71.2641642 128.4511578  50.6069965  71.9100506 127.9410532  51.0957190
  71.0558793 129.1880260  51.1813390  83.7895034 135.5192426  56.1062106
  84.6586194 135.6933078  55.7448741  83.3101786 136.3386842  55.9837835
  79.7845252 122.7151623  36.3593861  79.7723922 123.6593463  36.5162132
  80.6768674 122.5321768  36.0653322  77.9581214 142.6389527  47.7851539
  78.8608461 142.6713137  48.1018034  77.7318584 141.7089978  47.7997875
  79.7134816 141.3920513  44.4461618  78.7630447 141.3922375  44.3325990
  80.0167303 140.6453248  43.9297653  83.5997372 119.3094399  40.6139798
  82.8329768 118.7552886  40.7596480  84.0108077 119.3816268  41.4753950
  75.6039133 125.5979195  54.7044979  76.4670594 125.2416000  54.9148304
  75.0304544 125.2593090  55.3920384  95.4487510 147.2281052  45.5107380
  96.0865920 147.1087799  44.8070720  95.3308353 148.1761895  45.5695332
  92.2577216 147.1808480  45.4468905  91.9195728 147.0649544  44.5589440
  93.1266984 146.7799645  45.4269911  88.1164032 149.0343956  41.4365796
  87.5528897 148.9433893  40.6682084  88.0016427 148.2143860  41.9168288
  92.7396999 148.3343331  51.4055111  92.7285640 147.9396130  50.5335614
  92.9017639 147.6009404  51.9988882  85.6628464 150.5295148  44.2750016
  86.4549756 150.1885972  43.8596316  85.9025114 150.6390123  45.1952170
  90.3860467 148.4957292  46.9435654  90.9824039 148.2713314  46.2292617
  90.4435439 147.7542037  47.5461102  95.0028778 144.9532505  42.5860588
  95.7891868 144.5351929  42.2351005  95.2667483 145.8578598  42.7542237
 100.4037205 144.8907739  43.4893567 101.1362377 144.3206955  43.7231396
  99.6476561 144.5029339  43.9300072  92.0213325 147.3134980  40.6856909
  91.6571532 146.7865601  41.3969831  92.8780441 146.9233449  40.5123395
  97.9262626 138.6029313  47.9488175  97.5945951 139.4724724  47.7249390
  97.3308239 138.2865597  48.6282206  91.6618812 142.3424880  35.6818258
  91.8293215 143.2105116  36.0488729  91.4715981 142.5052161  34.7579547
  94.4194145 150.8041859  47.3484088  94.1194868 151.7066897  47.2399895
  94.0745205 150.5374042  48.2005241  87.8706627 147.2555655  43.3820793
  86.9457123 147.1231870  43.5898484  88.1191040 148.0349875  43.8790735
  97.8191289 143.3224399  45.0281526  96.9108166 143.2539807  44.7340286
  97.7678885 143.7996344  45.8563351  91.6408033 144.7982537  36.6664925
  91.5207658 145.2439588  37.5050405  90.9460621 145.1467855  36.1078463
  85.2315438 146.8988929  44.2164582  85.3607819 147.1523408  45.1303993
  84.5512889 147.4916637  43.8969237  91.8932155 144.7414044  52.9716423
  91.1165489 145.3007965  52.9619287  92.5322718 145.2270827  53.4931293
  99.6852936 141.5240837  46.8059399  99.0427316 141.8173370  46.1599194
  99.1807864 141.4093758  47.6112596  90.1478527 147.5499498  52.5334390
  90.8893212 148.0884542  52.2569213  89.4415513 148.1765787  52.6905942
  95.6233867 149.6928638  51.1306551  96.0317223 149.2511049  50.3861184
  94.9011128 149.1181266  51.3840744  91.9764937 144.6301245  48.5040108
  92.8226132 145.0540659  48.6474757  91.9163575 143.9734869  49.1978671
  95.9462682 150.2529829  44.8858840  95.3171544 150.4175543  44.1834908
  95.5588344 150.6671438  45.6569804  95.1264382 142.2905613  50.1621282
  94.8825314 143.0447674  49.6255558  95.4024313 142.6690961  50.9968529
  97.0802845 148.8344226  48.8398547  97.2919740 149.4775986  48.1632929
  97.0332593 148.0006542  48.3720478  94.6829074 141.4462046  45.7435120
  93.8213553 141.7443300  46.0351857  94.7091509 141.6632445  44.8116152
  91.4990643 149.9904237  42.1508925  91.9628989 150.2691940  41.3613548
  91.2347441 149.0887682  41.9682016  88.3914724 149.5375719  45.0888689
  88.9616082 149.9662987  44.4506173  88.9822836 149.2558303  45.7872874
  90.4359529 146.1127389  38.9598490  91.1383573 146.5648433  39.4272417
  90.1040158 145.4711208  39.5878384  88.8839891 144.7039146  53.3349700
  88.2538552 145.3855427  53.5685097  88.7775979 144.5922228  52.3902838
  84.1784863 144.3710942  44.2615624  83.3883917 144.6268471  43.7855735
  84.6696111 145.1859280  44.3667665  86.1299609 144.7355521  41.2199101
  85.3330772 144.8474215  41.7382596  85.9025201 145.0742173  40.3539991
  91.9605276 151.2600224  49.1681615  92.0249709 151.7220632  50.0039787
  91.2516200 150.6297589  49.2963925  82.4622566 144.6241432  46.6930615
  82.7130605 145.5088442  46.9588191  82.9982115 144.4446034  45.9205707
  88.1620634 139.0059912  55.6974951  87.7687579 138.4526110  56.3722595
  88.9786774 139.3170490  56.0881468  91.0788595 140.4217791  53.2895207
  91.8198308 141.0224944  53.2099670  91.3106518 139.6795429  52.7313250
  86.2229933 145.6074158  51.5673437  86.1083448 144.7059415  51.8680536
  85.3674450 145.8537855  51.2158254  91.8576063 151.3438828  52.0365847
  92.3904399 150.5827116  51.8065155  91.3290144 151.0512480  52.7790002
  95.0245758 136.4498894  47.5659489  94.6810027 137.3400536  47.4898600
  95.3924720 136.2600551  46.7029074  83.0931608 148.7732424  40.3848091
  83.9306830 149.1829433  40.1681799  83.2709876 147.8331866  40.3548285
  92.5743151 141.2857206  41.1317163  91.7184748 140.8964056  40.9522801
  92.9870103 141.3649167  40.2716948  94.1042298 138.8203549  45.5308722
  93.6007094 138.7833684  44.7176528  94.3972905 139.7296292  45.5905379
  90.3485184 138.9042279  44.5374904  91.2138181 138.7085087  44.1780794
  90.4162693 138.6752630  45.4644261  94.7782344 144.3134597  37.8991705
  94.4732479 144.6280746  38.7501849  95.7312786 144.3916017  37.9419038
  98.2021621 148.6673841  44.6651706  97.5445296 149.3573102  44.7531834
  99.0062021 149.0570273  45.0085692  87.9547503 141.1344487  41.9091271
  88.5291255 140.9119668  41.1764464  88.5418485 141.2033181  42.6619872
  97.0127080 147.0218214  42.7155647  97.5258962 147.6548205  43.2177357
  97.6628304 146.4219409  42.3499007  88.2817090 143.1648948  35.9287156
  87.4454402 143.5023634  36.2496431  88.1421860 143.0297927  34.9914293
  90.2570171 138.0085736  40.6366340  89.6034583 137.6934753  40.0122955
  90.2150645 137.3861476  41.3626163  93.4907911 144.4967669  44.9613988
  92.5730472 144.7182616  44.8035676  93.9068055 144.5713980  44.1025695
  94.2742959 145.8959085  40.0916668  95.0214778 146.4080482  39.7823790
  94.5434548 145.5743137  40.9521062  96.7221796 142.9316201  42.0735457
  95.9844553 142.4193587  42.4045700  96.9748569 142.4916583  41.2618734
  96.8233423 135.7092453  42.6677227  97.1292300 134.8489816  42.3803142
  97.5486028 136.3010073  42.4676221  83.1157779 146.1123140  41.0558825
  82.9182179 145.5192500  40.3309891  82.5604443 145.8075350  41.7734763
  91.0954503 146.0046246  43.1753418  91.1503113 145.0520082  43.0995894
  90.2845705 146.1605685  43.6594716  89.0346863 144.6223306  40.9343797
  88.2214728 144.9217476  41.3408989  89.5305857 144.2278995  41.6518279
  94.6321075 145.0865130  49.7658691  94.9870462 145.3136603  50.6253156
  95.2793206 145.4183507  49.1435946  88.5260938 142.1941661  46.5505032
  89.1660317 142.0530420  45.8527995  87.6938468 141.9076175  46.1743634
  89.3021242 151.4944092  42.6640024  90.0961840 150.9994412  42.4622599
  88.5912934 150.9661955  42.3007730  85.6104005 145.6387174  38.7399777
  84.6801593 145.5771629  38.9569739  85.7061477 145.1163126  37.9436418
  85.5289554 142.1641986  41.3278018  85.7896371 143.0787320  41.2187179
  86.3506726 141.6966429  41.4774631  87.0014479 143.5779744  48.4976843
  87.6737533 143.3697106  47.8489492  86.1744266 143.3801830  48.0582075
  92.9040051 140.2041684  50.5142504  92.2567967 140.9031634  50.4206980
  93.6741067 140.6377828  50.8818752  96.3118849 150.4690537  53.5893057
  96.1604356 150.2401088  52.6723141  96.3023529 151.4261138  53.6024402
  93.0804186 148.0422449  48.5739324  94.0096246 148.1933609  48.4008291
  92.6595216 148.1306470  47.7187970  93.4297733 151.4454716  43.7326699
  93.0947565 151.4055486  44.6284349  92.9301678 150.7799432  43.2597109
  87.4041977 146.8522346  49.2579280  87.2661775 146.1202585  49.8590819
  88.3146900 146.7631247  48.9763468  90.0324277 146.5642306  48.7462960
  90.7423896 145.9235498  48.7049578  89.9893586 146.8155201  49.6689141
  88.7453211 143.5507524  50.5658599  88.2090568 143.0998262  51.2180196
  88.1569920 143.6853433  49.8229064  84.4792333 142.6863531  47.6511594
  84.3950521 142.0789201  46.9162004  83.6575039 143.1772550  47.6521090
  94.6516046 141.1717095  43.0181789  95.1484746 140.4187057  42.6982859
  93.8803028 141.2081412  42.4524998 102.5045804 146.8757460  44.6600080
 102.4935680 147.7582176  44.2894013 101.6363183 146.5229011  44.4654617
  95.7345827 149.9288782  40.5920212  94.8002106 150.0490245  40.4224917
  95.9122496 149.0261249  40.3280222  91.2351015 143.3134478  42.7453473
  90.8648803 142.7605518  43.4334379  91.7310108 142.7092611  42.1928473
  99.1218378 145.7706101  41.1270246  99.5878831 146.6034093  41.0530549
  99.5725879 145.3051083  41.8315505  97.0935041 138.1386688  45.1661148
  96.1798121 138.3690915  45.3343355  97.5228143 138.2225132  46.0175180
  96.8641500 146.3276580  47.6661042  96.2112950 146.5752488  47.0113494
  97.2421880 145.5140719  47.3323519  92.9129073 147.0696391  54.1527079
  92.2369710 146.9690521  54.8229454  93.7356707 146.9135605  54.6163076
  79.2525587 145.8773928  45.4944037  79.2909686 145.3437519  46.2881155
  78.7465879 145.3509134  44.8755014  86.6316349 140.7238469  48.9906579
  86.6957675 141.5853300  48.5783977  86.5683469 140.1112470  48.2578938
  86.1068621 142.7961601  52.6379614  86.7340660 142.4138679  53.2517138
  85.2496540 142.5775803  53.0035306  82.8834164 144.6038030  38.5697969
  83.1787605 143.6948709  38.5165022  81.9822200 144.5825770  38.2478971
  86.4128411 142.6794027  44.5525517  85.6914997 143.2929995  44.4132990
  87.2021667 143.2151792  44.4742163  89.2154725 140.0148453  50.8266169
  89.7389126 140.2610750  51.5892478  88.9967058 140.8468488  50.4069306
  84.6122006 142.2852128  38.6937294  84.2834712 141.4049507  38.5112400
  84.9661376 142.2299797  39.5813683  87.7263829 142.5725098  39.0612771
  88.0659901 143.1011019  38.3391380  88.1735949 142.9105504  39.8371338
  90.4207270 140.9562149  48.5115839  90.0804090 140.1569962  48.9136519
  89.7146276 141.2563859  47.9392673  91.0723742 138.0411461  46.9643162
  91.8949811 137.5671939  46.8422053  91.3161805 138.8201945  47.4641849
  89.7131976 141.0699719  37.2606064  90.4340339 141.4480972  36.7569781
  89.0897280 141.7888596  37.3641042  93.8563099 141.7744868  38.1964397
  94.0726713 142.6569506  37.8953225  93.3757166 141.3831082  37.4670039
  88.5962320 144.7330582  44.7735141  88.4506901 145.0470885  45.6659423
  88.1187524 145.3515482  44.2206040  90.4558703 141.7233130  44.8216031
  90.4420272 140.8274223  44.4848329  91.1731131 141.7303793  45.4554317
  92.3084834 142.1570470  46.8669158  92.0502612 143.0787540  46.8653489
  91.7769874 141.7600904  47.5569622  83.0707982 147.2735926  47.7122802
  82.5261451 148.0495734  47.8443077  83.9487332 147.6206730  47.5541924
  89.8595599 140.6047510  40.0903601  89.9811510 139.6764156  40.2894488
  89.5697641 140.6186196  39.1781916  92.7286790 138.2902420  43.2270321
  92.7508486 138.3541753  42.2722300  93.1454849 137.4506929  43.4210827
  83.8574004 146.4005822  50.6052959  83.1155740 146.5488458  51.1917590
  83.5366749 146.6614088  49.7419709  89.3436679 142.1179507  54.2993533
  89.3924834 142.9941630  53.9171303  89.8859193 141.5756900  53.7265177
  99.9489399 149.5113097  50.8927399  99.9987404 149.3463104  51.8342922
  99.8403323 148.6440356  50.5025280  97.2393162 145.4944025  52.2086706
  98.1403025 145.3550490  51.9170704  97.3141136 145.6598480  53.1484883
  91.5735967 142.8710880  51.0539892  90.7039277 143.1644446  50.7822481
  91.8095447 143.4551325  51.7747156  99.6994784 147.0542653  49.6049479
 100.1748906 147.2470299  48.7968330  98.7760350 147.1101839  49.3592862
  86.5878291 148.2166820  39.1880557  86.3424333 147.3129150  39.3860767
  86.7574206 148.2183971  38.2460035  94.2775001 139.0890497  48.5705312
  94.7956945 139.8251523  48.2451801  93.9230134 139.3954490  49.4052072
  85.8573939 143.9495178  36.6866718  85.1643184 144.0239533  36.0306754
  85.6125690 143.1855521  37.2088235  94.5287595 135.5090779  44.0906209
  94.8089349 134.8413968  44.7166636  95.3138202 135.7019875  43.5780873
  98.3996453 143.9308413  47.8377784  99.3513876 144.0306511  47.8590008
  98.2299904 143.1386682  48.3475869  96.4210833 141.0163996  48.0237185
  95.8260765 141.2969009  47.3283674  96.1360530 141.5057897  48.7953926
 100.8784531 147.1514533  46.9520084 100.8460851 146.2130534  47.1379768
 101.4885155 147.2298569  46.2185909 101.0279020 143.9425576  46.9978367
 100.5118068 143.1584033  46.8108296 101.9118968 143.6144293  47.1624886
  98.6889747 137.6866592  42.9574180  98.4914568 137.3781680  43.8417512
  99.2989452 138.4128231  43.0872110  92.6006555 150.0728332  54.4547945
  93.5209564 150.2506931  54.6487991  92.5656138 149.1284377  54.3027644
  81.8188720 145.2666926  43.3801219  81.4991504 144.4132234  43.0875593
  81.2722148 145.4815504  44.1359187  85.5968627 147.9829367  47.0970726
  85.8154637 148.9146474  47.1158760  86.0094401 147.6237341  47.8825530
  92.5172845 138.4897452  39.0846414  91.7073573 138.1444537  39.4601660
  93.2057262 138.1804996  39.6734026  94.4463393 137.5675499  40.7070711
  94.9994432 137.9870952  41.3660734  94.6833480 136.6411247  40.7493667
  90.4696492 143.5562572  56.4873475  90.3693219 144.5056929  56.4185566
  90.2518035 143.2280811  55.6149545  89.6709564 140.8047497  33.0714152
  90.5328728 141.1302396  33.3309970  89.8559908 140.0178993  32.5587218
  81.6876980 148.8869837  45.3494341  80.9940451 148.4723790  44.8364295
  82.4349971 148.9290374  44.7527760  97.8242200 139.6776024  40.2149375
  97.2440869 140.3360828  39.8327428  97.5578133 138.8553368  39.8036793
  96.2745767 139.0781082  42.4170696  96.7745545 139.1897616  41.6085014
  96.9181375 138.7742134  43.0571504  90.3327763 146.9859711  55.3038537
  89.8494844 147.7860071  55.5102426  90.4188702 146.9967656  54.3505981
  83.6013722 148.8188091  43.2260356  83.5784410 148.9175778  42.2742239
  83.9114359 149.6653242  43.5477522  86.8500482 149.4465362  49.9077768
  87.6693371 149.9409441  49.9312605  87.1237290 148.5297330  49.8795336
  96.6067078 141.8376114  39.2705724  95.7192933 142.1225765  39.0525918
  97.0221067 141.6769878  38.4233000  99.9581615 141.8622635  42.9860063
 100.7342005 142.3519088  43.2584680  99.2329749 142.2880689  43.4431932
 102.3954173 142.5750254  44.0434003 102.9898664 142.3345990  43.3327312
 102.4680757 141.8557385  44.6707540 100.3912908 143.1420382  40.3106133
 100.1349842 142.7417018  41.1414341  99.7665776 143.8564176  40.1856272
 104.7025246 145.8816455  42.8177425 104.1424804 145.9509645  43.5908987
 104.0968749 145.7057440  42.0976921  82.1035396 143.7803496  50.6069965
  82.7494260 143.2702450  51.0957190  81.8952548 144.5172177  51.1813390
  94.6288789 150.8484343  56.1062106  95.4979948 151.0224996  55.7448741
  94.1495540 151.6678760  55.9837835  90.6239007 138.0443540  36.3593861
  90.6117677 138.9885380  36.5162132  91.5162429 137.8613686  36.0653322
  94.4391126 134.6386317  40.6139798  93.6723522 134.0844804  40.7596480
  94.8501831 134.7108186  41.4753950  86.4432887 140.9271113  54.7044979
  87.3064349 140.5707918  54.9148304  85.8698298 140.5885008  55.3920384
  16.8640719  18.0362030  38.1300417  16.8529360  17.6414828  37.2580921
  17.0261358  17.3028103  38.7234189  13.5847980  20.8199142  37.0779601
  13.2937846  21.7244773  36.9626267  14.2204964  20.8615670  37.7923671
  16.0175875  14.4432743  39.6961729  15.2409209  15.0026663  39.6864594
  16.6566438  14.9289526  40.2176600  14.2722247  17.2518197  39.2579696
  15.0136931  17.7903241  38.9814520  13.5659233  17.8784485  39.4151248
  19.7477587  19.3947337  37.8551858  20.1560943  18.9529748  37.1106490
  19.0254848  18.8199965  38.1086051  22.3192393  21.4134880  33.7366211
  23.1409837  21.0115067  33.4548893  22.3154796  21.3103114  34.6882327
  17.4265490  23.2510597  39.8906244  16.9829344  22.4646976  39.5727149
  18.0882704  23.4389748  39.2250135  19.5246728  23.5313397  37.9187646
  19.5065204  24.3522278  37.4267915  20.4466648  23.4067472  38.1437787
  15.9819782  21.0457527  38.7611154  16.5148119  20.2845815  38.5310462
  15.4533864  20.7531179  39.5035308  25.3747461  20.0202493  34.7397483
  25.5683351  20.9248303  34.9856758  25.2748079  19.5609912  35.5736068
  20.4362569  20.1709235  40.3138364  20.2848076  19.9419787  39.3968447
  20.4267249  21.1279837  40.3269709  22.1454776  23.2028358  38.3914846
  22.0867322  22.5187578  37.7245429  22.5474294  23.9447348  37.9395472
  22.1472183  21.1667942  36.6228825  21.2598962  20.8293864  36.7455224
  22.7170734  20.4350973  36.8597591  18.1372020  25.7256228  35.7448227
  18.8499992  26.3603693  35.6724129  17.6462049  25.8220094  34.9288229
  13.1883934  23.4750672  36.5653798  13.8893393  24.1087155  36.7183192
  12.7179049  23.8165403  35.8049437  17.0372793  16.7715090  40.8772385
  16.3613430  16.6709220  41.5474761  17.8600426  16.6154304  41.3408383
  15.7795575  28.0782018  35.1130001  16.3313884  28.2413639  35.8779087
  16.1201769  28.6686456  34.4410026  20.6306450  22.9043275  40.9678656
  21.1746354  23.5173234  40.4733611  20.0493295  23.4622854  41.4845669
  20.9798871  23.8273013  33.7273234  20.0329207  23.7078365  33.6551560
  21.3281644  22.9395511  33.8099495  15.9261387  25.6440499  37.1278656
  16.2348513  25.3989646  38.0001355  16.7236869  25.8487138  36.6397526
  23.9535244  22.3639329  40.3039977  23.1630788  22.3463468  39.7644477
  23.7168599  22.9027623  41.0589014  24.0733119  19.2131796  37.6172706
  24.1231124  19.0481803  38.5588228  23.9647043  18.3459055  37.2270586
  21.3636882  15.1962724  38.9332012  22.2646744  15.0569189  38.6416010
  21.4384856  15.3617179  39.8730190  25.5751316  21.6328737  37.8614727
  25.2836124  21.9958718  38.6978188  24.9623447  20.9195746  37.6828059
  23.8238504  16.7561352  36.3294785  24.2992626  16.9488998  35.5213637
  22.9004070  16.8120538  36.0838169  30.8204801  17.9149238  32.8171427
  31.5508189  17.6534527  33.3779131  30.2111746  17.1777960  32.8573495
  16.7250274  19.7747031  41.1793251  17.6453284  19.9525630  41.3733298
  16.6899857  18.8303076  41.0272951  14.5940212  13.2581271  43.2118782
  14.4936939  14.2075628  43.1430873  14.3761754  12.9299510  42.3394852
  14.4571482  16.6878410  42.0283843  13.9738564  17.4878770  42.2347732
  14.5432421  16.6986355  41.0751287  18.7532508  20.5503042  42.8307412
  19.6223668  20.7243694  42.4694047  18.2739260  21.3697459  42.7083142
  12.9218689  27.6700143  34.5096846  13.8245935  27.7023753  34.8263341
  12.6956059  26.7400594  34.5243182  30.4124984  32.2591668  32.2352687
  31.0503394  32.1398415  31.5316027  30.2945827  33.2072512  32.2940639
  27.2214690  32.2119096  32.1714212  26.8833202  32.0960161  31.2834747
  28.0904459  31.8110261  32.1515218  23.0801506  34.0654573  28.1611103
  22.5166371  33.9744510  27.3927390  22.9653901  33.2454477  28.6413595
  27.7034473  33.3653948  38.1300417  27.6923114  32.9706746  37.2580921
  27.8655113  32.6320020  38.7234189  20.6265938  35.5605764  30.9995323
  21.4187230  35.2196589  30.5841622  20.8662588  35.6700739  31.9197476
  28.6601065  37.7325540  23.4725568  28.0089045  38.3179621  23.0859581
  29.4545428  38.2631735  23.5320605  24.4241735  36.1491060  37.0779601
  24.1331601  37.0536691  36.9626267  25.0598719  36.1907587  37.7923671
  25.3497941  33.5267908  33.6680961  25.9461514  33.3023931  32.9537924
  25.4072913  32.7852654  34.2706409  29.9666253  29.9843122  29.3105895
  30.7529342  29.5662545  28.9596312  30.2304957  30.8889214  29.4787543
  30.1376330  35.4215972  24.0094552  29.5022163  35.4950599  24.7215456
  29.8073736  36.0109571  23.3313631  35.3674680  29.9218355  30.2138874
  36.0999852  29.3517572  30.4476703  34.6114035  29.5339956  30.6545379
  26.9850800  32.3445597  27.4102216  26.6209007  31.8176218  28.1215137
  27.8417915  31.9544066  27.2368701  32.8900100  23.6339929  34.6733482
  32.5583425  24.5035340  34.4494697  32.2945714  23.3176213  35.3527513
  29.3831620  35.8352475  34.0729395  29.0832343  36.7377514  33.9645202
  29.0382679  35.5684658  34.9250548  22.8344101  32.2866272  30.1066099
  21.9094598  32.1542486  30.3143791  23.0828514  33.0660491  30.6036042
  32.7828763  28.3535015  31.7526832  31.8745641  28.2850424  31.4585593
  32.7316359  28.8306960  32.5808658  20.1952912  31.9299546  30.9409888
  20.3245293  32.1834025  31.8549300  19.5150363  32.5227254  30.6214543
  24.3652399  42.5996796  27.0400363  24.2876429  43.5504621  27.1188843
  23.7614043  42.2542668  27.6975289  26.8569629  29.7724661  39.6961729
  26.0802963  30.3318581  39.6864594  27.4960192  30.2581444  40.2176600
  34.6490410  26.5551454  33.5304706  34.0064790  26.8483987  32.8844501
  34.1445338  26.4404374  34.3357903  32.3030574  30.3014627  24.2190565
  33.2148430  30.5342014  24.0438263  31.7940221  30.8851671  23.6565644
  25.1116002  32.5810114  39.2579696  25.8530686  33.1195158  38.9814520
  24.4052987  33.2076403  39.4151248  30.5871341  34.7239255  37.8551858
  30.9954697  34.2821665  37.1106490  29.8648603  34.1491882  38.1086051
  26.9402411  29.6611862  35.2285415  27.7863606  30.0851275  35.3720064
  26.8801049  29.0045486  35.9223978  30.9100156  35.2840445  31.6104147
  30.2809018  35.4486160  30.9080215  30.5225818  35.6982055  32.3815111
  34.7889388  36.2194883  28.9648511  34.1040426  36.5993785  28.4145544
  34.8733237  36.8290210  29.6980458  30.0901857  27.3216230  36.8866589
  29.8462788  28.0758290  36.3500864  30.3661787  27.7001578  37.7213836
  32.0440319  33.8654842  35.5643854  32.2557215  34.5086602  34.8878235
  31.9970068  33.0317159  35.0965784  29.6466548  26.4772663  32.4680426
  28.7851027  26.7753917  32.7597164  29.6728983  26.6943062  31.5361459
  26.4628118  35.0214854  28.8754232  26.9266463  35.3002556  28.0858854
  26.1984916  34.1198298  28.6927323  23.3552199  34.5686335  31.8133995
  23.9253556  34.9973603  31.1751480  23.9460311  34.2868920  32.5118181
  23.8477365  29.7349763  40.0595006  23.2176026  30.4166043  40.2930403
  23.7413453  29.6232844  39.1148145  19.1422338  29.4021559  30.9860931
  18.3521392  29.6579087  30.5101041  19.6333585  30.2169896  31.0912971
  33.1586147  36.7426798  33.7366211  33.9803591  36.3406985  33.4548893
  33.1548550  36.6395032  34.6882327  26.9242751  36.2910841  35.8926922
  26.9887183  36.7531248  36.7285094  26.2153675  35.6608206  36.0209232
  17.4260041  29.6552049  33.4175921  17.6768079  30.5399059  33.6833497
  17.9619589  29.4756651  32.6451013  41.2492140  33.0865546  30.0851183
  40.4955849  32.5172944  29.9295187  41.3839682  33.0528211  31.0321818
  26.6390768  37.9578948  25.7605902  26.5036443  38.8030484  26.1890750
  27.1800581  38.1598226  24.9971836  23.1258108  24.0370528  42.4220257
  22.7325054  23.4836727  43.0967902  23.9424248  24.3481107  42.8126775
  20.0920166  35.4754387  26.3333827  20.6044686  36.2697637  26.4839392
  20.7442879  34.7780677  26.2667429  21.9015050  38.5920143  28.4156581
  22.0781679  39.5138108  28.2277564  22.6971884  38.2778562  28.8450960
  26.0426069  25.4528407  40.0140514  26.7835782  26.0535561  39.9344977
  26.2743992  24.7106045  39.4558557  21.1867407  30.6384775  38.2918744
  21.0720922  29.7370032  38.5925843  20.3311925  30.8848471  37.9403560
  28.2659245  38.5802515  39.8906244  27.8223099  37.7938894  39.5727149
  28.9276458  38.7681666  39.2250135  23.0246366  40.1098317  34.4166923
  23.5753791  39.9815380  33.6443917  22.1857842  40.4093206  34.0661816
  30.3640483  38.8605315  37.9187646  30.3458958  39.6814196  37.4267915
  31.2860403  38.7359390  38.1437787  26.8213537  36.3749444  38.7611154
  27.3541874  35.6137733  38.5310462  26.2927618  36.0823096  39.5035308
  29.9883232  21.4809510  34.2904796  29.6447501  22.3711152  34.2143906
  30.3562195  21.2911168  33.4274381  29.0679772  23.8514166  32.2554029
  28.5644568  23.8144301  31.4421834  29.3610379  24.7606908  32.3150686
  25.3122658  23.9352895  31.2620211  26.1775655  23.7395704  30.9026100
  25.3800167  23.7063247  32.1889567  34.9267789  34.2250476  24.7330404
  34.1497232  33.8861636  24.2885566  35.6059270  34.2303099  24.0585369
  28.1866250  35.5035437  26.2729966  27.6587611  34.7688196  25.9603203
  27.6853752  36.2810113  26.0269934  33.1659096  33.6984457  31.3897012
  32.5082770  34.3883719  31.4777141  33.9699495  34.0880889  31.7330999
  31.9764555  32.0528830  29.4400954  32.4896436  32.6858822  29.9422664
  32.6265778  31.4530026  29.0744314  29.2386929  42.0313154  22.1961625
  28.5648628  42.3344851  22.8046583  29.6252751  42.8342235  21.8467082
  28.4545385  29.5278286  31.6859295  27.5367947  29.7493233  31.5280983
  28.8705529  29.6024596  30.8271002  29.2380433  30.9269701  26.8161975
  29.9852252  31.4391099  26.5069097  29.5072023  30.6053754  27.6766368
  32.7426351  37.0334832  27.5680097  32.2888678  36.1925741  27.6245287
  32.1120317  37.6696230  27.9054877  31.6859270  27.9626818  28.7980764
  30.9482027  27.4504204  29.1291007  31.9386044  27.5227199  27.9864041
  31.1859290  38.8711328  28.5029915  31.4782264  39.4316385  27.7842280
  31.6957911  39.1639889  29.2583074  26.0591977  31.0356863  29.8998724
  26.1140587  30.0830699  29.8241201  25.2483179  31.1916302  30.3840023
  23.9984337  29.6533922  27.6589103  23.1852203  29.9528093  28.0654295
  24.4943331  29.2589611  28.3763586  26.1492915  39.6491679  29.5923368
  26.1069094  39.8752526  28.6631900  27.0655614  39.4155054  29.7409169
  29.5958549  30.1175747  36.4903997  29.9507937  30.3447220  37.3498463
  30.2430680  30.4494124  35.8681253  35.3256286  33.2394183  27.1953326
  35.1874184  33.4295779  26.2674515  34.9692505  34.0013566  27.6521377
  23.4898412  27.2252278  33.2750338  24.1297791  27.0841037  32.5773302
  22.6575943  26.9386791  32.8988940  35.3525665  35.3070710  32.2064598
  35.7862172  35.2145999  33.0547652  36.0657246  35.2828210  31.5684614
  24.2658716  36.5254708  29.3885331  25.0599314  36.0305028  29.1867906
  23.5550408  35.9972571  29.0253036  29.0853560  38.9072804  33.7397698
  29.1390583  39.4763740  34.5075414  28.2168342  39.0774689  33.3751736
  21.9651954  28.6090360  35.2222150  22.6375007  28.4007722  34.5734799
  21.1381740  28.4112446  34.7827382  36.2141215  35.3494410  34.7397483
  36.4077105  36.2540221  34.9856758  36.1141833  34.8901829  35.5736068
  27.8677526  25.2352301  37.2387811  27.2205441  25.9342251  37.1452287
  28.6378541  25.6688445  37.6064059  31.2756324  35.5001153  40.3138364
  31.1241830  35.2711705  39.3968447  31.2661003  36.4571755  40.3269709
  28.0441660  33.0733066  35.2984630  28.9733720  33.2244226  35.1253598
  27.6232690  33.1617087  34.4433277  26.8429992  37.0983730  33.0683168
  26.7041078  36.7302515  33.9409106  26.0544588  37.6131370  32.8967126
  27.4378144  42.1992827  24.4108704  27.6129900  41.7280870  25.2254327
  26.7510932  42.8258593  24.6389965  28.3935207  36.4765333  30.4572006
  28.0585040  36.4366103  31.3529656  27.8939153  35.8110049  29.9842416
  22.3679451  31.8832963  35.9824587  22.2299249  31.1513202  36.5836126
  23.2784374  31.7941863  35.7008775  24.9961752  31.5952922  35.4708266
  25.7061370  30.9546115  35.4294885  24.9531060  31.8465817  36.3934447
  32.9848530  38.5320276  38.3914846  32.9261077  37.8479496  37.7245429
  33.3868049  39.2739266  37.9395472  23.7090686  28.5818140  37.2903906
  23.1728043  28.1308879  37.9425502  23.1207394  28.7164049  36.5474370
  22.0039229  45.3482190  31.1848565  22.2435827  45.9800714  31.8627583
  21.1608426  44.9970230  31.4713924  32.9865938  36.4959860  36.6228825
  32.0992716  36.1585781  36.7455224  33.5564489  35.7642891  36.8597591
  14.6395085  32.8283951  29.9471877  15.3266125  32.5145681  29.3592892
  14.4843213  33.7325316  29.6739128  19.4429807  27.7174148  34.3756900
  19.3587996  27.1099817  33.6407310  18.6212513  28.2083166  34.3766397
  26.5167091  41.1561312  33.5890069  26.4437263  41.9616283  34.1009373
  26.0744484  41.3553278  32.7638090  26.3056871  40.3933082  27.0992890
  25.5224393  40.9354762  27.1931115  27.0049616  40.9107062  27.4987131
  29.6153521  26.2027711  29.7427095  30.1122220  25.4497674  29.4228166
  28.8440502  26.2392028  29.1770305  37.4683278  31.9068077  31.3845387
  37.4573154  32.7892792  31.0139320  36.6000658  31.5539628  31.1899924
  28.9765775  41.0548146  35.7448227  29.6893747  41.6895611  35.6724129
  28.4855803  41.1512012  34.9288229  30.6983301  34.9599399  27.3165519
  29.7639580  35.0800861  27.1470223  30.8759970  34.0571865  27.0525529
  26.1988490  28.3445094  29.4698780  25.8286277  27.7916135  30.1579686
  26.6947582  27.7403228  28.9173780  34.0855853  30.8016718  27.8515553
  34.5516305  31.6344710  27.7775856  34.5363353  30.3361700  28.5560811
  24.0277688  38.8042589  36.5653798  24.7287148  39.4379072  36.7183192
  23.5572803  39.1457321  35.8049437  32.1532084  37.1460539  24.8501705
  32.4291928  37.0317134  25.7595579  31.2836583  36.7478024  24.8113878
  32.0572516  23.1697305  31.8906454  31.1435595  23.4001532  32.0588661
  32.4865617  23.2535749  32.7420487  31.8278974  31.3587197  34.3906348
  31.1750424  31.6063104  33.7358801  32.2059354  30.5451335  34.0568826
  28.7886148  41.3946890  28.4934519  28.9708542  40.5768546  28.9562271
  29.6119134  41.6114582  28.0559409  29.1228313  40.3215075  25.7549567
  29.6516080  39.8107530  25.1419729  29.3856533  40.0057605  26.6195100
  27.8766547  32.1007008  40.8772385  27.2007184  32.0001137  41.5474761
  28.6994181  31.9446222  41.3408383  19.6245406  38.3378945  33.4984901
  20.2098843  37.5922632  33.6312805  19.4270245  38.6482901  34.3821565
  22.4784061  41.3730192  28.5147343  21.8094437  41.8576320  28.0311383
  22.3396931  41.6199412  29.4290722  14.2163061  30.9084545  32.2189344
  14.2547160  30.3748135  33.0126462  13.7103354  30.3819750  31.6000321
  26.6189330  43.4073935  35.1130001  27.1707638  43.5705557  35.8779087
  26.9595523  43.9978373  34.4410026  21.5953823  25.7549085  35.7151886
  21.6595150  26.6163916  35.3029284  21.5320943  25.1423087  34.9824245
  21.0706096  27.8272218  39.3624920  21.6978135  27.4449295  39.9762445
  20.2134015  27.6086420  39.7280613  31.4700204  38.2335193  40.9678656
  32.0140108  38.8465151  40.4733611  30.8887049  38.7914771  41.4845669
  29.7557717  41.3555911  32.0993684  29.6308857  40.5545651  31.5904629
  30.4136808  41.8502104  31.6107654  21.3765885  27.7104643  31.2770824
  20.6552471  28.3240611  31.1378297  22.1659141  28.2462408  31.1987470
  31.8192626  39.1564931  33.7273234  30.8722961  39.0370282  33.6551560
  32.1675399  38.2687429  33.8099495  24.1792199  25.0459070  37.5511476
  24.7026601  25.2921367  38.3137785  23.9604532  25.8779105  37.1314613
  28.8239059  38.9517647  29.9277586  28.6764021  38.0234355  30.1085156
  29.6492552  38.9737738  29.4434661  32.4273181  39.7746206  31.0142459
  33.3519728  39.5689067  30.8766910  32.2588484  39.5262607  31.9231800
  25.3844744  25.9872765  35.2361146  25.0441564  25.1880578  35.6381826
  24.6783750  26.2874476  34.6637979  26.0361216  23.0722077  33.6888469
  26.8587285  22.5982556  33.5667359  26.2799279  23.8512561  34.1887155
  23.5599795  29.7641198  31.4980448  23.4144375  30.0781501  32.3904729
  23.0824998  30.3826098  30.9451346  25.4196178  26.7543746  31.5461337
  25.4057746  25.8584839  31.2093635  26.1368606  26.7614410  32.1799623
  27.2722308  27.1881086  33.5914465  27.0140086  28.1098157  33.5898795
  26.7407349  26.7911521  34.2814929  32.2168497  40.2931873  26.3704550
  32.3905375  39.7278296  25.6178403  32.7097388  41.0932768  26.1884040
  18.0345457  32.3046543  34.4368109  17.4898925  33.0806350  34.5688383
  18.9124807  32.6517347  34.2787230  38.0707888  33.0568296  27.9894850
  38.5139034  32.3075622  27.5913973  37.1934398  33.0478433  27.6068582
  33.2043669  39.6098638  23.4701448  33.8994574  40.2305331  23.6888763
  33.5466820  38.7593989  23.7453826  18.8211479  31.4316439  37.3298266
  18.0793215  31.5799074  37.9162896  18.5004223  31.6924704  36.4665015
  35.1035093  37.0598343  24.9988779  35.6286417  37.3985616  24.2738099
  35.0157445  36.1245359  24.8151914  26.7655141  40.9732417  37.1278656
  27.0742268  40.7281564  38.0001355  27.5630623  41.1779055  36.6397526
  26.7875753  43.1270327  29.3584032  26.3480744  42.6346705  30.0516889
  27.5383870  42.5843294  29.1176108  19.2668092  39.3181868  29.3608660
  20.0926112  39.0185639  28.9807304  18.9162144  38.5489490  29.8098449
  24.2349625  38.6708336  31.4306334  23.6129635  38.0079041  31.1308562
  24.9054492  38.6969468  30.7479982  17.4676697  37.2368194  30.3197594
  16.6308606  36.8090368  30.1381595  17.4400343  37.4300637  31.2568385
  24.3074153  27.1490124  41.0238840  24.3562308  28.0252247  40.6416610
  24.8496667  26.6067517  40.4510483  34.7928999  37.6931247  40.3039977
  34.0024542  37.6755386  39.7644477  34.5562353  38.2319541  41.0589014
  34.9126874  34.5423713  37.6172706  34.9624879  34.3773721  38.5588228
  34.8040797  33.6750972  37.2270586  23.7963132  37.2212259  24.9064795
  23.9451253  37.9047723  24.2531467  24.6029576  37.2017349  25.4214250
  32.2030636  30.5254641  38.9332012  33.1040499  30.3861106  38.6416010
  32.2778611  30.6909096  39.8730190  26.5373441  27.9021496  37.7785199
  25.6676751  28.1955062  37.5067787  26.7732922  28.4861941  38.4992462
  36.4145071  36.9620655  37.8614727  36.1229879  37.3250635  38.6978188
  35.8017202  36.2487663  37.6828059  37.6140753  34.5273535  30.3817297
  38.4487644  34.9663339  30.5454858  37.7499882  34.0512188  29.5625543
  34.6632259  32.0853270  36.3294785  35.1386380  32.2780916  35.5213637
  33.7397824  32.1412455  36.0838169  29.2412475  24.1201113  35.2950619
  29.7594419  24.8562140  34.9697108  28.8867608  24.4265106  36.1297378
  29.4925069  20.5401396  30.8151516  29.7726823  19.8724585  31.4411942
  30.2775676  20.7330491  30.3026180  27.2958538  39.7160390  22.3776542
  26.7232505  40.3350577  21.9247014  27.8691332  40.2659751  22.9116464
  33.3633928  28.9619030  34.5623091  34.3151351  29.0617127  34.5835315
  33.1937378  28.1697298  35.0721175  31.3848307  26.0474613  34.7482492
  30.7898239  26.3279626  34.0528980  31.0998004  26.5368514  35.5199233
  30.5155798  39.9997540  23.5085124  31.4486471  39.9343101  23.7118000
  30.4279011  40.8353807  23.0499657  33.1443814  39.3163410  20.4689072
  33.0657446  38.9823274  21.3624830  33.9653481  39.8085178  20.4680544
  35.8422006  32.1825149  33.6765390  35.8098326  31.2441150  33.8625074
  36.4522629  32.2609186  32.9431215  35.9916494  28.9736193  33.7223674
  35.4755543  28.1894649  33.5353602  36.8756443  28.6454909  33.8870193
  33.6527221  22.7177208  29.6819486  33.4552042  22.4092297  30.5662818
  34.2626927  23.4438847  29.8117416  41.6598555  33.2441156  32.8171427
  42.3901944  32.9826444  33.3779131  41.0505501  32.5069878  32.8573495
  39.7413853  31.3849019  33.4145878  39.0147016  31.2504984  32.8062370
  39.3261139  31.6925847  34.2202596  27.5644029  35.1038948  41.1793251
  28.4847038  35.2817547  41.3733298  27.5293612  34.1594994  41.0272951
  20.5606102  33.0139983  33.8216033  20.7792111  33.9457091  33.8404066
  20.9731875  32.6547957  34.6070836  25.4333967  28.5873189  43.2118782
  25.3330694  29.5367546  43.1430873  25.2155509  28.2591428  42.3394852
  16.6514454  33.9180454  32.0739648  15.9577925  33.5034406  31.5609602
  17.3987445  33.9600990  31.4773067  31.2383241  24.1091698  29.1416002
  31.7383019  24.2208233  28.3330321  31.8818849  23.8052751  29.7816811
  25.2965237  32.0170328  42.0283843  24.8132319  32.8170688  42.2347732
  25.3826176  32.0278273  41.0751287  18.5651196  33.8498707  29.9505663
  18.5421885  33.9486395  28.9987546  18.8751833  34.6963858  30.2722829
  21.2238574  35.9074862  34.0652277  22.1781828  35.8758805  33.9982209
  21.0251098  35.4465486  34.8802503  21.8137956  34.4775978  36.6323075
  22.6330845  34.9720057  36.6557912  22.0874764  33.5607947  36.6040642
  34.9219089  26.8933252  29.7105369  35.6979479  27.3829704  29.9829986
  34.1967223  27.3191306  30.1677239  37.3591647  27.6060871  30.7679310
  37.9536138  27.3656607  30.0572618  37.4318231  26.8868002  31.3952846
  19.5788803  41.4494482  31.0822475  19.4443271  40.6894883  30.5160473
  19.1620865  42.1735382  30.6151264  31.5445576  32.3841267  26.2101320
  31.4880778  32.8409818  25.3708953  32.0973919  31.6231951  26.0324163
  35.3550382  28.1730999  27.0351440  35.0987317  27.7727634  27.8659648
  34.7303250  28.8874792  26.9101579  39.6662720  30.9127072  29.5422731
  39.1062278  30.9820261  30.3154293  39.0606224  30.7368056  28.8222227
  22.7357929  42.3463799  31.2940918  22.6190313  43.2909231  31.1919608
  21.9150375  42.0437360  31.6826717  32.6234464  37.0713935  22.1397510
  33.4580067  36.6395133  21.9574985  32.4618806  36.8995948  23.0674405
  32.2780356  33.5746048  23.5053850  32.2229160  33.4090319  22.5642294
  31.6526411  34.2822081  23.6616039  17.0672871  28.8114112  37.3315272
  17.7131734  28.3013066  37.8202497  16.8590022  29.5482794  37.9058697
  29.5926263  35.8794960  42.8307412  30.4617423  36.0535612  42.4694047
  29.1133014  36.6989377  42.7083142  23.7612443  42.9992061  34.5096846
  24.6639690  43.0315671  34.8263341  23.5349813  42.0692512  34.5243182
  25.5166045  41.7523047  31.1706925  24.5661676  41.7524909  31.0571297
  25.8198531  41.0055782  30.6542959  21.4070362  25.9581729  41.4290286
  22.2701823  25.6018534  41.6393611  20.8335772  25.6195624  42.1165690
  41.2518739  47.5883586  32.2352687  41.8897149  47.4690333  31.5316027
  41.1339582  48.5364430  32.2940639  38.0608445  47.5411014  32.1714212
  37.7226956  47.4252079  31.2834747  38.9298213  47.1402179  32.1515218
  33.9195261  49.3946490  28.1611103  33.3560126  49.3036427  27.3927390
  33.8047656  48.5746395  28.6413595  38.5428228  48.6945866  38.1300417
  38.5316869  48.2998664  37.2580921  38.7048867  47.9611938  38.7234189
  31.4659693  50.8897682  30.9995323  32.2580984  50.5488506  30.5841622
  31.7056343  50.9992657  31.9197476  39.4994819  53.0617458  23.4725568
  38.8482799  53.6471538  23.0859581  40.2939182  53.5923653  23.5320605
  33.4250446  50.1506595  23.8712702  34.1981322  49.6035582  23.7325578
  33.7775845  51.0150844  24.0827163  35.2635489  51.4782977  37.0779601
  34.9725355  52.3828608  36.9626267  35.8992473  51.5199505  37.7923671
  36.1891696  48.8559826  33.6680961  36.7855268  48.6315848  32.9537924
  36.2466667  48.1144571  34.2706409  35.7616724  46.3099261  21.5031152
  36.0142245  45.7880782  20.7414615  34.8241283  46.1465407  21.6057835
  40.8060007  45.3135040  29.3105895  41.5923096  44.8954463  28.9596312
  41.0698711  46.2181132  29.4787543  40.9770084  50.7507890  24.0094552
  40.3415917  50.8242516  24.7215456  40.6467491  51.3401489  23.3313631
  46.2068434  45.2510273  30.2138874  46.9393606  44.6809490  30.4476703
  45.4507790  44.8631873  30.6545379  35.4813013  48.2127367  23.7055527
  35.3649271  47.5372271  24.3736611  35.5915273  47.7259741  22.8887680
  37.8244554  47.6737514  27.4102216  37.4602761  47.1468135  28.1215137
  38.6811670  47.2835983  27.2368701  43.7293855  38.9631847  34.6733482
  43.3977179  39.8327258  34.4494697  43.1339468  38.6468131  35.3527513
  37.4650041  42.7027414  22.4063564  37.6324443  43.5707650  22.7734036
  37.2747210  42.8654696  21.4824854  40.2225374  51.1644393  34.0729395
  39.9226097  52.0669432  33.9645202  39.8776434  50.8976576  34.9250548
  33.6737856  47.6158190  30.1066099  32.7488352  47.4834404  30.3143791
  33.9222269  48.3952409  30.6036042  43.6222518  43.6826933  31.7526832
  42.7139395  43.6142341  31.4585593  43.5710114  44.1598878  32.5808658
  37.4439262  45.1585071  23.3910231  37.3238887  45.6042122  24.2295712
  36.7491850  45.5070389  22.8323769  31.0346667  47.2591463  30.9409888
  31.1639048  47.5125942  31.8549300  30.3544118  47.8519171  30.6214543
  35.2046154  57.9288713  27.0400363  35.1270184  58.8796538  27.1188843
  34.6007798  57.5834586  27.6975289  37.6963384  45.1016579  39.6961729
  36.9196718  45.6610499  39.6864594  38.3353947  45.5873362  40.2176600
  45.4884164  41.8843371  33.5304706  44.8458545  42.1775905  32.8844501
  44.9839093  41.7696292  34.3357903  43.1424328  45.6306545  24.2190565
  44.0542184  45.8633931  24.0438263  42.6333975  46.2143589  23.6565644
  35.9509756  47.9102032  39.2579696  36.6924440  48.4487076  38.9814520
  35.2446741  48.5368321  39.4151248  41.4265096  50.0531172  37.8551858
  41.8348452  49.6113583  37.1106490  40.7042357  49.4783800  38.1086051
  37.7796166  44.9903779  35.2285415  38.6257361  45.4143193  35.3720064
  37.7194803  44.3337404  35.9223978  41.7493910  50.6132363  31.6104147
  41.1202773  50.7778077  30.9080215  41.3619572  51.0273973  32.3815111
  45.6283142  51.5486801  28.9648511  44.9434180  51.9285702  28.4145544
  45.7126992  52.1582128  29.6980458  40.9295611  42.6508148  36.8866589
  40.6856543  43.4050208  36.3500864  41.2055542  43.0293495  37.7213836
  42.8834074  49.1946760  35.5643854  43.0950969  49.8378520  34.8878235
  42.8363822  48.3609077  35.0965784  40.4860303  41.8064581  32.4680426
  39.6244782  42.1045834  32.7597164  40.5122737  42.0234980  31.5361459
  37.3021872  50.3506771  28.8754232  37.7660218  50.6294474  28.0858854
  37.0378670  49.4490216  28.6927323  34.1945953  49.8978253  31.8133995
  34.7647310  50.3265521  31.1751480  34.7854065  49.6160837  32.5118181
  36.2390758  46.4729924  25.6843797  36.9414802  46.9250967  26.1517723
  35.9071387  45.8313742  26.3123690  34.6871120  45.0641680  40.0595006
  34.0569780  45.7457961  40.2930403  34.5807208  44.9524762  39.1148145
  29.9816092  44.7313476  30.9860931  29.1915146  44.9871005  30.5101041
  30.4727340  45.5461814  31.0912971  43.9979902  52.0718715  33.7366211
  44.8197345  51.6698903  33.4548893  43.9942305  51.9686950  34.6882327
  31.9330838  45.0958055  27.9444407  31.1362001  45.2076750  28.4627903
  31.7056430  45.4344708  27.0785298  37.7636505  51.6202759  35.8926922
  37.8280938  52.0823166  36.7285094  37.0547429  50.9900124  36.0209232
  28.2653795  44.9843967  33.4175921  28.5161834  45.8690977  33.6833497
  28.8013344  44.8048568  32.6451013  52.0885895  48.4157464  30.0851183
  51.3349603  47.8464862  29.9295187  52.2233436  48.3820128  31.0321818
  37.4784523  53.2870866  25.7605902  37.3430198  54.1322402  26.1890750
  38.0194335  53.4890144  24.9971836  33.9651863  39.3662446  42.4220257
  33.5718808  38.8128645  43.0967902  34.7818003  39.6773024  42.8126775
  30.9313920  50.8046304  26.3333827  31.4438441  51.5989554  26.4839392
  31.5836633  50.1072595  26.2667429  32.7408805  53.9212060  28.4156581
  32.9175433  54.8430025  28.2277564  33.5365638  53.6070480  28.8450960
  36.8819823  40.7820325  40.0140514  37.6229537  41.3827478  39.9344977
  37.1137746  40.0397963  39.4558557  32.0261162  45.9676692  38.2918744
  31.9114677  45.0661950  38.5925843  31.1705679  46.2140389  37.9403560
  39.1052999  53.9094433  39.8906244  38.6616853  53.1230811  39.5727149
  39.7670213  54.0973583  39.2250135  33.8640120  55.4390234  34.4166923
  34.4147546  55.3107298  33.6443917  33.0251596  55.7385123  34.0661816
  41.2034237  54.1897233  37.9187646  41.1852713  55.0106114  37.4267915
  42.1254157  54.0651308  38.1437787  37.6607291  51.7041362  38.7611154
  38.1935628  50.9429650  38.5310462  37.1321373  51.4115014  39.5035308
  40.8276986  36.8101428  34.2904796  40.4841256  37.7003070  34.2143906
  41.1955949  36.6203086  33.4274381  28.8962837  49.1334959  27.1093398
  29.7338059  49.5431967  26.8927106  29.0741105  48.1934401  27.0793592
  40.7927269  46.8010039  22.7977231  40.2773893  47.5714644  23.0365618
  40.5204578  46.1275175  23.4210292  38.3774380  41.6459740  27.8562469
  37.5215977  41.2566590  27.6768108  38.7901332  41.7251701  26.9962255
  39.9073527  39.1806083  32.2554029  39.4038322  39.1436218  31.4421834
  40.2004134  40.0898826  32.3150686  36.1516413  39.2644813  31.2620211
  37.0169409  39.0687622  30.9026100  36.2193922  39.0355165  32.1889567
  45.7661543  49.5542394  24.7330404  44.9890986  49.2153553  24.2885566
  46.4453024  49.5595017  24.0585369  40.5813572  44.6737131  24.6237012
  40.2763708  44.9883280  25.4747155  41.5344014  44.7518551  24.6664345
  39.0260004  50.8327355  26.2729966  38.4981366  50.0980114  25.9603203
  38.5247507  51.6102031  26.0269934  44.0052850  49.0276375  31.3897012
  43.3476525  49.7175636  31.4777141  44.8093249  49.4172807  31.7330999
  33.7578732  41.4947021  28.6336578  34.3322484  41.2722202  27.9009770
  34.3449714  41.5635715  29.3865179  42.8158309  47.3820748  29.4400954
  43.3290191  48.0150740  29.9422664  43.4659533  46.7821943  29.0744314
  34.0848319  43.5251482  22.6532463  33.2485631  43.8626168  22.9741738
  33.9453089  43.3900462  21.7159600  36.0601399  38.3688270  27.3611647
  35.4065812  38.0537287  26.7368262  36.0181874  37.7464010  28.0871470
  37.1712604  48.6507565  19.2764939  36.2639666  48.4196818  19.4756088
  37.6683636  47.8545184  19.4638921  40.0780683  57.3605072  22.1961625
  39.4042382  57.6636769  22.8046583  40.4646505  58.1634152  21.8467082
  39.2939140  44.8570203  31.6859295  38.3761701  45.0785150  31.5280983
  39.7099283  44.9316514  30.8271002  40.0774188  46.2561619  26.8161975
  40.8246007  46.7683016  26.5069097  40.3465777  45.9345672  27.6766368
  38.3500838  48.7520160  23.7988929  37.4412057  48.4679193  23.8961399
  38.3795922  49.1719238  22.9392236  43.5820105  52.3626749  27.5680097
  43.1282432  51.5217659  27.6245287  42.9514072  52.9988148  27.9054877
  42.5253025  43.2918735  28.7980764  41.7875782  42.7796121  29.1291007
  42.7779798  42.8519117  27.9864041  42.0253044  54.2003246  28.5029915
  42.3176019  54.7608303  27.7842280  42.5351665  54.4931807  29.2583074
  42.6264652  36.0694987  29.3922533  42.9323529  35.2092351  29.1048448
  43.3517257  36.6612607  29.1921527  28.9189008  46.4725674  27.7804131
  28.7213408  45.8795035  27.0555198  28.3635672  46.1677884  28.4980070
  36.8985732  46.3648780  29.8998724  36.9534342  45.4122617  29.8241201
  36.0876934  46.5208219  30.3840023  38.0476926  50.2928903  21.1377008
  37.6096356  49.5764762  20.6782645  38.7887366  50.5205018  20.5762099
  34.8378092  44.9825840  27.6589103  34.0245957  45.2820011  28.0654295
  35.3337086  44.5881529  28.3763586  36.9886670  54.9783597  29.5923368
  36.9462848  55.2044443  28.6631900  37.9049368  54.7446972  29.7409169
  40.4352303  45.4467665  36.4903997  40.7901691  45.6739138  37.3498463
  41.0824435  45.7786041  35.8681253  46.1650040  48.5686100  27.1953326
  46.0267939  48.7587696  26.2674515  45.8086259  49.3305483  27.6521377
  34.3292167  42.5544196  33.2750338  34.9691546  42.4132955  32.5773302
  33.4969697  42.2678709  32.8988940  46.1919420  50.6362627  32.2064598
  46.6255927  50.5437917  33.0547652  46.9051001  50.6120128  31.5684614
  35.1052470  51.8546626  29.3885331  35.8993069  51.3596946  29.1867906
  34.3944163  51.3264489  29.0253036  39.9247315  54.2364722  33.7397698
  39.9784337  54.8055658  34.5075414  39.0562096  54.4066607  33.3751736
  31.4135234  45.9989708  25.4645083  30.4832822  45.9374163  25.6815046
  31.5092706  45.4765660  24.6681725  31.3320783  42.5244521  28.0523325
  31.5927600  43.4389854  27.9432486  32.1537955  42.0568963  28.2019938
  32.8045708  43.9382278  35.2222150  33.4768762  43.7299640  34.5734799
  31.9775495  43.7404364  34.7827382  47.0534970  50.6786328  34.7397483
  47.2470860  51.5832139  34.9856758  46.9535588  50.2193747  35.5736068
  38.7071280  40.5644219  37.2387811  38.0599195  41.2634168  37.1452287
  39.4772296  40.9980363  37.6064059  42.1150078  50.8293071  40.3138364
  41.9635585  50.6003623  39.3968447  42.1054758  51.7863672  40.3269709
  38.8835415  48.4024984  35.2984630  39.8127475  48.5536143  35.1253598
  38.4626445  48.4909004  34.4433277  37.6823746  52.4275648  33.0683168
  37.5434832  52.0594432  33.9409106  36.8938343  52.9423287  32.8967126
  38.2771898  57.5284744  24.4108704  38.4523654  57.0572788  25.2254327
  37.5904686  58.1550511  24.6389965  39.2328962  51.8057251  30.4572006
  38.8978794  51.7658021  31.3529656  38.7332907  51.1401967  29.9842416
  33.2073206  47.2124881  35.9824587  33.0693003  46.4805120  36.5836126
  34.1178129  47.1233781  35.7008775  42.1688153  49.1513285  20.7309065
  41.5517324  48.4260113  20.6342118  41.7004642  49.9122645  20.3876140
  35.8355506  46.9244840  35.4708266  36.5455125  46.2838032  35.4294885
  35.7924814  47.1757735  36.3934447  43.8242285  53.8612193  38.3914846
  43.7654831  53.1771414  37.7245429  44.2261803  54.6031183  37.9395472
  34.5484440  43.9110058  37.2903906  34.0121797  43.4600796  37.9425502
  33.9601149  44.0455967  36.5474370  32.8432984  60.6774107  31.1848565
  33.0829582  61.3092631  31.8627583  32.0002180  60.3262147  31.4713924
  33.9586699  43.3698709  19.8530370  33.0816165  43.2487510  19.4892616
  34.4344452  42.5784788  19.6009258  43.8259692  51.8251777  36.6228825
  42.9386471  51.4877699  36.7455224  44.3958243  51.0934809  36.8597591
  25.4788839  48.1575869  29.9471877  26.1659879  47.8437599  29.3592892
  25.3236968  49.0617234  29.6739128  30.2823561  43.0466066  34.3756900
  30.1981750  42.4391735  33.6407310  29.4606268  43.5375084  34.3766397
  37.3560846  56.4853230  33.5890069  37.2831017  57.2908201  34.1009373
  36.9138239  56.6845195  32.7638090  37.1450625  55.7225000  27.0992890
  36.3618147  56.2646680  27.1931115  37.8443370  56.2398979  27.4987131
  40.4547275  41.5319629  29.7427095  40.9515975  40.7789591  29.4228166
  39.6834257  41.5683946  29.1770305  48.3077033  47.2359995  31.3845387
  48.2966909  48.1184710  31.0139320  47.4394412  46.8831546  31.1899924
  39.8159529  56.3840064  35.7448227  40.5287501  57.0187529  35.6724129
  39.3249558  56.4803930  34.9288229  41.5377056  50.2891316  27.3165519
  40.6033335  50.4092779  27.1470223  41.7153724  49.3863783  27.0525529
  37.0382244  43.6737012  29.4698780  36.6680032  43.1208053  30.1579686
  37.5341336  43.0695146  28.9173780  44.9249607  46.1308636  27.8515553
  45.3910060  46.9636627  27.7775856  45.3757108  45.6653617  28.5560811
  34.8671443  54.1334507  36.5653798  35.5680902  54.7670990  36.7183192
  34.3966558  54.4749239  35.8049437  42.9925838  52.4752457  24.8501705
  43.2685682  52.3609052  25.7595579  42.1230337  52.0769942  24.8113878
  42.8966270  38.4989223  31.8906454  41.9829350  38.7293449  32.0588661
  43.3259372  38.5827667  32.7420487  42.6672729  46.6879115  34.3906348
  42.0144179  46.9355022  33.7358801  43.0453108  45.8743253  34.0568826
  39.6279902  56.7238808  28.4934519  39.8102297  55.9060464  28.9562271
  40.4512888  56.9406500  28.0559409  39.9622068  55.6506993  25.7549567
  40.4909834  55.1399447  25.1419729  40.2250288  55.3349523  26.6195100
  38.7160302  47.4298926  40.8772385  38.0400939  47.3293055  41.5474761
  39.5387935  47.2738139  41.3408383  30.4639161  53.6670862  33.4984901
  31.0492597  52.9214550  33.6312805  30.2663999  53.9774819  34.3821565
  33.3177816  56.7022110  28.5147343  32.6488191  57.1868237  28.0311383
  33.1790686  56.9491330  29.4290722  25.0556815  46.2376462  32.2189344
  25.0940915  45.7040053  33.0126462  24.5497108  45.7111668  31.6000321
  37.4583084  58.7365853  35.1130001  38.0101392  58.8997475  35.8779087
  37.7989278  59.3270291  34.4410026  32.4347578  41.0841003  35.7151886
  32.4988904  41.9455834  35.3029284  32.3714698  40.4715005  34.9824245
  31.9099850  43.1564135  39.3624920  32.5371889  42.7741213  39.9762445
  31.0527769  42.9378337  39.7280613  42.3093959  53.5627111  40.9678656
  42.8533863  54.1757069  40.4733611  41.7280804  54.1206689  41.4845669
  28.6865393  44.9640565  25.2943275  28.9818834  44.0551243  25.2410329
  27.7853429  44.9428304  24.9724278  40.5951472  56.6847829  32.0993684
  40.4702611  55.8837568  31.5904629  41.2530563  57.1794022  31.6107654
  32.2159640  43.0396561  31.2770824  31.4946226  43.6532529  31.1378297
  33.0052896  43.5754326  31.1987470  42.6586380  54.4856849  33.7273234
  41.7116716  54.3662200  33.6551560  43.0069153  53.5979347  33.8099495
  35.0185953  40.3750988  37.5511476  35.5420355  40.6213284  38.3137785
  34.7998287  41.2071022  37.1314613  30.4153235  42.6454662  25.4182600
  30.0865941  41.7652041  25.2357706  30.7692605  42.5902331  26.3058990
  39.6632813  54.2809565  29.9277586  39.5157776  53.3526272  30.1085156
  40.4886307  54.3029656  29.4434661  33.5295058  42.9327632  25.7858078
  33.8691130  43.4613553  25.0636686  33.9767178  43.2708038  26.5616645
  43.2666935  55.1038124  31.0142459  44.1913483  54.8980985  30.8766910
  43.0982239  54.8554525  31.9231800  36.2238499  41.3164683  35.2361146
  35.8835319  40.5172496  35.6381826  35.5177505  41.6166394  34.6637979
  36.8754970  38.4013995  33.6888469  37.6981040  37.9274473  33.5667359
  37.1193034  39.1804479  34.1887155  35.5163205  41.4302254  23.9851371
  36.2371567  41.8083506  23.4815088  34.8928509  42.1491130  24.0886349
  39.6594328  42.1347403  24.9209703  39.8757942  43.0172040  24.6198531
  39.1788395  41.7433616  24.1915345  34.3993549  45.0933116  31.4980448
  34.2538130  45.4073419  32.3904729  33.9218753  45.7118016  30.9451346
  36.2589932  42.0835664  31.5461337  36.2451501  41.1876757  31.2093635
  36.9762360  42.0906328  32.1799623  38.1116063  42.5173004  33.5914465
  37.8533841  43.4390075  33.5898795  37.5801103  42.1203439  34.2814929
  43.0562251  55.6223791  26.3704550  43.2299129  55.0570214  25.6178403
  43.5491143  56.4224686  26.1884040  28.8739211  47.6338460  34.4368109
  28.3292679  48.4098268  34.5688383  29.7518561  47.9809265  34.2787230
  35.6626828  40.9650044  26.8148907  35.7842739  40.0366690  27.0139795
  35.3728870  40.9788730  25.9027223  38.5318018  38.6504955  29.9515627
  38.5539715  38.7144288  28.9967607  38.9486077  37.8109463  30.1456133
  48.9101643  48.3860214  27.9894850  49.3532789  47.6367539  27.5913973
  48.0328153  48.3770350  27.6068582  44.0437424  54.9390556  23.4701448
  44.7388329  55.5597248  23.6888763  44.3860574  54.0885907  23.7453826
  29.6605233  46.7608356  37.3298266  28.9186969  46.9090992  37.9162896
  29.3397977  47.0216622  36.4665015  45.9428847  52.3890261  24.9988779
  46.4680171  52.7277534  24.2738099  45.8551200  51.4537276  24.8151914
  37.6048896  56.3024335  37.1278656  37.9136022  56.0573481  38.0001355
  38.4024378  56.5070973  36.6397526  37.6269508  58.4562244  29.3584032
  37.1874498  57.9638623  30.0516889  38.3777625  57.9135212  29.1176108
  30.1061847  54.6473785  29.3608660  30.9319867  54.3477557  28.9807304
  29.7555899  53.8781408  29.8098449  35.0743380  54.0000253  31.4306334
  34.4523389  53.3370958  31.1308562  35.7448247  54.0261385  30.7479982
  28.3070452  52.5660112  30.3197594  27.4702360  52.1382286  30.1381595
  28.2794097  52.7592555  31.2568385  35.1467907  42.4782041  41.0238840
  35.1956063  43.3544164  40.6416610  35.6890422  41.9359434  40.4510483
  45.6322753  53.0223165  40.3039977  44.8418297  53.0047304  39.7644477
  45.3956108  53.5611458  41.0589014  45.7520628  49.8715631  37.6172706
  45.8018633  49.7065639  38.5588228  45.6434552  49.0042890  37.2270586
  34.6356887  52.5504177  24.9064795  34.7845007  53.2339641  24.2531467
  35.4423330  52.5309267  25.4214250  43.0424391  45.8546559  38.9332012
  43.9434253  45.7153024  38.6416010  43.1172365  46.0201014  39.8730190
  37.3767196  43.2313414  37.7785199  36.5070505  43.5246980  37.5067787
  37.6126676  43.8153859  38.4992462  47.2538825  52.2912573  37.8614727
  46.9623633  52.6542553  38.6978188  46.6410956  51.5779581  37.6828059
  48.4534507  49.8565452  30.3817297  49.2881399  50.2955256  30.5454858
  48.5893636  49.3804106  29.5625543  45.5026013  47.4145187  36.3294785
  45.9780135  47.6072834  35.5213637  44.5791579  47.4704373  36.0838169
  32.3909520  48.5769354  25.9125863  32.1455562  47.6731684  26.1106074
  32.5605434  48.5786505  24.9705341  40.0806230  39.4493031  35.2950619
  40.5988174  40.1854058  34.9697108  39.7261363  39.7557024  36.1297378
  31.6605167  44.3097712  23.4112025  30.9674412  44.3842067  22.7552061
  31.4156919  43.5458056  23.9333542  40.3318824  35.8693313  30.8151516
  40.6120578  35.2016502  31.4411942  41.1169431  36.0622409  30.3026180
  38.1352292  55.0452307  22.3776542  37.5626259  55.6642494  21.9247014
  38.7085086  55.5951669  22.9116464  44.2027682  44.2910947  34.5623091
  45.1545105  44.3909045  34.5835315  44.0331133  43.4989216  35.0721175
  42.2242062  41.3766531  34.7482492  41.6291994  41.6571543  34.0528980
  41.9391758  41.8660431  35.5199233  41.3549552  55.3289457  23.5085124
  42.2880225  55.2635019  23.7118000  41.2672765  56.1645724  23.0499657
  43.9837569  54.6455328  20.4689072  43.9051200  54.3115191  21.3624830
  44.8047236  55.1377096  20.4680544  46.6815760  47.5117067  33.6765390
  46.6492080  46.5733068  33.8625074  47.2916384  47.5901104  32.9431215
  38.5199091  46.3813120  19.7192594  39.4658196  46.2519328  19.7881013
  38.1413336  45.6427782  20.1962023  46.8310249  44.3028110  33.7223674
  46.3149297  43.5186567  33.5353602  47.7150197  43.9746827  33.8870193
  44.4920975  38.0469126  29.6819486  44.2945797  37.7384214  30.5662818
  45.1020681  38.7730765  29.8117416  52.4992310  48.5733074  32.8171427
  53.2295698  48.3118362  33.3779131  51.8899255  47.8361796  32.8573495
  50.5807607  46.7140936  33.4145878  49.8540771  46.5796901  32.8062370
  50.1654894  47.0217765  34.2202596  38.4037783  50.4330866  41.1793251
  39.3240793  50.6109465  41.3733298  38.3687366  49.4886911  41.0272951
  36.7042008  44.3063096  19.6547480  35.7973463  44.0096209  19.7310193
  36.9817989  44.0092914  18.7881766  27.6219948  45.6269460  30.1046526
  27.3022733  44.7734768  29.8120900  27.0753377  45.8418038  30.8604493
  31.3999856  48.3431901  33.8216033  31.6185866  49.2749009  33.8404066
  31.8125630  47.9839875  34.6070836  38.3204074  38.8499986  25.8091721
  37.5104802  38.5047071  26.1846967  39.0088491  38.5407530  26.3979333
  40.2494622  37.9278033  27.4316018  40.8025661  38.3473486  28.0906041
  40.4864708  37.0013781  27.4738974  36.2727721  43.9165107  43.2118782
  36.1724448  44.8659463  43.1430873  36.0549263  43.5883345  42.3394852
  35.4740793  41.1650032  19.7959459  36.3359957  41.4904930  20.0555276
  35.6591137  40.3781527  19.2832525  27.4908208  49.2472371  32.0739648
  26.7971680  48.8326324  31.5609602  28.2381199  49.2892908  31.4773067
  43.6273429  40.0378558  26.9394682  43.0472098  40.6963362  26.5572734
  43.3609362  39.2155903  26.5282099  42.0776996  39.4383616  29.1416002
  42.5776774  39.5500150  28.3330321  42.7212603  39.1344669  29.7816811
  36.1358991  47.3462245  42.0283843  35.6526073  48.1462605  42.2347732
  36.2219930  47.3570190  41.0751287  29.4044951  49.1790625  29.9505663
  29.3815639  49.2778312  28.9987546  29.7145587  50.0255776  30.2722829
  32.0632329  51.2366780  34.0652277  33.0175582  51.2050722  33.9982209
  31.8644852  50.7757404  34.8802503  32.6531711  49.8067896  36.6323075
  33.4724600  50.3011975  36.6557912  32.9268519  48.8899864  36.6040642
  42.4098307  42.1978648  25.9951030  41.5224162  42.4828299  25.7771225
  42.8252296  42.0372412  25.1478307  45.7612843  42.2225169  29.7105369
  46.5373233  42.7121622  29.9829986  45.0360977  42.6483224  30.1677239
  48.1985402  42.9352789  30.7679310  48.7929893  42.6948525  30.0572618
  48.2711986  42.2159919  31.3952846  30.4182558  56.7786400  31.0822475
  30.2837026  56.0186800  30.5160473  30.0014620  57.5027299  30.6151264
  41.5541521  51.9623323  20.0899050  42.2577371  52.1673326  20.7056706
  40.8304169  52.5300085  20.3548134  42.3839331  47.7133184  26.2101320
  42.3274532  48.1701736  25.3708953  42.9367673  46.9523869  26.0324163
  46.1944137  43.5022916  27.0351440  45.9381071  43.1019552  27.8659648
  45.5697005  44.2166710  26.9101579  50.5056475  46.2418989  29.5422731
  49.9456033  46.3112179  30.3154293  49.8999978  46.0659974  28.8222227
  33.5751684  57.6755717  31.2940918  33.4584068  58.6201149  31.1919608
  32.7544130  57.3729278  31.6826717  43.4628218  52.4005852  22.1397510
  44.2973822  51.9687051  21.9574985  43.3012561  52.2287866  23.0674405
  43.1174110  48.9037966  23.5053850  43.0622914  48.7382237  22.5642294
  42.4920166  49.6113999  23.6616039  27.9066625  44.1406030  37.3315272
  28.5525489  43.6304984  37.8202497  27.6983776  44.8774712  37.9058697
  40.4320017  51.2086877  42.8307412  41.3011177  51.3827530  42.4694047
  39.9526769  52.0281294  42.7083142  36.4270236  38.4046075  23.0839168
  36.4148906  39.3487915  23.2407439  37.3193658  38.2216220  22.7898629
  34.6006198  58.3283978  34.5096846  35.5033444  58.3607589  34.8263341
  34.3743568  57.3984429  34.5243182  36.3559800  57.0814965  31.1706925
  35.4055431  57.0816827  31.0571297  36.6592286  56.3347700  30.6542959
  40.2422355  34.9988851  27.3385105  39.4754751  34.4447338  27.4841787
  40.6533060  35.0710720  28.1999256  32.2464116  41.2873647  41.4290286
  33.1095578  40.9310452  41.6393611  31.6729527  40.9487542  42.1165690
  52.0912493  62.9175503  32.2352687  52.7290903  62.7982251  31.5316027
  51.9733336  63.8656347  32.2940639  48.9002199  62.8702932  32.1714212
  48.5620711  62.7543996  31.2834747  49.7691968  62.4694097  32.1515218
  44.7589015  64.7238408  28.1611103  44.1953880  64.6328345  27.3927390
  44.6441410  63.9038312  28.6413595  49.3821982  64.0237783  38.1300417
  49.3710623  63.6290581  37.2580921  49.5442622  63.2903856  38.7234189
  42.3053447  66.2189600  30.9995323  43.0974739  65.8780424  30.5841622
  42.5450097  66.3284575  31.9197476  50.3388574  68.3909376  23.4725568
  49.6876554  68.9763456  23.0859581  51.1332937  68.9215571  23.5320605
  44.2644201  65.4798513  23.8712702  45.0375077  64.9327500  23.7325578
  44.6169600  66.3442762  24.0827163  46.1029244  66.8074895  37.0779601
  45.8119110  67.7120526  36.9626267  46.7386228  66.8491423  37.7923671
  47.0285450  64.1851744  33.6680961  47.6249023  63.9607766  32.9537924
  47.0860422  63.4436489  34.2706409  46.6010479  61.6391179  21.5031152
  46.8535999  61.1172700  20.7414615  45.6635038  61.4757324  21.6057835
  51.6453762  60.6426957  29.3105895  52.4316851  60.2246380  28.9596312
  51.9092466  61.5473049  29.4787543  51.8163839  66.0799808  24.0094552
  51.1809672  66.1534434  24.7215456  51.4861245  66.6693406  23.3313631
  57.0462189  60.5802190  30.2138874  57.7787361  60.0101407  30.4476703
  56.2901544  60.1923791  30.6545379  46.3206768  63.5419285  23.7055527
  46.2043026  62.8664188  24.3736611  46.4309027  63.0551659  22.8887680
  48.6638308  63.0029432  27.4102216  48.2996516  62.4760053  28.1215137
  49.5205424  62.6127901  27.2368701  54.5687609  54.2923765  34.6733482
  54.2370934  55.1619176  34.4494697  53.9733222  53.9760049  35.3527513
  48.3043795  58.0319332  22.4063564  48.4718198  58.8999568  22.7734036
  48.1140965  58.1946613  21.4824854  51.0619129  66.4936311  34.0729395
  50.7619852  67.3961349  33.9645202  50.7170188  66.2268494  34.9250548
  44.5131610  62.9450107  30.1066099  43.5882107  62.8126321  30.3143791
  44.7616023  63.7244327  30.6036042  54.4616272  59.0118851  31.7526832
  53.5533150  58.9434259  31.4585593  54.4103868  59.4890796  32.5808658
  48.2833016  60.4876989  23.3910231  48.1632642  60.9334040  24.2295712
  47.5885605  60.8362307  22.8323769  41.8740421  62.5883381  30.9409888
  42.0032802  62.8417860  31.8549300  41.1937872  63.1811089  30.6214543
  46.0439908  73.2580631  27.0400363  45.9663938  74.2088456  27.1188843
  45.4401552  72.9126503  27.6975289  48.5357138  60.4308496  39.6961729
  47.7590472  60.9902416  39.6864594  49.1747701  60.9165279  40.2176600
  56.3277919  57.2135289  33.5304706  55.6852299  57.5067822  32.8844501
  55.8232847  57.0988209  34.3357903  53.9818082  60.9598462  24.2190565
  54.8935939  61.1925849  24.0438263  53.4727730  61.5435507  23.6565644
  46.7903511  63.2393950  39.2579696  47.5318195  63.7778994  38.9814520
  46.0840496  63.8660238  39.4151248  52.2658850  65.3823090  37.8551858
  52.6742206  64.9405501  37.1106490  51.5436112  64.8075718  38.1086051
  48.6189920  60.3195697  35.2285415  49.4651115  60.7435110  35.3720064
  48.5588558  59.6629321  35.9223978  52.5887665  65.9424281  31.6104147
  51.9596527  66.1069995  30.9080215  52.2013327  66.3565890  32.3815111
  56.4676897  66.8778719  28.9648511  55.7827935  67.2577620  28.4145544
  56.5520746  67.4874045  29.6980458  51.7689366  57.9800065  36.8866589
  51.5250297  58.7342126  36.3500864  52.0449296  58.3585413  37.7213836
  53.7227828  64.5238678  35.5643854  53.9344724  65.1670438  34.8878235
  53.6757577  63.6900994  35.0965784  51.3254057  57.1356498  32.4680426
  50.4638536  57.4337752  32.7597164  51.3516492  57.3526897  31.5361459
  48.1415627  65.6798689  28.8754232  48.6053972  65.9586392  28.0858854
  47.8772425  64.7782133  28.6927323  45.0339708  65.2270170  31.8133995
  45.6041065  65.6557439  31.1751480  45.6247820  64.9452755  32.5118181
  47.0784513  61.8021841  25.6843797  47.7808556  62.2542885  26.1517723
  46.7465141  61.1605660  26.3123690  45.5264874  60.3933598  40.0595006
  44.8963535  61.0749879  40.2930403  45.4200962  60.2816679  39.1148145
  40.8209847  60.0605394  30.9860931  40.0308901  60.3162922  30.5101041
  41.3121094  60.8753732  31.0912971  54.8373656  67.4010633  33.7366211
  55.6591100  66.9990820  33.4548893  54.8336059  67.2978867  34.6882327
  42.7724592  60.4249973  27.9444407  41.9755755  60.5368667  28.4627903
  42.5450184  60.7636625  27.0785298  48.6030260  66.9494676  35.8926922
  48.6674692  67.4115084  36.7285094  47.8941184  66.3192041  36.0209232
  39.1047550  60.3135884  33.4175921  39.3555588  61.1982894  33.6833497
  39.6407098  60.1340486  32.6451013  62.9279649  63.7449382  30.0851183
  62.1743358  63.1756780  29.9295187  63.0627191  63.7112046  31.0321818
  48.3178277  68.6162784  25.7605902  48.1823952  69.4614320  26.1890750
  48.8588090  68.8182061  24.9971836  44.8045617  54.6954364  42.4220257
  44.4112563  54.1420562  43.0967902  45.6211757  55.0064942  42.8126775
  41.7707675  66.1338222  26.3333827  42.2832195  66.9281472  26.4839392
  42.4230388  65.4364512  26.2667429  43.5802559  69.2503978  28.4156581
  43.7569188  70.1721943  28.2277564  44.3759393  68.9362397  28.8450960
  47.7213578  56.1112243  40.0140514  48.4623291  56.7119396  39.9344977
  47.9531501  55.3689881  39.4558557  42.8654916  61.2968610  38.2918744
  42.7508431  60.3953867  38.5925843  42.0099434  61.5432307  37.9403560
  49.9446754  69.2386350  39.8906244  49.5010608  68.4522729  39.5727149
  50.6063967  69.4265501  39.2250135  44.7033875  70.7682152  34.4166923
  45.2541300  70.6399215  33.6443917  43.8645351  71.0677041  34.0661816
  52.0427992  69.5189150  37.9187646  52.0246467  70.3398031  37.4267915
  52.9647912  69.3943226  38.1437787  48.5001046  67.0333280  38.7611154
  49.0329383  66.2721568  38.5310462  47.9715127  66.7406932  39.5035308
  51.6670741  52.1393346  34.2904796  51.3235010  53.0294987  34.2143906
  52.0349704  51.9495003  33.4274381  39.7356592  64.4626876  27.1093398
  40.5731814  64.8723885  26.8927106  39.9134859  63.5226318  27.0793592
  51.6321024  62.1301957  22.7977231  51.1167647  62.9006561  23.0365618
  51.3598332  61.4567093  23.4210292  49.2168135  56.9751658  27.8562469
  48.3609731  56.5858508  27.6768108  49.6295086  57.0543618  26.9962255
  50.7467281  54.5098001  32.2554029  50.2432077  54.4728136  31.4421834
  51.0397888  55.4190744  32.3150686  46.9910167  54.5936731  31.2620211
  47.8563164  54.3979539  30.9026100  47.0587676  54.3647082  32.1889567
  56.6055298  64.8834311  24.7330404  55.8284741  64.5445471  24.2885566
  57.2846779  64.8886935  24.0585369  51.4207327  60.0029049  24.6237012
  51.1157462  60.3175198  25.4747155  52.3737769  60.0810469  24.6664345
  49.8653759  66.1619272  26.2729966  49.3375120  65.4272032  25.9603203
  49.3641261  66.9393949  26.0269934  54.8446605  64.3568293  31.3897012
  54.1870279  65.0467554  31.4777141  55.6487004  64.7464725  31.7330999
  44.5972486  56.8238939  28.6336578  45.1716238  56.6014120  27.9009770
  45.1843469  56.8927633  29.3865179  53.6552063  62.7112665  29.4400954
  54.1683945  63.3442657  29.9422664  54.3053287  62.1113861  29.0744314
  44.9242073  58.8543400  22.6532463  44.0879386  59.1918086  22.9741738
  44.7846843  58.7192379  21.7159600  46.8995154  53.6980187  27.3611647
  46.2459566  53.3829205  26.7368262  46.8575628  53.0755928  28.0871470
  48.0106359  63.9799483  19.2764939  47.1033421  63.7488736  19.4756088
  48.5077391  63.1837102  19.4638921  50.9174438  72.6896990  22.1961625
  50.2436136  72.9928686  22.8046583  51.3040260  73.4926070  21.8467082
  50.1332894  60.1862121  31.6859295  49.2155456  60.4077068  31.5280983
  50.5493038  60.2608431  30.8271002  50.9167942  61.5853537  26.8161975
  51.6639761  62.0974934  26.5069097  51.1859532  61.2637589  27.6766368
  49.1894592  64.0812077  23.7988929  48.2805812  63.7971110  23.8961399
  49.2189676  64.5011156  22.9392236  54.4213860  67.6918667  27.5680097
  53.9676187  66.8509577  27.6245287  53.7907826  68.3280065  27.9054877
  53.3646779  58.6210653  28.7980764  52.6269536  58.1088039  29.1291007
  53.6173553  58.1811035  27.9864041  52.8646799  69.5295164  28.5029915
  53.1569773  70.0900221  27.7842280  53.3745420  69.8223725  29.2583074
  53.4658407  51.3986905  29.3922533  53.7717283  50.5384268  29.1048448
  54.1911011  51.9904525  29.1921527  39.7582763  61.8017592  27.7804131
  39.5607162  61.2086952  27.0555198  39.2029427  61.4969802  28.4980070
  47.7379486  61.6940698  29.8998724  47.7928096  60.7414534  29.8241201
  46.9270688  61.8500137  30.3840023  48.8870680  65.6220821  21.1377008
  48.4490110  64.9056680  20.6782645  49.6281121  65.8496936  20.5762099
  45.6771846  60.3117758  27.6589103  44.8639712  60.6111928  28.0654295
  46.1730840  59.9173447  28.3763586  47.8280424  70.3075515  29.5923368
  47.7856603  70.5336361  28.6631900  48.7443123  70.0738889  29.7409169
  51.2746058  60.7759582  36.4903997  51.6295446  61.0031055  37.3498463
  51.9218189  61.1077959  35.8681253  57.0043795  63.8978018  27.1953326
  56.8661693  64.0879614  26.2674515  56.6480014  64.6597401  27.6521377
  45.1685921  57.8836113  33.2750338  45.8085300  57.7424872  32.5773302
  44.3363452  57.5970627  32.8988940  57.0313174  65.9654545  32.2064598
  57.4649681  65.8729834  33.0547652  57.7444755  65.9412046  31.5684614
  45.9446225  67.1838544  29.3885331  46.7386823  66.6888864  29.1867906
  45.2337917  66.6556407  29.0253036  50.7641069  69.5656639  33.7397698
  50.8178092  70.1347576  34.5075414  49.8955851  69.7358524  33.3751736
  42.2528988  61.3281625  25.4645083  41.3226576  61.2666081  25.6815046
  42.3486460  60.8057578  24.6681725  42.1714537  57.8536438  28.0523325
  42.4321355  58.7681771  27.9432486  42.9931710  57.3860881  28.2019938
  43.6439463  59.2674195  35.2222150  44.3162516  59.0591558  34.5734799
  42.8169249  59.0696281  34.7827382  57.8928724  66.0078246  34.7397483
  58.0864614  66.9124056  34.9856758  57.7929342  65.5485665  35.5736068
  49.5465035  55.8936136  37.2387811  48.8992950  56.5926086  37.1452287
  50.3166050  56.3272280  37.6064059  52.9543833  66.1584989  40.3138364
  52.8029339  65.9295540  39.3968447  52.9448512  67.1155590  40.3269709
  49.7229169  63.7316901  35.2984630  50.6521229  63.8828061  35.1253598
  49.3020199  63.8200922  34.4433277  48.5217501  67.7567566  33.0683168
  48.3828587  67.3886350  33.9409106  47.7332097  68.2715205  32.8967126
  49.1165653  72.8576662  24.4108704  49.2917409  72.3864705  25.2254327
  48.4298441  73.4842428  24.6389965  50.0722716  67.1349168  30.4572006
  49.7372549  67.0949938  31.3529656  49.5726662  66.4693884  29.9842416
  44.0466960  62.5416798  35.9824587  43.9086758  61.8097037  36.5836126
  44.9571883  62.4525698  35.7008775  53.0081908  64.4805203  20.7309065
  52.3911078  63.7552031  20.6342118  52.5398396  65.2414563  20.3876140
  46.6749261  62.2536758  35.4708266  47.3848879  61.6129950  35.4294885
  46.6318569  62.5049653  36.3934447  54.6636039  69.1904111  38.3914846
  54.6048586  68.5063331  37.7245429  55.0655558  69.9323101  37.9395472
  45.3878195  59.2401976  37.2903906  44.8515552  58.7892714  37.9425502
  44.7994903  59.3747884  36.5474370  43.6826738  76.0066025  31.1848565
  43.9223336  76.6384549  31.8627583  42.8395935  75.6554065  31.4713924
  44.7980454  58.6990627  19.8530370  43.9209920  58.5779428  19.4892616
  45.2738207  57.9076705  19.6009258  54.6653447  67.1543695  36.6228825
  53.7780225  66.8169617  36.7455224  55.2351998  66.4226726  36.8597591
  36.3182594  63.4867787  29.9471877  37.0053634  63.1729517  29.3592892
  36.1630722  64.3909151  29.6739128  41.1217316  58.3757983  34.3756900
  41.0375505  57.7683653  33.6407310  40.3000022  58.8667002  34.3766397
  48.1954600  71.8145147  33.5890069  48.1224772  72.6200119  34.1009373
  47.7531993  72.0137113  32.7638090  47.9844380  71.0516917  27.0992890
  47.2011902  71.5938598  27.1931115  48.6837125  71.5690897  27.4987131
  51.2941030  56.8611547  29.7427095  51.7909729  56.1081509  29.4228166
  50.5228011  56.8975863  29.1770305  59.1470787  62.5651912  31.3845387
  59.1360663  63.4476628  31.0139320  58.2788167  62.2123463  31.1899924
  50.6553284  71.7131981  35.7448227  51.3681256  72.3479446  35.6724129
  50.1643312  71.8095847  34.9288229  52.3770810  65.6183234  27.3165519
  51.4427089  65.7384697  27.1470223  52.5547479  64.7155701  27.0525529
  47.8775999  59.0028930  29.4698780  47.5073786  58.4499970  30.1579686
  48.3735091  58.3987063  28.9173780  55.7643362  61.4600553  27.8515553
  56.2303814  62.2928545  27.7775856  56.2150862  60.9945535  28.5560811
  45.7065197  69.4626425  36.5653798  46.4074657  70.0962908  36.7183192
  45.2360312  69.8041156  35.8049437  53.8319593  67.8044375  24.8501705
  54.1079437  67.6900969  25.7595579  52.9624092  67.4061859  24.8113878
  53.7360025  53.8281140  31.8906454  52.8223104  54.0585367  32.0588661
  54.1653126  53.9119584  32.7420487  53.5066483  62.0171032  34.3906348
  52.8537933  62.2646940  33.7358801  53.8846863  61.2035170  34.0568826
  50.4673657  72.0530725  28.4934519  50.6496051  71.2352381  28.9562271
  51.2906643  72.2698418  28.0559409  50.8015822  70.9798911  25.7549567
  51.3303589  70.4691365  25.1419729  51.0644042  70.6641441  26.6195100
  49.5554056  62.7590843  40.8772385  48.8794693  62.6584973  41.5474761
  50.3781690  62.6030057  41.3408383  41.3032915  68.9962780  33.4984901
  41.8886352  68.2506468  33.6312805  41.1057754  69.3066737  34.3821565
  44.1571570  72.0314027  28.5147343  43.4881946  72.5160155  28.0311383
  44.0184440  72.2783248  29.4290722  35.8950570  61.5668380  32.2189344
  35.9334669  61.0331971  33.0126462  35.3890863  61.0403586  31.6000321
  48.2976839  74.0657771  35.1130001  48.8495147  74.2289392  35.8779087
  48.6383032  74.6562209  34.4410026  43.2741332  56.4132921  35.7151886
  43.3382659  57.2747751  35.3029284  43.2108452  55.8006922  34.9824245
  42.7493605  58.4856053  39.3624920  43.3765644  58.1033130  39.9762445
  41.8921524  58.2670255  39.7280613  53.1487713  68.8919028  40.9678656
  53.6927617  69.5048987  40.4733611  52.5674558  69.4498607  41.4845669
  39.5259147  60.2932482  25.2943275  39.8212589  59.3843161  25.2410329
  38.6247183  60.2720222  24.9724278  51.4345226  72.0139746  32.0993684
  51.3096366  71.2129486  31.5904629  52.0924317  72.5085940  31.6107654
  43.0553394  58.3688479  31.2770824  42.3339980  58.9824447  31.1378297
  43.8446650  58.9046244  31.1987470  53.4980135  69.8148766  33.7273234
  52.5510470  69.6954118  33.6551560  53.8462908  68.9271264  33.8099495
  45.8579708  55.7042905  37.5511476  46.3814110  55.9505202  38.3137785
  45.6392041  56.5362940  37.1314613  41.2546989  57.9746580  25.4182600
  40.9259695  57.0943959  25.2357706  41.6086360  57.9194249  26.3058990
  50.5026568  69.6101483  29.9277586  50.3551530  68.6818190  30.1085156
  51.3280061  69.6321573  29.4434661  44.3688812  58.2619550  25.7858078
  44.7084885  58.7905471  25.0636686  44.8160933  58.5999956  26.5616645
  54.1060690  70.4330041  31.0142459  55.0307237  70.2272903  30.8766910
  53.9375993  70.1846443  31.9231800  47.0632253  56.6456600  35.2361146
  46.7229073  55.8464413  35.6381826  46.3571259  56.9458311  34.6637979
  47.7148725  53.7305913  33.6888469  48.5374794  53.2566391  33.5667359
  47.9586788  54.5096397  34.1887155  46.3556959  56.7594171  23.9851371
  47.0765322  57.1375424  23.4815088  45.7322263  57.4783048  24.0886349
  50.4988082  57.4639320  24.9209703  50.7151697  58.3463958  24.6198531
  50.0182149  57.0725534  24.1915345  45.2387304  60.4225033  31.4980448
  45.0931884  60.7365337  32.3904729  44.7612507  61.0409934  30.9451346
  47.0983686  57.4127581  31.5461337  47.0845255  56.5168675  31.2093635
  47.8156115  57.4198245  32.1799623  48.9509817  57.8464922  33.5914465
  48.6927595  58.7681992  33.5898795  48.4194858  57.4495356  34.2814929
  53.8956006  70.9515709  26.3704550  54.0692883  70.3862131  25.6178403
  54.3884897  71.7516604  26.1884040  39.7132966  62.9630378  34.4368109
  39.1686434  63.7390186  34.5688383  40.5912316  63.3101182  34.2787230
  46.5020582  56.2941962  26.8148907  46.6236494  55.3658608  27.0139795
  46.2122625  56.3080648  25.9027223  49.3711773  53.9796872  29.9515627
  49.3933470  54.0436205  28.9967607  49.7879832  53.1401381  30.1456133
  59.7495397  63.7152132  27.9894850  60.1926543  62.9659457  27.5913973
  58.8721907  63.7062268  27.6068582  54.8831178  70.2682473  23.4701448
  55.5782083  70.8889166  23.6888763  55.2254329  69.4177824  23.7453826
  40.4998988  62.0900274  37.3298266  39.7580724  62.2382910  37.9162896
  40.1791732  62.3508540  36.4665015  56.7822602  67.7182179  24.9988779
  57.3073926  68.0569451  24.2738099  56.6944954  66.7829194  24.8151914
  48.4442650  71.6316252  37.1278656  48.7529777  71.3865399  38.0001355
  49.2418132  71.8362891  36.6397526  48.4663262  73.7854162  29.3584032
  48.0268253  73.2930541  30.0516889  49.2171379  73.2427130  29.1176108
  40.9455601  69.9765703  29.3608660  41.7713621  69.6769475  28.9807304
  40.5949653  69.2073325  29.8098449  45.9137134  69.3292171  31.4306334
  45.2917144  68.6662876  31.1308562  46.5842001  69.3553303  30.7479982
  39.1464206  67.8952029  30.3197594  38.3096115  67.4674204  30.1381595
  39.1187852  68.0884473  31.2568385  45.9861662  57.8073959  41.0238840
  46.0349817  58.6836082  40.6416610  46.5284176  57.2651352  40.4510483
  56.4716508  68.3515082  40.3039977  55.6812051  68.3339221  39.7644477
  56.2349862  68.8903376  41.0589014  56.5914383  65.2007549  37.6172706
  56.6412388  65.0357556  38.5588228  56.4828306  64.3334808  37.2270586
  45.4750641  67.8796094  24.9064795  45.6238762  68.5631559  24.2531467
  46.2817085  67.8601184  25.4214250  53.8818145  61.1838477  38.9332012
  54.7828008  61.0444942  38.6416010  53.9566120  61.3492932  39.8730190
  48.2160950  58.5605332  37.7785199  47.3464260  58.8538898  37.5067787
  48.4520431  59.1445777  38.4992462  58.0932580  67.6204490  37.8614727
  57.8017388  67.9834471  38.6978188  57.4804711  66.9071499  37.6828059
  59.2928262  65.1857370  30.3817297  60.1275153  65.6247174  30.5454858
  59.4287391  64.7096023  29.5625543  56.3419768  62.7437105  36.3294785
  56.8173889  62.9364751  35.5213637  55.4185333  62.7996291  36.0838169
  43.2303274  63.9061272  25.9125863  42.9849316  63.0023602  26.1106074
  43.3999189  63.9078423  24.9705341  50.9199984  54.7784948  35.2950619
  51.4381928  55.5145975  34.9697108  50.5655117  55.0848942  36.1297378
  42.4998922  59.6389630  23.4112025  41.8068167  59.7133985  22.7552061
  42.2550674  58.8749973  23.9333542  51.1712578  51.1985231  30.8151516
  51.4514332  50.5308420  31.4411942  51.9563185  51.3914327  30.3026180
  48.9746047  70.3744225  22.3776542  48.4020014  70.9934412  21.9247014
  49.5478841  70.9243587  22.9116464  55.0421437  59.6202865  34.5623091
  55.9938860  59.7200963  34.5835315  54.8724887  58.8281134  35.0721175
  53.0635816  56.7058448  34.7482492  52.4685748  56.9863461  34.0528980
  52.7785513  57.1952349  35.5199233  52.1943307  70.6581375  23.5085124
  53.1273980  70.5926937  23.7118000  52.1066520  71.4937642  23.0499657
  54.8231323  69.9747245  20.4689072  54.7444955  69.6407109  21.3624830
  55.6440990  70.4669013  20.4680544  57.5209515  62.8408985  33.6765390
  57.4885835  61.9024985  33.8625074  58.1310138  62.9193021  32.9431215
  49.3592845  61.7105038  19.7192594  50.3051950  61.5811246  19.7881013
  48.9807090  60.9719700  20.1962023  57.6704003  59.6320028  33.7223674
  57.1543052  58.8478485  33.5353602  58.5543952  59.3038745  33.8870193
  55.3314730  53.3761044  29.6819486  55.1339551  53.0676132  30.5662818
  55.9414436  54.1022683  29.8117416  63.3386064  63.9024992  32.8171427
  64.0689453  63.6410280  33.3779131  62.7293010  63.1653713  32.8573495
  61.4201362  62.0432854  33.4145878  60.6934525  61.9088819  32.8062370
  61.0048648  62.3509683  34.2202596  49.2431538  65.7622784  41.1793251
  50.1634547  65.9401383  41.3733298  49.2081121  64.8178829  41.0272951
  47.5435763  59.6355014  19.6547480  46.6367218  59.3388127  19.7310193
  47.8211744  59.3384832  18.7881766  38.4613703  60.9561377  30.1046526
  38.1416487  60.1026686  29.8120900  37.9147131  61.1709956  30.8604493
  42.2393610  63.6723818  33.8216033  42.4579620  64.6040926  33.8404066
  42.6519384  63.3131793  34.6070836  49.1597828  54.1791904  25.8091721
  48.3498557  53.8338989  26.1846967  49.8482245  53.8699447  26.3979333
  51.0888377  53.2569951  27.4316018  51.6419415  53.6765404  28.0906041
  51.3258463  52.3305699  27.4738974  47.1121476  59.2457024  43.2118782
  47.0118203  60.1951381  43.1430873  46.8943018  58.9175263  42.3394852
  46.3134547  56.4941949  19.7959459  47.1753711  56.8196848  20.0555276
  46.4984891  55.7073445  19.2832525  38.3301963  64.5764289  32.0739648
  37.6365434  64.1618242  31.5609602  39.0774954  64.6184825  31.4773067
  54.4667184  55.3670476  26.9394682  53.8865853  56.0255280  26.5572734
  54.2003116  54.5447820  26.5282099  52.9170750  54.7675533  29.1416002
  53.4170528  54.8792068  28.3330321  53.5606358  54.4636586  29.7816811
  46.9752746  62.6754163  42.0283843  46.4919828  63.4754523  42.2347732
  47.0613685  62.6862108  41.0751287  40.2438705  64.5082543  29.9505663
  40.2209394  64.6070230  28.9987546  40.5539342  65.3547694  30.2722829
  42.9026083  66.5658698  34.0652277  43.8569337  66.5342640  33.9982209
  42.7038607  66.1049321  34.8802503  43.4925465  65.1359814  36.6323075
  44.3118354  65.6303892  36.6557912  43.7662273  64.2191782  36.6040642
  53.2492062  57.5270566  25.9951030  52.3617917  57.8120217  25.7771225
  53.6646051  57.3664329  25.1478307  56.6006598  57.5517087  29.7105369
  57.3766988  58.0413540  29.9829986  55.8754732  57.9775141  30.1677239
  59.0379156  58.2644706  30.7679310  59.6323647  58.0240442  30.0572618
  59.1105740  57.5451837  31.3952846  41.2576312  72.1078317  31.0822475
  41.1230780  71.3478718  30.5160473  40.8408374  72.8319217  30.6151264
  52.3935275  67.2915241  20.0899050  53.0971125  67.4965243  20.7056706
  51.6697924  67.8592003  20.3548134  53.2233085  63.0425102  26.2101320
  53.1668287  63.4993653  25.3708953  53.7761428  62.2815787  26.0324163
  57.0337891  58.8314834  27.0351440  56.7774826  58.4311470  27.8659648
  56.4090759  59.5458628  26.9101579  61.3450229  61.5710907  29.5422731
  60.7849787  61.6404096  30.3154293  60.7393733  61.3951892  28.8222227
  44.4145438  73.0047634  31.2940918  44.2977822  73.9493067  31.1919608
  43.5937884  72.7021196  31.6826717  54.3021973  67.7297770  22.1397510
  55.1367576  67.2978968  21.9574985  54.1406315  67.5579784  23.0674405
  53.9567865  64.2329883  23.5053850  53.9016669  64.0674155  22.5642294
  53.3313920  64.9405916  23.6616039  38.7460380  59.4697948  37.3315272
  39.3919243  58.9596902  37.8202497  38.5377531  60.2066629  37.9058697
  51.2713772  66.5378795  42.8307412  52.1404932  66.7119447  42.4694047
  50.7920523  67.3573212  42.7083142  47.2663990  53.7337992  23.0839168
  47.2542660  54.6779832  23.2407439  48.1587412  53.5508138  22.7898629
  45.4399952  73.6575896  34.5096846  46.3427199  73.6899506  34.8263341
  45.2137322  72.7276347  34.5243182  47.1953554  72.4106883  31.1706925
  46.2449185  72.4108744  31.0571297  47.4986040  71.6639617  30.6542959
  51.0816110  50.3280769  27.3385105  50.3148505  49.7739256  27.4841787
  51.4926815  50.4002638  28.1999256  43.0857871  56.6165565  41.4290286
  43.9489332  56.2602370  41.6393611  42.5123281  56.2779460  42.1165690
  62.9306248  78.2467421  32.2352687  63.5684658  78.1274168  31.5316027
  62.8127091  79.1948265  32.2940639  59.7395954  78.1994849  32.1714212
  59.4014465  78.0835914  31.2834747  60.6085722  77.7986014  32.1515218
  55.5982770  80.0530326  28.1611103  55.0347635  79.9620263  27.3927390
  55.4835165  79.2330230  28.6413595  53.1447202  81.5481517  30.9995323
  53.9368493  81.2072342  30.5841622  53.3843852  81.6576492  31.9197476
  61.1782328  83.7201293  23.4725568  60.5270308  84.3055374  23.0859581
  61.9726691  84.2507488  23.5320605  55.1037955  80.8090430  23.8712702
  55.8768831  80.2619418  23.7325578  55.4563354  81.6734680  24.0827163
  57.8679205  79.5143661  33.6680961  58.4642777  79.2899684  32.9537924
  57.9254176  78.7728407  34.2706409  57.4404233  76.9683097  21.5031152
  57.6929754  76.4464618  20.7414615  56.5028792  76.8049242  21.6057835
  62.4847516  75.9718875  29.3105895  63.2710605  75.5538298  28.9596312
  62.7486220  76.8764967  29.4787543  62.6557593  81.4091725  24.0094552
  62.0203426  81.4826352  24.7215456  62.3255000  81.9985324  23.3313631
  67.8855943  75.9094108  30.2138874  68.6181115  75.3393325  30.4476703
  67.1295299  75.5215709  30.6545379  57.1600522  78.8711203  23.7055527
  57.0436780  78.1956106  24.3736611  57.2702782  78.3843576  22.8887680
  59.5032063  78.3321350  27.4102216  59.1390270  77.8051971  28.1215137
  60.3599179  77.9419819  27.2368701  59.1437550  73.3611249  22.4063564
  59.3111952  74.2291486  22.7734036  58.9534719  73.5238531  21.4824854
  61.9012883  81.8228228  34.0729395  61.6013606  82.7253267  33.9645202
  61.5563943  81.5560411  34.9250548  55.3525365  78.2742025  30.1066099
  54.4275861  78.1418239  30.3143791  55.6009778  79.0536244  30.6036042
  65.3010027  74.3410768  31.7526832  64.3926904  74.2726177  31.4585593
  65.2497623  74.8182713  32.5808658  59.1226771  75.8168907  23.3910231
  59.0026396  76.2625958  24.2295712  58.4279359  76.1654224  22.8323769
  52.7134176  77.9175299  30.9409888  52.8426557  78.1709778  31.8549300
  52.0331627  78.5103007  30.6214543  56.8833663  88.5872549  27.0400363
  56.8057693  89.5380374  27.1188843  56.2795307  88.2418421  27.6975289
  64.8211837  76.2890380  24.2190565  65.7329693  76.5217767  24.0438263
  64.3121484  76.8727424  23.6565644  63.4281419  81.2716198  31.6104147
  62.7990282  81.4361913  30.9080215  63.0407081  81.6857808  32.3815111
  67.3070651  82.2070636  28.9648511  66.6221689  82.5869538  28.4145544
  67.3914501  82.8165963  29.6980458  62.1647812  72.4648416  32.4680426
  61.3032291  72.7629670  32.7597164  62.1910246  72.6818815  31.5361459
  58.9809381  81.0090607  28.8754232  59.4447727  81.2878310  28.0858854
  58.7166179  80.1074051  28.6927323  55.8733462  80.5562088  31.8133995
  56.4434819  80.9849356  31.1751480  56.4641574  80.2744673  32.5118181
  57.9178267  77.1313759  25.6843797  58.6202311  77.5834803  26.1517723
  57.5858896  76.4897578  26.3123690  51.6603601  75.3897312  30.9860931
  50.8702655  75.6454840  30.5101041  52.1514849  76.2045649  31.0912971
  53.6118347  75.7541891  27.9444407  52.8149510  75.8660585  28.4627903
  53.3843939  76.0928543  27.0785298  49.9441304  75.6427802  33.4175921
  50.1949343  76.5274812  33.6833497  50.4800853  75.4632404  32.6451013
  73.7673404  79.0741299  30.0851183  73.0137112  78.5048697  29.9295187
  73.9020945  79.0403964  31.0321818  59.1572032  83.9454702  25.7605902
  59.0217707  84.7906237  26.1890750  59.6981844  84.1473979  24.9971836
  52.6101429  81.4630140  26.3333827  53.1225950  82.2573390  26.4839392
  53.2624142  80.7656430  26.2667429  54.4196314  84.5795896  28.4156581
  54.5962942  85.5013861  28.2277564  55.2153147  84.2654315  28.8450960
  53.7048670  76.6260528  38.2918744  53.5902186  75.7245785  38.5925843
  52.8493188  76.8724224  37.9403560  55.5427629  86.0974070  34.4166923
  56.0935055  85.9691133  33.6443917  54.7039105  86.3968959  34.0661816
  62.5064495  67.4685263  34.2904796  62.1628765  68.3586905  34.2143906
  62.8743458  67.2786921  33.4274381  50.5750346  79.7918794  27.1093398
  51.4125568  80.2015802  26.8927106  50.7528614  78.8518236  27.0793592
  62.4714778  77.4593875  22.7977231  61.9561402  78.2298479  23.0365618
  62.1992087  76.7859011  23.4210292  60.0561889  72.3043575  27.8562469
  59.2003486  71.9150426  27.6768108  60.4688841  72.3835536  26.9962255
  61.5861036  69.8389919  32.2554029  61.0825831  69.8020054  31.4421834
  61.8791643  70.7482661  32.3150686  57.8303922  69.9228648  31.2620211
  58.6956918  69.7271457  30.9026100  57.8981431  69.6939000  32.1889567
  67.4449052  80.2126229  24.7330404  66.6678495  79.8737389  24.2885566
  68.1240533  80.2178852  24.0585369  62.2601081  75.3320967  24.6237012
  61.9551217  75.6467116  25.4747155  63.2131523  75.4102387  24.6664345
  60.7047513  81.4911190  26.2729966  60.1768875  80.7563950  25.9603203
  60.2035016  82.2685866  26.0269934  65.6840359  79.6860210  31.3897012
  65.0264034  80.3759472  31.4777141  66.4880758  80.0756642  31.7330999
  55.4366241  72.1530856  28.6336578  56.0109993  71.9306038  27.9009770
  56.0237223  72.2219551  29.3865179  64.4945818  78.0404583  29.4400954
  65.0077700  78.6734575  29.9422664  65.1447042  77.4405779  29.0744314
  55.7635828  74.1835317  22.6532463  54.9273140  74.5210004  22.9741738
  55.6240598  74.0484297  21.7159600  57.7388908  69.0272105  27.3611647
  57.0853321  68.7121122  26.7368262  57.6969383  68.4047846  28.0871470
  58.8500113  79.3091400  19.2764939  57.9427175  79.0780654  19.4756088
  59.3471145  78.5129019  19.4638921  61.7568192  88.0188907  22.1961625
  61.0829891  88.3220604  22.8046583  62.1434014  88.8217988  21.8467082
  60.9726649  75.5154039  31.6859295  60.0549210  75.7368986  31.5280983
  61.3886792  75.5900349  30.8271002  61.7561697  76.9145454  26.8161975
  62.5033516  77.4266852  26.5069097  62.0253286  76.5929507  27.6766368
  60.0288347  79.4103995  23.7988929  59.1199566  79.1263028  23.8961399
  60.0583431  79.8303074  22.9392236  65.2607614  83.0210585  27.5680097
  64.8069941  82.1801494  27.6245287  64.6301581  83.6571983  27.9054877
  64.2040534  73.9502571  28.7980764  63.4663291  73.4379957  29.1291007
  64.4567307  73.5102952  27.9864041  63.7040553  84.8587081  28.5029915
  63.9963528  85.4192138  27.7842280  64.2139174  85.1515642  29.2583074
  64.3052161  66.7278823  29.3922533  64.6111038  65.8676186  29.1048448
  65.0304766  67.3196443  29.1921527  50.5976517  77.1309509  27.7804131
  50.4000917  76.5378870  27.0555198  50.0423181  76.8261719  28.4980070
  58.5773241  77.0232616  29.8998724  58.6321851  76.0706452  29.8241201
  57.7664443  77.1792055  30.3840023  59.7264435  80.9512739  21.1377008
  59.2883865  80.2348598  20.6782645  60.4674875  81.1788854  20.5762099
  56.5165601  75.6409675  27.6589103  55.7033466  75.9403846  28.0654295
  57.0124595  75.2465364  28.3763586  58.6674179  85.6367432  29.5923368
  58.6250357  85.8628279  28.6631900  59.5836877  85.4030807  29.7409169
  67.8437549  79.2269936  27.1953326  67.7055448  79.4171532  26.2674515
  67.4873768  79.9889319  27.6521377  56.0079675  73.2128031  33.2750338
  56.6479055  73.0716790  32.5773302  55.1757206  72.9262544  32.8988940
  56.7839979  82.5130461  29.3885331  57.5780578  82.0180781  29.1867906
  56.0731672  81.9848324  29.0253036  61.6034824  84.8948557  33.7397698
  61.6571846  85.4639493  34.5075414  60.7349605  85.0650442  33.3751736
  53.0922743  76.6573543  25.4645083  52.1620331  76.5957999  25.6815046
  53.1880215  76.1349496  24.6681725  53.0108292  73.1828356  28.0523325
  53.2715109  74.0973689  27.9432486  53.8325464  72.7152798  28.2019938
  54.4833217  74.5966113  35.2222150  55.1556271  74.3883475  34.5734799
  53.6563004  74.3988199  34.7827382  60.5622924  79.0608819  35.2984630
  61.4914984  79.2119979  35.1253598  60.1413954  79.1492840  34.4433277
  59.3611255  83.0859483  33.0683168  59.2222341  82.7178268  33.9409106
  58.5725852  83.6007123  32.8967126  59.9559407  88.1868580  24.4108704
  60.1311163  87.7156623  25.2254327  59.2692195  88.8134346  24.6389965
  60.9116471  82.4641086  30.4572006  60.5766303  82.4241856  31.3529656
  60.4120416  81.7985802  29.9842416  54.8860715  77.8708716  35.9824587
  54.7480512  77.1388955  36.5836126  55.7965638  77.7817616  35.7008775
  63.8475662  79.8097120  20.7309065  63.2304833  79.0843949  20.6342118
  63.3792151  80.5706481  20.3876140  57.5143015  77.5828675  35.4708266
  58.2242634  76.9421868  35.4294885  57.4712323  77.8341570  36.3934447
  56.2271949  74.5693893  37.2903906  55.6909306  74.1184632  37.9425502
  55.6388658  74.7039802  36.5474370  54.5220493  91.3357943  31.1848565
  54.7617091  91.9676467  31.8627583  53.6789689  90.9845983  31.4713924
  55.6374208  74.0282545  19.8530370  54.7603674  73.9071345  19.4892616
  56.1131961  73.2368623  19.6009258  47.1576348  78.8159704  29.9471877
  47.8447388  78.5021434  29.3592892  47.0024477  79.7201069  29.6739128
  51.9611070  73.7049901  34.3756900  51.8769259  73.0975571  33.6407310
  51.1393777  74.1958919  34.3766397  59.0348355  87.1437065  33.5890069
  58.9618526  87.9492037  34.1009373  58.5925748  87.3429031  32.7638090
  58.8238134  86.3808835  27.0992890  58.0405656  86.9230515  27.1931115
  59.5230879  86.8982815  27.4987131  62.1334784  72.1903465  29.7427095
  62.6303484  71.4373427  29.4228166  61.3621766  72.2267781  29.1770305
  61.4947038  87.0423899  35.7448227  62.2075010  87.6771364  35.6724129
  61.0037067  87.1387765  34.9288229  63.2164565  80.9475152  27.3165519
  62.2820844  81.0676614  27.1470223  63.3941233  80.0447618  27.0525529
  58.7169753  74.3320847  29.4698780  58.3467541  73.7791888  30.1579686
  59.2128845  73.7278981  28.9173780  66.6037116  76.7892471  27.8515553
  67.0697568  77.6220463  27.7775856  67.0544617  76.3237453  28.5560811
  56.5458952  84.7918343  36.5653798  57.2468411  85.4254825  36.7183192
  56.0754067  85.1333074  35.8049437  64.6713347  83.1336292  24.8501705
  64.9473191  83.0192887  25.7595579  63.8017846  82.7353777  24.8113878
  64.5753779  69.1573058  31.8906454  63.6616859  69.3877285  32.0588661
  65.0046880  69.2411502  32.7420487  61.3067411  87.3822643  28.4934519
  61.4889806  86.5644299  28.9562271  62.1300397  87.5990335  28.0559409
  61.6409577  86.3090828  25.7549567  62.1697343  85.7983283  25.1419729
  61.9037796  85.9933358  26.6195100  52.1426670  84.3254698  33.4984901
  52.7280106  83.5798385  33.6312805  51.9451508  84.6358654  34.3821565
  54.9965325  87.3605945  28.5147343  54.3275700  87.8452073  28.0311383
  54.8578195  87.6075165  29.4290722  46.7344324  76.8960298  32.2189344
  46.7728424  76.3623888  33.0126462  46.2284617  76.3695503  31.6000321
  59.1370593  89.3949688  35.1130001  59.6888901  89.5581310  35.8779087
  59.4776787  89.9854126  34.4410026  54.1135087  71.7424838  35.7151886
  54.1776413  72.6039669  35.3029284  54.0502207  71.1298840  34.9824245
  50.3652902  75.6224400  25.2943275  50.6606343  74.7135078  25.2410329
  49.4640938  75.6012139  24.9724278  62.2738981  87.3431664  32.0993684
  62.1490120  86.5421404  31.5904629  62.9318072  87.8377857  31.6107654
  53.8947149  73.6980396  31.2770824  53.1733735  74.3116364  31.1378297
  54.6840405  74.2338161  31.1987470  64.3373889  85.1440684  33.7273234
  63.3904225  85.0246035  33.6551560  64.6856662  84.2563182  33.8099495
  56.6973462  71.0334823  37.5511476  57.2207864  71.2797120  38.3137785
  56.4785796  71.8654858  37.1314613  52.0940744  73.3038498  25.4182600
  51.7653450  72.4235876  25.2357706  52.4480114  73.2486166  26.3058990
  61.3420322  84.9393400  29.9277586  61.1945285  84.0110108  30.1085156
  62.1673816  84.9613491  29.4434661  55.2082567  73.5911467  25.7858078
  55.5478639  74.1197389  25.0636686  55.6554687  73.9291873  26.5616645
  64.9454444  85.7621959  31.0142459  65.8700992  85.5564820  30.8766910
  64.7769748  85.5138360  31.9231800  57.9026008  71.9748518  35.2361146
  57.5622828  71.1756331  35.6381826  57.1965014  72.2750229  34.6637979
  58.5542479  69.0597831  33.6888469  59.3768549  68.5858309  33.5667359
  58.7980543  69.8388314  34.1887155  57.1950714  72.0886089  23.9851371
  57.9159076  72.4667342  23.4815088  56.5716018  72.8074966  24.0886349
  61.3381837  72.7931238  24.9209703  61.5545451  73.6755876  24.6198531
  60.8575904  72.4017451  24.1915345  56.0781058  75.7516951  31.4980448
  55.9325639  76.0657254  32.3904729  55.6006262  76.3701851  30.9451346
  57.9377441  72.7419499  31.5461337  57.9239010  71.8460592  31.2093635
  58.6549869  72.7490163  32.1799623  59.7903572  73.1756839  33.5914465
  59.5321350  74.0973910  33.5898795  59.2588612  72.7787274  34.2814929
  64.7349760  86.2807626  26.3704550  64.9086638  85.7154049  25.6178403
  65.2278652  87.0808521  26.1884040  50.5526720  78.2922296  34.4368109
  50.0080188  79.0682104  34.5688383  51.4306070  78.6393100  34.2787230
  57.3414337  71.6233879  26.8148907  57.4630248  70.6950526  27.0139795
  57.0516379  71.6372565  25.9027223  60.2105527  69.3088790  29.9515627
  60.2327224  69.3728123  28.9967607  60.6273586  68.4693299  30.1456133
  70.5889152  79.0444049  27.9894850  71.0320298  78.2951375  27.5913973
  69.7115662  79.0354186  27.6068582  65.7224933  85.5974391  23.4701448
  66.4175838  86.2181084  23.6888763  66.0648083  84.7469742  23.7453826
  51.3392742  77.4192192  37.3298266  50.5974478  77.5674827  37.9162896
  51.0185486  77.6800457  36.4665015  67.6216356  83.0474096  24.9988779
  68.1467680  83.3861369  24.2738099  67.5338709  82.1121112  24.8151914
  59.2836405  86.9608170  37.1278656  59.5923531  86.7157317  38.0001355
  60.0811887  87.1654809  36.6397526  59.3057017  89.1146080  29.3584032
  58.8662007  88.6222458  30.0516889  60.0565134  88.5719047  29.1176108
  51.7849356  85.3057621  29.3608660  52.6107376  85.0061392  28.9807304
  51.4343408  84.5365243  29.8098449  56.7530889  84.6584089  31.4306334
  56.1310898  83.9954794  31.1308562  57.4235756  84.6845221  30.7479982
  49.9857961  83.2243947  30.3197594  49.1489869  82.7966121  30.1381595
  49.9581606  83.4176390  31.2568385  56.3144396  83.2088012  24.9064795
  56.4632516  83.8923477  24.2531467  57.1210839  83.1893102  25.4214250
  70.1322016  80.5149288  30.3817297  70.9668908  80.9539092  30.5454858
  70.2681145  80.0387941  29.5625543  54.0697029  79.2353190  25.9125863
  53.8243071  78.3315520  26.1106074  54.2392943  79.2370340  24.9705341
  53.3392676  74.9681547  23.4112025  52.6461921  75.0425902  22.7552061
  53.0944428  74.2041891  23.9333542  62.0106333  66.5277149  30.8151516
  62.2908087  65.8600338  31.4411942  62.7956940  66.7206244  30.3026180
  59.8139801  85.7036143  22.3776542  59.2413768  86.3226330  21.9247014
  60.3872595  86.2535504  22.9116464  63.0337061  85.9873293  23.5085124
  63.9667734  85.9218854  23.7118000  62.9460274  86.8229560  23.0499657
  65.6625078  85.3039163  20.4689072  65.5838709  84.9699027  21.3624830
  66.4834745  85.7960931  20.4680544  60.1986600  77.0396955  19.7192594
  61.1445705  76.9103163  19.7881013  59.8200845  76.3011617  20.1962023
  66.1708484  68.7052961  29.6819486  65.9733306  68.3968050  30.5662818
  66.7808190  69.4314600  29.8117416  74.1779819  79.2316909  32.8171427
  74.9083207  78.9702197  33.3779131  73.5686764  78.4945631  32.8573495
  58.3829517  74.9646932  19.6547480  57.4760972  74.6680044  19.7310193
  58.6605498  74.6676750  18.7881766  49.3007457  76.2853295  30.1046526
  48.9810242  75.4318603  29.8120900  48.7540886  76.5001873  30.8604493
  53.0787365  79.0015736  33.8216033  53.2973375  79.9332844  33.8404066
  53.4913139  78.6423711  34.6070836  59.9991583  69.5083821  25.8091721
  59.1892311  69.1630906  26.1846967  60.6876000  69.1991365  26.3979333
  61.9282131  68.5861868  27.4316018  62.4813170  69.0057322  28.0906041
  62.1652217  67.6597616  27.4738974  57.1528302  71.8233867  19.7959459
  58.0147466  72.1488765  20.0555276  57.3378646  71.0365363  19.2832525
  49.1695717  79.9056207  32.0739648  48.4759189  79.4910159  31.5609602
  49.9168708  79.9476743  31.4773067  65.3060938  70.6962393  26.9394682
  64.7259607  71.3547197  26.5572734  65.0396871  69.8739738  26.5282099
  63.7564505  70.0967451  29.1416002  64.2564283  70.2083986  28.3330321
  64.4000112  69.7928504  29.7816811  51.0832460  79.8374460  29.9505663
  51.0603148  79.9362148  28.9987546  51.3933096  80.6839611  30.2722829
  53.7419838  81.8950615  34.0652277  54.6963091  81.8634558  33.9982209
  53.5432361  81.4341239  34.8802503  54.3319220  80.4651731  36.6323075
  55.1512109  80.9595810  36.6557912  54.6056028  79.5483700  36.6040642
  64.0885816  72.8562484  25.9951030  63.2011671  73.1412134  25.7771225
  64.5039805  72.6956247  25.1478307  67.4400352  72.8809005  29.7105369
  68.2160742  73.3705457  29.9829986  66.7148486  73.3067059  30.1677239
  69.8772911  73.5936624  30.7679310  70.4717402  73.3532360  30.0572618
  69.9499495  72.8743755  31.3952846  52.0970067  87.4370235  31.0822475
  51.9624535  86.6770636  30.5160473  51.6802129  88.1611135  30.6151264
  63.2329030  82.6207158  20.0899050  63.9364880  82.8257161  20.7056706
  62.5091678  83.1883920  20.3548134  64.0626840  78.3717020  26.2101320
  64.0062041  78.8285571  25.3708953  64.6155182  77.6107704  26.0324163
  67.8731646  74.1606752  27.0351440  67.6168580  73.7603387  27.8659648
  67.2484514  74.8750546  26.9101579  72.1843984  76.9002825  29.5422731
  71.6243542  76.9696014  30.3154293  71.5787487  76.7243809  28.8222227
  55.2539192  88.3339552  31.2940918  55.1371577  89.2784984  31.1919608
  54.4331639  88.0313113  31.6826717  65.1415727  83.0589688  22.1397510
  65.9761331  82.6270886  21.9574985  64.9800070  82.8871701  23.0674405
  64.7961619  79.5621801  23.5053850  64.7410423  79.3966072  22.5642294
  64.1707674  80.2697834  23.6616039  49.5854134  74.7989865  37.3315272
  50.2312998  74.2888819  37.8202497  49.3771285  75.5358547  37.9058697
  58.1057745  69.0629910  23.0839168  58.0936415  70.0071750  23.2407439
  58.9981167  68.8800055  22.7898629  56.2793707  88.9867814  34.5096846
  57.1820953  89.0191424  34.8263341  56.0531077  88.0568265  34.5243182
  58.0347309  87.7398800  31.1706925  57.0842940  87.7400662  31.0571297
  58.3379795  86.9931535  30.6542959  61.9209864  65.6572687  27.3385105
  61.1542260  65.1031173  27.4841787  62.3320569  65.7294555  28.1999256
  73.7700002  93.5759339  32.2352687  74.4078412  93.4566086  31.5316027
  73.6520845  94.5240183  32.2940639  70.5789708  93.5286767  32.1714212
  70.2408220  93.4127832  31.2834747  71.4479477  93.1277932  32.1515218
  66.4376524  95.3822243  28.1611103  65.8741389  95.2912180  27.3927390
  66.3228919  94.5622148  28.6413595  63.9840956  96.8773435  30.9995323
  64.7762248  96.5364260  30.5841622  64.2237606  96.9868410  31.9197476
  72.0176083  99.0493211  23.4725568  71.3664063  99.6347291  23.0859581
  72.8120446  99.5799406  23.5320605  65.9431710  96.1382348  23.8712702
  66.7162586  95.5911335  23.7325578  66.2957109  97.0026597  24.0827163
  68.2797988  92.2975014  21.5031152  68.5323508  91.7756536  20.7414615
  67.3422547  92.1341160  21.6057835  73.3241271  91.3010793  29.3105895
  74.1104360  90.8830216  28.9596312  73.5879975  92.2056885  29.4787543
  73.4951348  96.7383643  24.0094552  72.8597181  96.8118269  24.7215456
  73.1648754  97.3277242  23.3313631  78.7249698  91.2386026  30.2138874
  79.4574870  90.6685243  30.4476703  77.9689053  90.8507626  30.6545379
  67.9994277  94.2003120  23.7055527  67.8830535  93.5248024  24.3736611
  68.1096536  93.7135494  22.8887680  70.3425817  93.6613267  27.4102216
  69.9784025  93.1343888  28.1215137  71.1992933  93.2711736  27.2368701
  69.9831304  88.6903167  22.4063564  70.1505707  89.5583403  22.7734036
  69.7928474  88.8530449  21.4824854  72.7406638  97.1520146  34.0729395
  72.4407361  98.0545185  33.9645202  72.3957697  96.8852329  34.9250548
  66.1919119  93.6033943  30.1066099  65.2669616  93.4710157  30.3143791
  66.4403532  94.3828162  30.6036042  76.1403781  89.6702686  31.7526832
  75.2320659  89.6018095  31.4585593  76.0891377  90.1474631  32.5808658
  69.9620525  91.1460824  23.3910231  69.8420151  91.5917875  24.2295712
  69.2673114  91.4946142  22.8323769  63.5527930  93.2467216  30.9409888
  63.6820311  93.5001695  31.8549300  62.8725381  93.8394924  30.6214543
  67.7227417 103.9164466  27.0400363  67.6451447 104.8672291  27.1188843
  67.1189061 103.5710339  27.6975289  75.6605591  91.6182298  24.2190565
  76.5723448  91.8509684  24.0438263  75.1515239  92.2019342  23.6565644
  70.2977429  90.9779532  35.2285415  71.1438624  91.4018946  35.3720064
  70.2376067  90.3213157  35.9223978  74.2675174  96.6008116  31.6104147
  73.6384036  96.7653830  30.9080215  73.8800836  97.0149726  32.3815111
  78.1464406  97.5362554  28.9648511  77.4615444  97.9161455  28.4145544
  78.2308255  98.1457881  29.6980458  73.0041566  87.7940334  32.4680426
  72.1426045  88.0921587  32.7597164  73.0304001  88.0110733  31.5361459
  69.8203136  96.3382524  28.8754232  70.2841481  96.6170227  28.0858854
  69.5559934  95.4365969  28.6927323  68.7572022  92.4605677  25.6843797
  69.4596065  92.9126720  26.1517723  68.4252650  91.8189495  26.3123690
  62.4997356  90.7189229  30.9860931  61.7096410  90.9746758  30.5101041
  62.9908603  91.5337567  31.0912971  76.5161165  98.0594468  33.7366211
  77.3378609  97.6574656  33.4548893  76.5123568  97.9562703  34.6882327
  64.4512101  91.0833808  27.9444407  63.6543264  91.1952503  28.4627903
  64.2237693  91.4220461  27.0785298  70.2817769  97.6078512  35.8926922
  70.3462201  98.0698919  36.7285094  69.5728693  96.9775877  36.0209232
  60.7835059  90.9719720  33.4175921  61.0343097  91.8566730  33.6833497
  61.3194607  90.7924321  32.6451013  84.6067158  94.4033217  30.0851183
  83.8530867  93.8340615  29.9295187  84.7414699  94.3695881  31.0321818
  69.9965786  99.2746619  25.7605902  69.8611461 100.1198155  26.1890750
  70.5375599  99.4765897  24.9971836  63.4495184  96.7922057  26.3333827
  63.9619704  97.5865307  26.4839392  64.1017897  96.0948348  26.2667429
  65.2590068  99.9087814  28.4156581  65.4356697 100.8305778  28.2277564
  66.0546902  99.5946233  28.8450960  66.3821384 101.4265987  34.4166923
  66.9328809 101.2983051  33.6443917  65.5432860 101.7260876  34.0661816
  73.7215501 100.1772986  37.9187646  73.7033976 100.9981867  37.4267915
  74.6435421 100.0527061  38.1437787  61.4144101  95.1210712  27.1093398
  62.2519323  95.5307720  26.8927106  61.5922368  94.1810154  27.0793592
  73.3108533  92.7885792  22.7977231  72.7955156  93.5590397  23.0365618
  73.0385841  92.1150928  23.4210292  70.8955644  87.6335493  27.8562469
  70.0397240  87.2442343  27.6768108  71.3082595  87.7127454  26.9962255
  72.4254790  85.1681836  32.2554029  71.9219586  85.1311971  31.4421834
  72.7185397  86.0774579  32.3150686  68.6697676  85.2520566  31.2620211
  69.5350673  85.0563375  30.9026100  68.7375185  85.0230918  32.1889567
  78.2842807  95.5418147  24.7330404  77.5072250  95.2029306  24.2885566
  78.9634288  95.5470770  24.0585369  73.0994836  90.6612884  24.6237012
  72.7944971  90.9759033  25.4747155  74.0525278  90.7394304  24.6664345
  71.5441268  96.8203108  26.2729966  71.0162629  96.0855867  25.9603203
  71.0428770  97.5977784  26.0269934  76.5234114  95.0152128  31.3897012
  75.8657788  95.7051389  31.4777141  77.3274513  95.4048560  31.7330999
  66.2759995  87.4822774  28.6336578  66.8503747  87.2597955  27.9009770
  66.8630978  87.5511468  29.3865179  75.3339572  93.3696501  29.4400954
  75.8471454  94.0026493  29.9422664  75.9840796  92.7697696  29.0744314
  66.6029582  89.5127235  22.6532463  65.7666895  89.8501921  22.9741738
  66.4634352  89.3776215  21.7159600  68.5782663  84.3564023  27.3611647
  67.9247075  84.0413040  26.7368262  68.5363137  83.7339763  28.0871470
  69.6893868  94.6383318  19.2764939  68.7820930  94.4072571  19.4756088
  70.1864900  93.8420937  19.4638921  72.5961947 103.3480825  22.1961625
  71.9223645 103.6512522  22.8046583  72.9827769 104.1509905  21.8467082
  71.8120403  90.8445956  31.6859295  70.8942965  91.0660903  31.5280983
  72.2280547  90.9192267  30.8271002  72.5955451  92.2437372  26.8161975
  73.3427270  92.7558769  26.5069097  72.8647041  91.9221425  27.6766368
  70.8682101  94.7395913  23.7988929  69.9593321  94.4554946  23.8961399
  70.8977185  95.1594991  22.9392236  76.1001369  98.3502502  27.5680097
  75.6463696  97.5093412  27.6245287  75.4695335  98.9863901  27.9054877
  75.0434288  89.2794488  28.7980764  74.3057045  88.7671874  29.1291007
  75.2961062  88.8394870  27.9864041  74.5434308 100.1878999  28.5029915
  74.8357282 100.7484056  27.7842280  75.0532928 100.4807560  29.2583074
  75.1445916  82.0570740  29.3922533  75.4504792  81.1968104  29.1048448
  75.8698520  82.6488360  29.1921527  61.4370272  92.4601427  27.7804131
  61.2394671  91.8670788  27.0555198  60.8816936  92.1553637  28.4980070
  69.4166995  92.3524533  29.8998724  69.4715605  91.3998370  29.8241201
  68.6058197  92.5083972  30.3840023  70.5658189  96.2804656  21.1377008
  70.1277619  95.5640515  20.6782645  71.3068630  96.5080771  20.5762099
  67.3559355  90.9701593  27.6589103  66.5427221  91.2695764  28.0654295
  67.8518349  90.5757282  28.3763586  69.5067933 100.9659350  29.5923368
  69.4644112 101.1920196  28.6631900  70.4230632 100.7322725  29.7409169
  78.6831304  94.5561853  27.1953326  78.5449202  94.7463449  26.2674515
  78.3267523  95.3181236  27.6521377  66.8473430  88.5419949  33.2750338
  67.4872809  88.4008708  32.5773302  66.0150961  88.2554462  32.8988940
  67.6233734  97.8422379  29.3885331  68.4174332  97.3472699  29.1867906
  66.9125426  97.3140242  29.0253036  72.4428578 100.2240475  33.7397698
  72.4965601 100.7931411  34.5075414  71.5743360 100.3942360  33.3751736
  63.9316497  91.9865461  25.4645083  63.0014085  91.9249916  25.6815046
  64.0273969  91.4641414  24.6681725  63.8502046  88.5120274  28.0523325
  64.1108864  89.4265607  27.9432486  64.6719219  88.0444716  28.2019938
  71.4016678  94.3900737  35.2984630  72.3308738  94.5411896  35.1253598
  70.9807708  94.4784757  34.4433277  70.2005010  98.4151401  33.0683168
  70.0616096  98.0470185  33.9409106  69.4119606  98.9299040  32.8967126
  70.7953162 103.5160497  24.4108704  70.9704918 103.0448541  25.2254327
  70.1085950 104.1426264  24.6389965  71.7510225  97.7933004  30.4572006
  71.4160058  97.7533774  31.3529656  71.2514171  97.1277720  29.9842416
  74.6869417  95.1389038  20.7309065  74.0698587  94.4135866  20.6342118
  74.2185905  95.8998398  20.3876140  76.3423548  99.8487946  38.3914846
  76.2836094  99.1647167  37.7245429  76.7443067 100.5906936  37.9395472
  65.3614247 106.6649860  31.1848565  65.6010845 107.2968384  31.8627583
  64.5183444 106.3137900  31.4713924  66.4767963  89.3574462  19.8530370
  65.5997429  89.2363263  19.4892616  66.9525716  88.5660541  19.6009258
  76.3440956  97.8127530  36.6228825  75.4567734  97.4753452  36.7455224
  76.9139507  97.0810562  36.8597591  57.9970103  94.1451622  29.9471877
  58.6841143  93.8313352  29.3592892  57.8418231  95.0492987  29.6739128
  62.8004825  89.0341819  34.3756900  62.7163014  88.4267488  33.6407310
  61.9787531  89.5250837  34.3766397  69.8742109 102.4728983  33.5890069
  69.8012280 103.2783954  34.1009373  69.4319502 102.6720949  32.7638090
  69.6631889 101.7100753  27.0992890  68.8799411 102.2522433  27.1931115
  70.3624634 102.2274732  27.4987131  72.9728539  87.5195382  29.7427095
  73.4697238  86.7665345  29.4228166  72.2015520  87.5559699  29.1770305
  80.8258296  93.2235748  31.3845387  80.8148172  94.1060463  31.0139320
  79.9575676  92.8707299  31.1899924  72.3340793 102.3715817  35.7448227
  73.0468765 103.0063282  35.6724129  71.8430821 102.4679683  34.9288229
  74.0558319  96.2767069  27.3165519  73.1214598  96.3968532  27.1470223
  74.2334988  95.3739536  27.0525529  69.5563507  89.6612765  29.4698780
  69.1861295  89.1083806  30.1579686  70.0522600  89.0570899  28.9173780
  77.4430871  92.1184389  27.8515553  77.9091323  92.9512380  27.7775856
  77.8938371  91.6529370  28.5560811  75.5107102  98.4628210  24.8501705
  75.7866946  98.3484805  25.7595579  74.6411601  98.0645695  24.8113878
  75.4147534  84.4864976  31.8906454  74.5010613  84.7169203  32.0588661
  75.8440635  84.5703420  32.7420487  72.1461166 102.7114561  28.4934519
  72.3283560 101.8936217  28.9562271  72.9694152 102.9282253  28.0559409
  72.4803331 101.6382746  25.7549567  73.0091098 101.1275201  25.1419729
  72.7431551 101.3225276  26.6195100  62.9820424  99.6546615  33.4984901
  63.5673861  98.9090303  33.6312805  62.7845263  99.9650572  34.3821565
  65.8359079 102.6897863  28.5147343  65.1669455 103.1743990  28.0311383
  65.6971949 102.9367083  29.4290722  57.5738079  92.2252215  32.2189344
  57.6122178  91.6915806  33.0126462  57.0678372  91.6987421  31.6000321
  69.9764348 104.7241606  35.1130001  70.5282656 104.8873228  35.8779087
  70.3170541 105.3146044  34.4410026  61.2046656  90.9516318  25.2943275
  61.5000098  90.0426996  25.2410329  60.3034692  90.9304057  24.9724278
  73.1132735 102.6723582  32.0993684  72.9883875 101.8713322  31.5904629
  73.7711826 103.1669775  31.6107654  64.7340903  89.0272314  31.2770824
  64.0127489  89.6408282  31.1378297  65.5234159  89.5630079  31.1987470
  75.1767644 100.4732602  33.7273234  74.2297979 100.3537953  33.6551560
  75.5250417  99.5855100  33.8099495  62.9334498  88.6330415  25.4182600
  62.6047204  87.7527794  25.2357706  63.2873869  88.5778084  26.3058990
  72.1814077 100.2685318  29.9277586  72.0339039  99.3402025  30.1085156
  73.0067570 100.2905409  29.4434661  66.0476321  88.9203385  25.7858078
  66.3872394  89.4489306  25.0636686  66.4948442  89.2583791  26.5616645
  75.7848199 101.0913877  31.0142459  76.7094746 100.8856738  30.8766910
  75.6163502 100.8430278  31.9231800  69.3936234  84.3889748  33.6888469
  70.2162303  83.9150226  33.5667359  69.6374297  85.1680232  34.1887155
  68.0344468  87.4178007  23.9851371  68.7552831  87.7959259  23.4815088
  67.4109772  88.1366883  24.0886349  72.1775591  88.1223156  24.9209703
  72.3939206  89.0047793  24.6198531  71.6969658  87.7309369  24.1915345
  66.9174813  91.0808869  31.4980448  66.7719393  91.3949172  32.3904729
  66.4400016  91.6993769  30.9451346  68.7771195  88.0711417  31.5461337
  68.7632764  87.1752510  31.2093635  69.4943624  88.0782081  32.1799623
  70.6297326  88.5048757  33.5914465  70.3715104  89.4265828  33.5898795
  70.0982367  88.1079192  34.2814929  75.5743515 101.6099544  26.3704550
  75.7480392 101.0445967  25.6178403  76.0672406 102.4100439  26.1884040
  68.1808091  86.9525797  26.8148907  68.3024003  86.0242443  27.0139795
  67.8910134  86.9664483  25.9027223  71.0499282  84.6380708  29.9515627
  71.0720979  84.7020041  28.9967607  71.4667341  83.7985216  30.1456133
  81.4282906  94.3735967  27.9894850  81.8714052  93.6243292  27.5913973
  80.5509416  94.3646103  27.6068582  76.5618687 100.9266309  23.4701448
  77.2569592 101.5473001  23.6888763  76.9041838 100.0761660  23.7453826
  78.4610111  98.3766014  24.9988779  78.9861435  98.7153287  24.2738099
  78.3732463  97.4413029  24.8151914  70.1230159 102.2900088  37.1278656
  70.4317286 102.0449234  38.0001355  70.9205641 102.4946726  36.6397526
  70.1450771 104.4437997  29.3584032  69.7055762 103.9514376  30.0516889
  70.8958888 103.9010965  29.1176108  62.6243110 100.6349538  29.3608660
  63.4501130 100.3353310  28.9807304  62.2737162  99.8657161  29.8098449
  67.5924643  99.9876006  31.4306334  66.9704653  99.3246711  31.1308562
  68.2629510 100.0137138  30.7479982  60.8251715  98.5535865  30.3197594
  59.9883624  98.1258039  30.1381595  60.7975361  98.7468308  31.2568385
  67.1538150  98.5379930  24.9064795  67.3026271  99.2215394  24.2531467
  67.9604594  98.5185020  25.4214250  80.9715771  95.8441205  30.3817297
  81.8062662  96.2831009  30.5454858  81.1074900  95.3679859  29.5625543
  64.9090783  94.5645107  25.9125863  64.6636825  93.6607437  26.1106074
  65.0786698  94.5662258  24.9705341  72.5987493  85.4368784  35.2950619
  73.1169437  86.1729811  34.9697108  72.2442626  85.7432777  36.1297378
  64.1786431  90.2973465  23.4112025  63.4855676  90.3717820  22.7552061
  63.9338183  89.5333809  23.9333542  72.8500087  81.8569066  30.8151516
  73.1301841  81.1892255  31.4411942  73.6350694  82.0498162  30.3026180
  70.6533556 101.0328060  22.3776542  70.0807523 101.6518247  21.9247014
  71.2266350 101.5827422  22.9116464  73.8730816 101.3165210  23.5085124
  74.8061489 101.2510772  23.7118000  73.7854028 102.1521477  23.0499657
  76.5018832 100.6331081  20.4689072  76.4232464 100.2990944  21.3624830
  77.3228499 101.1252849  20.4680544  71.0380354  92.3688873  19.7192594
  71.9839459  92.2395081  19.7881013  70.6594599  91.6303535  20.1962023
  79.3491512  90.2903863  33.7223674  78.8330561  89.5062320  33.5353602
  80.2331461  89.9622580  33.8870193  77.0102239  84.0344879  29.6819486
  76.8127060  83.7259967  30.5662818  77.6201944  84.7606518  29.8117416
  85.0173573  94.5608827  32.8171427  85.7476962  94.2994115  33.3779131
  84.4080519  93.8237549  32.8573495  83.0988870  92.7016689  33.4145878
  82.3722034  92.5672654  32.8062370  82.6836157  93.0093518  34.2202596
  69.2223272  90.2938849  19.6547480  68.3154727  89.9971962  19.7310193
  69.4999253  89.9968667  18.7881766  60.1401212  91.6145213  30.1046526
  59.8203996  90.7610521  29.8120900  59.5934640  91.8293791  30.8604493
  70.8385337  84.8375739  25.8091721  70.0286066  84.4922824  26.1846967
  71.5269754  84.5283283  26.3979333  72.7675886  83.9153786  27.4316018
  73.3206924  84.3349239  28.0906041  73.0045972  82.9889534  27.4738974
  67.9922056  87.1525785  19.7959459  68.8541220  87.4780683  20.0555276
  68.1772400  86.3657280  19.2832525  60.0089472  95.2348124  32.0739648
  59.3152943  94.8202077  31.5609602  60.7562463  95.2768661  31.4773067
  76.1454693  86.0254311  26.9394682  75.5653362  86.6839115  26.5572734
  75.8790625  85.2031656  26.5282099  74.5958259  85.4259369  29.1416002
  75.0958037  85.5375903  28.3330321  75.2393867  85.1220422  29.7816811
  61.9226214  95.1666378  29.9505663  61.8996903  95.2654065  28.9987546
  62.2326851  96.0131529  30.2722829  74.9279571  88.1854401  25.9951030
  74.0405426  88.4704052  25.7771225  75.3433560  88.0248165  25.1478307
  78.2794107  88.2100922  29.7105369  79.0554497  88.6997375  29.9829986
  77.5542241  88.6358977  30.1677239  80.7166665  88.9228542  30.7679310
  81.3111156  88.6824278  30.0572618  80.7893249  88.2035672  31.3952846
  62.9363821 102.7662153  31.0822475  62.8018289 102.0062553  30.5160473
  62.5195883 103.4903052  30.6151264  74.0722784  97.9499076  20.0899050
  74.7758634  98.1549079  20.7056706  73.3485433  98.5175838  20.3548134
  74.9020594  93.7008937  26.2101320  74.8455796  94.1577489  25.3708953
  75.4548937  92.9399622  26.0324163  78.7125400  89.4898669  27.0351440
  78.4562335  89.0895305  27.8659648  78.0878268  90.2042463  26.9101579
  83.0237738  92.2294742  29.5422731  82.4637296  92.2987932  30.3154293
  82.4181242  92.0535727  28.8222227  66.0932947 103.6631470  31.2940918
  65.9765331 104.6076902  31.1919608  65.2725393 103.3605031  31.6826717
  75.9809482  98.3881605  22.1397510  76.8155085  97.9562804  21.9574985
  75.8193824  98.2163619  23.0674405  75.6355374  94.8913719  23.5053850
  75.5804177  94.7257990  22.5642294  75.0101429  95.5989752  23.6616039
  60.4247889  90.1281783  37.3315272  61.0706752  89.6180737  37.8202497
  60.2165040  90.8650465  37.9058697  68.9451499  84.3921828  23.0839168
  68.9330169  85.3363668  23.2407439  69.8374921  84.2091973  22.7898629
  67.1187461 104.3159731  34.5096846  68.0214708 104.3483342  34.8263341
  66.8924831 103.3860182  34.5243182  68.8741063 103.0690718  31.1706925
  67.9236694 103.0692580  31.0571297  69.1773549 102.3223453  30.6542959
  72.7603619  80.9864604  27.3385105  71.9936014  80.4323091  27.4841787
  73.1714324  81.0586473  28.1999256  84.6093757 108.9051256  32.2352687
  85.2472167 108.7858004  31.5316027  84.4914600 109.8532100  32.2940639
  81.4183463 108.8578685  32.1714212  81.0801974 108.7419749  31.2834747
  82.2873231 108.4569850  32.1515218  77.2770279 110.7114161  28.1611103
  76.7135144 110.6204098  27.3927390  77.1622674 109.8914065  28.6413595
  81.9003246 110.0113536  38.1300417  81.8891887 109.6166335  37.2580921
  82.0623885 109.2779609  38.7234189  74.8234711 112.2065353  30.9995323
  75.6156002 111.8656177  30.5841622  75.0631361 112.3160328  31.9197476
  82.8569837 114.3785129  23.4725568  82.2057817 114.9639209  23.0859581
  83.6514200 114.9091324  23.5320605  76.7825464 111.4674266  23.8712702
  77.5556340 110.9203253  23.7325578  77.1350863 112.3318515  24.0827163
  78.6210507 112.7950648  37.0779601  78.3300373 113.6996279  36.9626267
  79.2567491 112.8367176  37.7923671  79.5466714 110.1727497  33.6680961
  80.1430286 109.9483519  32.9537924  79.6041685 109.4312242  34.2706409
  79.1191742 107.6266932  21.5031152  79.3717263 107.1048453  20.7414615
  78.1816301 107.4633077  21.6057835  84.1635025 106.6302710  29.3105895
  84.9498114 106.2122133  28.9596312  84.4273729 107.5348802  29.4787543
  84.3345102 112.0675561  24.0094552  83.6990935 112.1410187  24.7215456
  84.0042509 112.6569159  23.3313631  89.5643452 106.5677943  30.2138874
  90.2968624 105.9977160  30.4476703  88.8082808 106.1799544  30.6545379
  78.8388031 109.5295038  23.7055527  78.7224289 108.8539941  24.3736611
  78.9490291 109.0427412  22.8887680  81.1819572 108.9905185  27.4102216
  80.8177779 108.4635806  28.1215137  82.0386688 108.6003654  27.2368701
  80.8225059 104.0195085  22.4063564  80.9899461 104.8875321  22.7734036
  80.6322228 104.1822366  21.4824854  83.5800392 112.4812064  34.0729395
  83.2801115 113.3837102  33.9645202  83.2351452 112.2144247  34.9250548
  77.0312874 108.9325860  30.1066099  76.1063370 108.8002075  30.3143791
  77.2797287 109.7120080  30.6036042  86.9797536 104.9994604  31.7526832
  86.0714413 104.9310012  31.4585593  86.9285132 105.4766549  32.5808658
  80.8014280 106.4752742  23.3910231  80.6813905 106.9209793  24.2295712
  80.1066868 106.8238060  22.8323769  74.3921685 108.5759134  30.9409888
  74.5214066 108.8293613  31.8549300  73.7119136 109.1686842  30.6214543
  78.5621172 119.2456384  27.0400363  78.4845202 120.1964209  27.1188843
  77.9582815 118.9002256  27.6975289  88.8459182 103.2011042  33.5304706
  88.2033563 103.4943575  32.8844501  88.3414111 103.0863962  34.3357903
  86.4999346 106.9474215  24.2190565  87.4117202 107.1801602  24.0438263
  85.9908993 107.5311260  23.6565644  79.3084774 109.2269703  39.2579696
  80.0499458 109.7654747  38.9814520  78.6021759 109.8535991  39.4151248
  84.7840114 111.3698843  37.8551858  85.1923470 110.9281254  37.1106490
  84.0617375 110.7951471  38.1086051  81.1371184 106.3071450  35.2285415
  81.9832379 106.7310863  35.3720064  81.0769821 105.6505074  35.9223978
  85.1068928 111.9300034  31.6104147  84.4777791 112.0945748  30.9080215
  84.7194590 112.3441643  32.3815111  88.9858160 112.8654472  28.9648511
  88.3009198 113.2453373  28.4145544  89.0702009 113.4749798  29.6980458
  86.2409092 110.5114431  35.5643854  86.4525987 111.1546191  34.8878235
  86.1938840 109.6776747  35.0965784  83.8435321 103.1232251  32.4680426
  82.9819800 103.4213505  32.7597164  83.8697755 103.3402650  31.5361459
  80.6596890 111.6674442  28.8754232  81.1235236 111.9462145  28.0858854
  80.3953688 110.7657886  28.6927323  77.5520971 111.2145923  31.8133995
  78.1222328 111.6433192  31.1751480  78.1429083 110.9328508  32.5118181
  79.5965776 107.7897594  25.6843797  80.2989820 108.2418638  26.1517723
  79.2646405 107.1481413  26.3123690  73.3391110 106.0481147  30.9860931
  72.5490164 106.3038675  30.5101041  73.8302358 106.8629485  31.0912971
  87.3554920 113.3886386  33.7366211  88.1772363 112.9866573  33.4548893
  87.3517323 113.2854620  34.6882327  75.2905856 106.4125726  27.9444407
  74.4937019 106.5244420  28.4627903  75.0631448 106.7512378  27.0785298
  81.1211523 112.9370429  35.8926922  81.1855956 113.3990837  36.7285094
  80.4122447 112.3067794  36.0209232  71.6228813 106.3011637  33.4175921
  71.8736852 107.1858647  33.6833497  72.1588362 106.1216239  32.6451013
  95.4460913 109.7325135  30.0851183  94.6924621 109.1632533  29.9295187
  95.5808454 109.6987799  31.0321818  80.8359541 114.6038537  25.7605902
  80.7005216 115.4490073  26.1890750  81.3769353 114.8057815  24.9971836
  74.2888938 112.1213975  26.3333827  74.8013459 112.9157225  26.4839392
  74.9411651 111.4240265  26.2667429  76.0983823 115.2379731  28.4156581
  76.2750451 116.1597696  28.2277564  76.8940656 114.9238150  28.8450960
  75.3836179 107.2844363  38.2918744  75.2689695 106.3829620  38.5925843
  74.5280697 107.5308060  37.9403560  82.4628017 115.2262103  39.8906244
  82.0191871 114.4398482  39.5727149  83.1245231 115.4141254  39.2250135
  77.2215138 116.7557905  34.4166923  77.7722564 116.6274968  33.6443917
  76.3826614 117.0552794  34.0661816  84.5609255 115.5064903  37.9187646
  84.5427731 116.3273784  37.4267915  85.4829175 115.3818979  38.1437787
  81.0182309 113.0209033  38.7611154  81.5510646 112.2597321  38.5310462
  80.4896391 112.7282685  39.5035308  84.1852004  98.1269099  34.2904796
  83.8416274  99.0170740  34.2143906  84.5530967  97.9370756  33.4274381
  72.2537855 110.4502629  27.1093398  73.0913077 110.8599638  26.8927106
  72.4316123 109.5102071  27.0793592  84.1502287 108.1177710  22.7977231
  83.6348911 108.8882315  23.0365618  83.8779596 107.4442846  23.4210292
  81.7349398 102.9627411  27.8562469  80.8790994 102.5734261  27.6768108
  82.1476350 103.0419371  26.9962255  83.2648545 100.4973754  32.2554029
  82.7613340 100.4603889  31.4421834  83.5579152 101.4066497  32.3150686
  79.5091431 100.5812484  31.2620211  80.3744427 100.3855292  30.9026100
  79.5768940 100.3522835  32.1889567  89.1236561 110.8710065  24.7330404
  88.3466004 110.5321224  24.2885566  89.8028042 110.8762688  24.0585369
  83.9388590 105.9904802  24.6237012  83.6338726 106.3050951  25.4747155
  84.8919032 106.0686222  24.6664345  82.3835022 112.1495025  26.2729966
  81.8556384 111.4147785  25.9603203  81.8822525 112.9269702  26.0269934
  87.3627868 110.3444046  31.3897012  86.7051543 111.0343307  31.4777141
  88.1668267 110.7340478  31.7330999  77.1153750 102.8114692  28.6336578
  77.6897502 102.5889873  27.9009770  77.7024732 102.8803386  29.3865179
  86.1733327 108.6988418  29.4400954  86.6865209 109.3318410  29.9422664
  86.8234551 108.0989614  29.0744314  77.4423337 104.8419153  22.6532463
  76.6060649 105.1793839  22.9741738  77.3028106 104.7068132  21.7159600
  79.4176417  99.6855940  27.3611647  78.7640830  99.3704958  26.7368262
  79.3756892  99.0631681  28.0871470  80.5287622 109.9675236  19.2764939
  79.6214684 109.7364489  19.4756088  81.0258654 109.1712855  19.4638921
  83.4355701 118.6772743  22.1961625  82.7617400 118.9804439  22.8046583
  83.8221523 119.4801823  21.8467082  82.6514158 106.1737874  31.6859295
  81.7336719 106.3952821  31.5280983  83.0674301 106.2484184  30.8271002
  83.4349206 107.5729290  26.8161975  84.1821025 108.0850687  26.5069097
  83.7040795 107.2513342  27.6766368  81.7075856 110.0687830  23.7988929
  80.7987075 109.7846863  23.8961399  81.7370940 110.4886909  22.9392236
  86.9395123 113.6794420  27.5680097  86.4857450 112.8385330  27.6245287
  86.3089090 114.3155818  27.9054877  85.8828043 104.6086406  28.7980764
  85.1450800 104.0963792  29.1291007  86.1354816 104.1686788  27.9864041
  85.3828062 115.5170917  28.5029915  85.6751037 116.0775974  27.7842280
  85.8926683 115.8099478  29.2583074  85.9839670  97.3862658  29.3922533
  86.2898547  96.5260021  29.1048448  86.7092275  97.9780278  29.1921527
  72.2764026 107.7893345  27.7804131  72.0788426 107.1962705  27.0555198
  71.7210690 107.4845555  28.4980070  80.2560750 107.6816451  29.8998724
  80.3109360 106.7290287  29.8241201  79.4451952 107.8375890  30.3840023
  81.4051944 111.6096574  21.1377008  80.9671373 110.8932433  20.6782645
  82.1462384 111.8372689  20.5762099  78.1953110 106.2993511  27.6589103
  77.3820975 106.5987681  28.0654295  78.6912104 105.9049200  28.3763586
  80.3461688 116.2951268  29.5923368  80.3037866 116.5212114  28.6631900
  81.2624386 116.0614642  29.7409169  83.7927321 106.7635335  36.4903997
  84.1476709 106.9906808  37.3498463  84.4399453 107.0953712  35.8681253
  89.5225058 109.8853771  27.1953326  89.3842957 110.0755367  26.2674515
  89.1661277 110.6473154  27.6521377  77.6867184 103.8711866  33.2750338
  78.3266564 103.7300625  32.5773302  76.8544715 103.5846380  32.8988940
  89.5494438 111.9530298  32.2064598  89.9830945 111.8605587  33.0547652
  90.2626019 111.9287799  31.5684614  78.4627488 113.1714297  29.3885331
  79.2568087 112.6764617  29.1867906  77.7519181 112.6432160  29.0253036
  83.2822333 115.5532392  33.7397698  83.3359355 116.1223329  34.5075414
  82.4137114 115.7234277  33.3751736  74.7710252 107.3157378  25.4645083
  73.8407840 107.2541834  25.6815046  74.8667724 106.7933331  24.6681725
  74.6895801 103.8412191  28.0523325  74.9502618 104.7557525  27.9432486
  75.5112973 103.3736634  28.2019938  76.1620726 105.2549948  35.2222150
  76.8343780 105.0467311  34.5734799  75.3350513 105.0572034  34.7827382
  90.4109988 111.9953999  34.7397483  90.6045878 112.8999809  34.9856758
  90.3110606 111.5361418  35.5736068  85.4725096 112.1460742  40.3138364
  85.3210603 111.9171293  39.3968447  85.4629776 113.1031343  40.3269709
  82.2410433 109.7192654  35.2984630  83.1702493 109.8703814  35.1253598
  81.8201463 109.8076675  34.4433277  81.0398764 113.7443319  33.0683168
  80.9009850 113.3762103  33.9409106  80.2513361 114.2590958  32.8967126
  81.6346916 118.8452415  24.4108704  81.8098672 118.3740458  25.2254327
  80.9479704 119.4718181  24.6389965  82.5903980 113.1224921  30.4572006
  82.2553812 113.0825691  31.3529656  82.0907925 112.4569637  29.9842416
  76.5648223 108.5292551  35.9824587  76.4268021 107.7972790  36.5836126
  77.4753147 108.4401452  35.7008775  85.5263171 110.4680956  20.7309065
  84.9092342 109.7427784  20.6342118  85.0579660 111.2290316  20.3876140
  79.1930524 108.2412511  35.4708266  79.9030143 107.6005703  35.4294885
  79.1499832 108.4925406  36.3934447  87.1817303 115.1779864  38.3914846
  87.1229849 114.4939084  37.7245429  87.5836821 115.9198854  37.9395472
  77.9059458 105.2277729  37.2903906  77.3696815 104.7768467  37.9425502
  77.3176167 105.3623637  36.5474370  76.2008002 121.9941778  31.1848565
  76.4404600 122.6260302  31.8627583  75.3577198 121.6429818  31.4713924
  77.3161717 104.6866380  19.8530370  76.4391183 104.5655181  19.4892616
  77.7919470 103.8952458  19.6009258  87.1834710 113.1419448  36.6228825
  86.2961489 112.8045370  36.7455224  87.7533261 112.4102479  36.8597591
  68.8363857 109.4743540  29.9471877  69.5234897 109.1605270  29.3592892
  68.6811986 110.3784904  29.6739128  73.6398579 104.3633736  34.3756900
  73.5556768 103.7559406  33.6407310  72.8181286 104.8542755  34.3766397
  80.7135863 117.8020900  33.5890069  80.6406035 118.6075872  34.1009373
  80.2713257 118.0012866  32.7638090  80.5025643 117.0392670  27.0992890
  79.7193165 117.5814351  27.1931115  81.2018388 117.5566650  27.4987131
  83.8122293 102.8487300  29.7427095  84.3090993 102.0957262  29.4228166
  83.0409275 102.8851617  29.1770305  91.6652051 108.5527665  31.3845387
  91.6541927 109.4352381  31.0139320  90.7969430 108.1999216  31.1899924
  83.1734547 117.7007734  35.7448227  83.8862519 118.3355199  35.6724129
  82.6824576 117.7971600  34.9288229  84.8952074 111.6058987  27.3165519
  83.9608353 111.7260450  27.1470223  85.0728742 110.7031454  27.0525529
  80.3957262 104.9904683  29.4698780  80.0255050 104.4375723  30.1579686
  80.8916354 104.3862816  28.9173780  88.2824625 107.4476306  27.8515553
  88.7485077 108.2804298  27.7775856  88.7332126 106.9821288  28.5560811
  78.2246461 115.4502178  36.5653798  78.9255920 116.0838661  36.7183192
  77.7541576 115.7916909  35.8049437  86.3500856 113.7920128  24.8501705
  86.6260700 113.6776722  25.7595579  85.4805355 113.3937612  24.8113878
  86.2541288  99.8156893  31.8906454  85.3404368 100.0461120  32.0588661
  86.6834389  99.8995337  32.7420487  86.0247747 108.0046785  34.3906348
  85.3719197 108.2522693  33.7358801  86.4028126 107.1910923  34.0568826
  82.9854920 118.0406478  28.4934519  83.1677315 117.2228134  28.9562271
  83.8087906 118.2574171  28.0559409  83.3197086 116.9674664  25.7549567
  83.8484852 116.4567118  25.1419729  83.5825305 116.6517194  26.6195100
  82.0735320 108.7466596  40.8772385  81.3975957 108.6460726  41.5474761
  82.8962953 108.5905810  41.3408383  73.8214179 114.9838533  33.4984901
  74.4067615 114.2382221  33.6312805  73.6239017 115.2942490  34.3821565
  76.6752834 118.0189780  28.5147343  76.0063209 118.5035908  28.0311383
  76.5365704 118.2659001  29.4290722  68.4131833 107.5544133  32.2189344
  68.4515933 107.0207724  33.0126462  67.9072126 107.0279339  31.6000321
  80.8158102 120.0533524  35.1130001  81.3676410 120.2165145  35.8779087
  81.1564296 120.6437962  34.4410026  75.7922596 102.4008674  35.7151886
  75.8563922 103.2623505  35.3029284  75.7289716 101.7882675  34.9824245
  75.2674868 104.4731806  39.3624920  75.8946907 104.0908883  39.9762445
  74.4102787 104.2546008  39.7280613  85.6668977 114.8794781  40.9678656
  86.2108881 115.4924740  40.4733611  85.0855822 115.4374360  41.4845669
  72.0440411 106.2808235  25.2943275  72.3393852 105.3718914  25.2410329
  71.1428447 106.2595975  24.9724278  83.9526490 118.0015499  32.0993684
  83.8277629 117.2005239  31.5904629  84.6105581 118.4961693  31.6107654
  75.5734658 104.3564232  31.2770824  74.8521244 104.9700200  31.1378297
  76.3627914 104.8921997  31.1987470  86.0161398 115.8024519  33.7273234
  85.0691734 115.6829871  33.6551560  86.3644171 114.9147017  33.8099495
  78.3760971 101.6918658  37.5511476  78.8995373 101.9380955  38.3137785
  78.1573305 102.5238693  37.1314613  73.7728253 103.9622333  25.4182600
  73.4440959 103.0819712  25.2357706  74.1267623 103.9070002  26.3058990
  83.0207831 115.5977236  29.9277586  82.8732794 114.6693943  30.1085156
  83.8461325 115.6197326  29.4434661  76.8870076 104.2495303  25.7858078
  77.2266148 104.7781224  25.0636686  77.3342196 104.5875709  26.5616645
  86.6241953 116.4205794  31.0142459  87.5488501 116.2148656  30.8766910
  86.4557257 116.1722196  31.9231800  79.5813516 102.6332353  35.2361146
  79.2410337 101.8340167  35.6381826  78.8752523 102.9334064  34.6637979
  80.2329988  99.7181666  33.6888469  81.0556058  99.2442144  33.5667359
  80.4768052 100.4972150  34.1887155  78.8738223 102.7469924  23.9851371
  79.5946585 103.1251177  23.4815088  78.2503527 103.4658801  24.0886349
  83.0169346 103.4515073  24.9209703  83.2332960 104.3339711  24.6198531
  82.5363413 103.0601287  24.1915345  77.7568567 106.4100787  31.4980448
  77.6113148 106.7241090  32.3904729  77.2793771 107.0285687  30.9451346
  79.6164950 103.4003335  31.5461337  79.6026519 102.5044428  31.2093635
  80.3337378 103.4073998  32.1799623  81.4691081 103.8340675  33.5914465
  81.2108858 104.7557745  33.5898795  80.9376121 103.4371109  34.2814929
  86.4137269 116.9391462  26.3704550  86.5874147 116.3737884  25.6178403
  86.9066161 117.7392357  26.1884040  72.2314229 108.9506131  34.4368109
  71.6867697 109.7265939  34.5688383  73.1093579 109.2976935  34.2787230
  79.0201846 102.2817715  26.8148907  79.1417757 101.3534361  27.0139795
  78.7303888 102.2956401  25.9027223  81.8893036  99.9672625  29.9515627
  81.9114733 100.0311958  28.9967607  82.3061095  99.1277134  30.1456133
  92.2676661 109.7027885  27.9894850  92.7107807 108.9535210  27.5913973
  91.3903171 109.6938021  27.6068582  87.4012442 116.2558226  23.4701448
  88.0963347 116.8764919  23.6888763  87.7435592 115.4053577  23.7453826
  73.0180251 108.0776027  37.3298266  72.2761987 108.2258663  37.9162896
  72.6972995 108.3384293  36.4665015  89.3003865 113.7057932  24.9988779
  89.8255189 114.0445205  24.2738099  89.2126218 112.7704947  24.8151914
  80.9623914 117.6192005  37.1278656  81.2711040 117.3741152  38.0001355
  81.7599396 117.8238644  36.6397526  80.9844526 119.7729915  29.3584032
  80.5449516 119.2806294  30.0516889  81.7352643 119.2302883  29.1176108
  73.4636865 115.9641456  29.3608660  74.2894885 115.6645228  28.9807304
  73.1130917 115.1949078  29.8098449  78.4318398 115.3167924  31.4306334
  77.8098407 114.6538629  31.1308562  79.1023265 115.3429056  30.7479982
  71.6645470 113.8827782  30.3197594  70.8277378 113.4549957  30.1381595
  71.6369115 114.0760226  31.2568385  88.9897771 114.3390835  40.3039977
  88.1993315 114.3214974  39.7644477  88.7531126 114.8779129  41.0589014
  89.1095646 111.1883302  37.6172706  89.1593651 111.0233309  38.5588228
  89.0009569 110.3210561  37.2270586  77.9931905 113.8671847  24.9064795
  78.1420025 114.5507312  24.2531467  78.7998348 113.8476938  25.4214250
  86.3999409 107.1714230  38.9332012  87.3009271 107.0320695  38.6416010
  86.4747383 107.3368685  39.8730190  90.6113843 113.6080243  37.8614727
  90.3198651 113.9710224  38.6978188  89.9985974 112.8947252  37.6828059
  91.8109525 111.1733123  30.3817297  92.6456417 111.6122927  30.5454858
  91.9468654 110.6971776  29.5625543  88.8601031 108.7312858  36.3294785
  89.3355153 108.9240504  35.5213637  87.9366597 108.7872044  36.0838169
  75.7484538 109.8937025  25.9125863  75.5030580 108.9899355  26.1106074
  75.9180452 109.8954176  24.9705341  83.4381248 100.7660701  35.2950619
  83.9563192 101.5021728  34.9697108  83.0836380 101.0724695  36.1297378
  75.0180185 105.6265383  23.4112025  74.3249430 105.7009738  22.7552061
  74.7731937 104.8625726  23.9333542  83.6893842  97.1860984  30.8151516
  83.9695596  96.5184173  31.4411942  84.4744449  97.3790080  30.3026180
  81.4927310 116.3619978  22.3776542  80.9201277 116.9810165  21.9247014
  82.0660104 116.9119340  22.9116464  87.5602700 105.6078618  34.5623091
  88.5120123 105.7076716  34.5835315  87.3906151 104.8156887  35.0721175
  84.7124570 116.6457128  23.5085124  85.6455243 116.5802690  23.7118000
  84.6247783 117.4813395  23.0499657  87.3412587 115.9622998  20.4689072
  87.2626218 115.6282862  21.3624830  88.1622254 116.4544766  20.4680544
  90.0390778 108.8284738  33.6765390  90.0067098 107.8900738  33.8625074
  90.6491402 108.9068774  32.9431215  81.8774109 107.6980791  19.7192594
  82.8233214 107.5686999  19.7881013  81.4988354 106.9595453  20.1962023
  90.1885266 105.6195781  33.7223674  89.6724315 104.8354238  33.5353602
  91.0725215 105.2914498  33.8870193  87.8495993  99.3636797  29.6819486
  87.6520815  99.0551885  30.5662818  88.4595699 100.0898436  29.8117416
  95.8567328 109.8900745  32.8171427  96.5870716 109.6286033  33.3779131
  95.2474273 109.1529466  32.8573495  93.9382625 108.0308607  33.4145878
  93.2115789 107.8964572  32.8062370  93.5229912 108.3385436  34.2202596
  81.7612801 111.7498537  41.1793251  82.6815811 111.9277136  41.3733298
  81.7262384 110.8054582  41.0272951  80.0617026 105.6230767  19.6547480
  79.1548481 105.3263880  19.7310193  80.3393007 105.3260585  18.7881766
  70.9794966 106.9437130  30.1046526  70.6597751 106.0902439  29.8120900
  70.4328395 107.1585709  30.8604493  74.7574874 109.6599571  33.8216033
  74.9760884 110.5916679  33.8404066  75.1700648 109.3007546  34.6070836
  81.6779092 100.1667657  25.8091721  80.8679820  99.8214742  26.1846967
  82.3663509  99.8575201  26.3979333  83.6069640  99.2445704  27.4316018
  84.1600679  99.6641157  28.0906041  83.8439726  98.3181452  27.4738974
  78.8315811 102.4817702  19.7959459  79.6934975 102.8072601  20.0555276
  79.0166155 101.6949198  19.2832525  70.8483226 110.5640042  32.0739648
  70.1546698 110.1493995  31.5609602  71.5956217 110.6060578  31.4773067
  86.9848447 101.3546229  26.9394682  86.4047116 102.0131033  26.5572734
  86.7184380 100.5323573  26.5282099  85.4352013 100.7551286  29.1416002
  85.9351792 100.8667821  28.3330321  86.0787621 100.4512339  29.7816811
  79.4934009 108.6629916  42.0283843  79.0101091 109.4630276  42.2347732
  79.5794948 108.6737861  41.0751287  72.7619969 110.4958296  29.9505663
  72.7390657 110.5945983  28.9987546  73.0720605 111.3423447  30.2722829
  75.4207347 112.5534451  34.0652277  76.3750600 112.5218393  33.9982209
  75.2219870 112.0925075  34.8802503  76.0106729 111.1235567  36.6323075
  76.8299618 111.6179645  36.6557912  76.2843537 110.2067535  36.6040642
  85.7673325 103.5146319  25.9951030  84.8799180 103.7995970  25.7771225
  86.1827314 103.3540082  25.1478307  89.1187861 103.5392840  29.7105369
  89.8948251 104.0289293  29.9829986  88.3935995 103.9650894  30.1677239
  91.5560420 104.2520459  30.7679310  92.1504911 104.0116195  30.0572618
  91.6287004 103.5327590  31.3952846  73.7757576 118.0954070  31.0822475
  73.6412044 117.3354471  30.5160473  73.3589638 118.8194970  30.6151264
  84.9116539 113.2790994  20.0899050  85.6152389 113.4840996  20.7056706
  84.1879187 113.8467756  20.3548134  85.7414349 109.0300855  26.2101320
  85.6849550 109.4869406  25.3708953  86.2942691 108.2691540  26.0324163
  89.5519155 104.8190587  27.0351440  89.2956089 104.4187223  27.8659648
  88.9272023 105.5334381  26.9101579  93.8631493 107.5586660  29.5422731
  93.3031051 107.6279849  30.3154293  93.2574996 107.3827645  28.8222227
  76.9326701 118.9923387  31.2940918  76.8159086 119.9368820  31.1919608
  76.1119148 118.6896949  31.6826717  86.8203236 113.7173523  22.1397510
  87.6548840 113.2854721  21.9574985  86.6587579 113.5455537  23.0674405
  86.4749128 110.2205636  23.5053850  86.4197932 110.0549908  22.5642294
  85.8495183 110.9281669  23.6616039  71.2641643 105.4573701  37.3315272
  71.9100507 104.9472655  37.8202497  71.0558794 106.1942382  37.9058697
  83.7895035 112.5254548  42.8307412  84.6586195 112.6995200  42.4694047
  83.3101787 113.3448965  42.7083142  79.7845254  99.7213745  23.0839168
  79.7723923 100.6655585  23.2407439  80.6768676  99.5383891  22.7898629
  77.9581216 119.6451649  34.5096846  78.8608462 119.6775259  34.8263341
  77.7318586 118.7152100  34.5243182  79.7134818 118.3982636  31.1706925
  78.7630449 118.3984497  31.0571297  80.0167304 117.6515370  30.6542959
  83.5997373  96.3156522  27.3385105  82.8329769  95.7615009  27.4841787
  84.0108078  96.3878391  28.1999256  95.4487511 124.2343174  32.2352687
  96.0865921 124.1149921  31.5316027  95.3308354 125.1824018  32.2940639
  92.2577217 124.1870602  32.1714212  91.9195729 124.0711667  31.2834747
  93.1266986 123.7861767  32.1515218  88.1164033 126.0406079  28.1611103
  87.5528898 125.9496016  27.3927390  88.0016428 125.2205983  28.6413595
  92.7397000 125.3405454  38.1300417  92.7285641 124.9458252  37.2580921
  92.9017640 124.6071527  38.7234189  85.6628465 127.5357270  30.9995323
  86.4549757 127.1948095  30.5841622  85.9025115 127.6452245  31.9197476
  89.4604262 128.1242566  37.0779601  89.1694127 129.0288197  36.9626267
  90.0961246 128.1659093  37.7923671  90.3860468 125.5019414  33.6680961
  90.9824041 125.2775437  32.9537924  90.4435440 124.7604160  34.2706409
  95.0028780 121.9594628  29.3105895  95.7891869 121.5414051  28.9596312
  95.2667484 122.8640720  29.4787543 100.4037207 121.8969861  30.2138874
 101.1362379 121.3269078  30.4476703  99.6476562 121.5091462  30.6545379
  92.0213326 124.3197103  27.4102216  91.6571534 123.7927724  28.1215137
  92.8780442 123.9295572  27.2368701  97.9262627 115.6091435  34.6733482
  97.5945952 116.4786846  34.4494697  97.3308240 115.2927719  35.3527513
  91.6618813 119.3487002  22.4063564  91.8293216 120.2167239  22.7734036
  91.4715982 119.5114284  21.4824854  94.4194147 127.8103981  34.0729395
  94.1194870 128.7129020  33.9645202  94.0745206 127.5436164  34.9250548
  87.8706628 124.2617778  30.1066099  86.9457125 124.1293992  30.3143791
  88.1191041 125.0411997  30.6036042  97.8191290 120.3286521  31.7526832
  96.9108168 120.2601930  31.4585593  97.7678886 120.8058466  32.5808658
  91.6408034 121.8044660  23.3910231  91.5207659 122.2501711  24.2295712
  90.9460623 122.1529978  22.8323769  85.2315439 123.9051052  30.9409888
  85.3607820 124.1585531  31.8549300  84.5512890 124.4978760  30.6214543
  91.8932156 121.7476167  39.6961729  91.1165490 122.3070087  39.6864594
  92.5322719 122.2332950  40.2176600  99.6852937 118.5302960  33.5304706
  99.0427317 118.8235493  32.8844501  99.1807865 118.4155880  34.3357903
  90.1478528 124.5561620  39.2579696  90.8893213 125.0946664  38.9814520
  89.4415514 125.1827909  39.4151248  95.6233868 126.6990761  37.8551858
  96.0317224 126.2573171  37.1106490  94.9011130 126.1243388  38.1086051
  91.9764938 121.6363368  35.2285415  92.8226133 122.0602781  35.3720064
  91.9163576 120.9796992  35.9223978  95.9462683 127.2591951  31.6104147
  95.3171545 127.4237666  30.9080215  95.5588345 127.6733561  32.3815111
  95.1264383 119.2967736  36.8866589  94.8825315 120.0509797  36.3500864
  95.4024314 119.6753084  37.7213836  97.0802846 125.8406348  35.5643854
  97.2919742 126.4838108  34.8878235  97.0332595 125.0068665  35.0965784
  94.6829075 118.4524169  32.4680426  93.8213554 118.7505423  32.7597164
  94.7091510 118.6694568  31.5361459  91.4990645 126.9966360  28.8754232
  91.9628990 127.2754063  28.0858854  91.2347443 126.0949804  28.6927323
  88.3914726 126.5437841  31.8133995  88.9616083 126.9725109  31.1751480
  88.9822838 126.2620426  32.5118181  90.4359531 123.1189512  25.6843797
  91.1383574 123.5710556  26.1517723  90.1040159 122.4773331  26.3123690
  88.8839892 121.7101269  40.0595006  88.2538553 122.3917549  40.2930403
  88.7775980 121.5984350  39.1148145  84.1784865 121.3773065  30.9860931
  83.3883919 121.6330593  30.5101041  84.6696112 122.1921402  31.0912971
  98.1948674 128.7178304  33.7366211  99.0166118 128.3158491  33.4548893
  98.1911077 128.6146538  34.6882327  86.1299610 121.7417644  27.9444407
  85.3330773 121.8536338  28.4627903  85.9025202 122.0804296  27.0785298
  91.9605278 128.2662347  35.8926922  92.0249710 128.7282754  36.7285094
  91.2516202 127.6359712  36.0209232  82.4622568 121.6303555  33.4175921
  82.7130606 122.5150565  33.6833497  82.9982116 121.4508157  32.6451013
  88.1620635 116.0122034  42.4220257  87.7687581 115.4588233  43.0967902
  88.9786775 116.3232613  42.8126775  85.1282693 127.4505893  26.3333827
  85.6407213 128.2449143  26.4839392  85.7805406 126.7532183  26.2667429
  86.9377577 130.5671649  28.4156581  87.1144206 131.4889614  28.2277564
  87.7334411 130.2530068  28.8450960  91.0788596 117.4279913  40.0140514
  91.8198309 118.0287067  39.9344977  91.3106519 116.6857551  39.4558557
  86.2229934 122.6136281  38.2918744  86.1083449 121.7121538  38.5925843
  85.3674452 122.8599978  37.9403560  93.3021772 130.5554021  39.8906244
  92.8585626 129.7690400  39.5727149  93.9638985 130.7433172  39.2250135
  88.0608893 132.0849823  34.4166923  88.6116318 131.9566886  33.6443917
  87.2220369 132.3844712  34.0661816  95.4003010 130.8356821  37.9187646
  95.3821485 131.6565702  37.4267915  96.3222930 130.7110896  38.1437787
  91.8576064 128.3500950  38.7611154  92.3904401 127.5889239  38.5310462
  91.3290145 128.0574602  39.5035308  95.0245759 113.4561016  34.2904796
  94.6810028 114.3462658  34.2143906  95.3924721 113.2662674  33.4274381
  83.0931609 125.7794547  27.1093398  83.9306831 126.1891555  26.8927106
  83.2709877 124.8393989  27.0793592  92.5743153 118.2919328  27.8562469
  91.7184749 117.9026179  27.6768108  92.9870104 118.3711289  26.9962255
  94.1042299 115.8265672  32.2554029  93.6007095 115.7895807  31.4421834
  94.3972906 116.7358414  32.3150686  90.3485185 115.9104401  31.2620211
  91.2138182 115.7147210  30.9026100  90.4162694 115.6814753  32.1889567
  94.7782345 121.3196720  24.6237012  94.4732480 121.6342869  25.4747155
  95.7312787 121.3978140  24.6664345  98.2021623 125.6735963  31.3897012
  97.5445297 126.3635225  31.4777141  99.0062022 126.0632395  31.7330999
  87.9547504 118.1406609  28.6336578  88.5291256 117.9181791  27.9009770
  88.5418487 118.2095304  29.3865179  97.0127081 124.0280336  29.4400954
  97.5258963 124.6610328  29.9422664  97.6628305 123.4281532  29.0744314
  88.2817091 120.1711070  22.6532463  87.4454404 120.5085757  22.9741738
  88.1421861 120.0360050  21.7159600  90.2570172 115.0147858  27.3611647
  89.6034584 114.6996875  26.7368262  90.2150646 114.3923599  28.0871470
  93.4907912 121.5029792  31.6859295  92.5730474 121.7244739  31.5280983
  93.9068056 121.5776102  30.8271002  94.2742960 122.9021207  26.8161975
  95.0214779 123.4142605  26.5069097  94.5434550 122.5805260  27.6766368
  96.7221797 119.9378324  28.7980764  95.9844554 119.4255710  29.1291007
  96.9748571 119.4978705  27.9864041  96.8233425 112.7154576  29.3922533
  97.1292301 111.8551939  29.1048448  97.5486029 113.3072196  29.1921527
  83.1157781 123.1185262  27.7804131  82.9182180 122.5254623  27.0555198
  82.5604445 122.8137472  28.4980070  91.0954504 123.0108369  29.8998724
  91.1503114 122.0582205  29.8241201  90.2845706 123.1667808  30.3840023
  89.0346864 121.6285428  27.6589103  88.2214730 121.9279599  28.0654295
  89.5305858 121.2341117  28.3763586  91.1855442 131.6243185  29.5923368
  91.1431621 131.8504032  28.6631900  92.1018141 131.3906560  29.7409169
  94.6321076 122.0927253  36.4903997  94.9870464 122.3198726  37.3498463
  95.2793207 122.4245630  35.8681253  88.5260939 119.2003784  33.2750338
  89.1660318 119.0592543  32.5773302  87.6938470 118.9138297  32.8988940
 100.3888192 127.2822216  32.2064598 100.8224699 127.1897505  33.0547652
 101.1019773 127.2579716  31.5684614  89.3021243 128.5006214  29.3885331
  90.0961841 128.0056535  29.1867906  88.5912935 127.9724078  29.0253036
  94.1216087 130.8824310  33.7397698  94.1753110 131.4515246  34.5075414
  93.2530869 131.0526195  33.3751736  85.6104006 122.6449296  25.4645083
  84.6801594 122.5833752  25.6815046  85.7061478 122.1225249  24.6681725
  85.5289555 119.1704109  28.0523325  85.7896373 120.0849442  27.9432486
  86.3506728 118.7028552  28.2019938  87.0014481 120.5841866  35.2222150
  87.6737534 120.3759228  34.5734799  86.1744267 120.3863952  34.7827382
 101.2503742 127.3245916  34.7397483 101.4439632 128.2291727  34.9856758
 101.1504360 126.8653336  35.5736068  92.9040053 117.2103807  37.2387811
  92.2567968 117.9093757  37.1452287  93.6741068 117.6439951  37.6064059
  96.3118851 127.4752659  40.3138364  96.1604357 127.2463211  39.3968447
  96.3023530 128.4323261  40.3269709  93.0804187 125.0484572  35.2984630
  94.0096247 125.1995732  35.1253598  92.6595217 125.1368593  34.4433277
  91.8792519 129.0735236  33.0683168  91.7403605 128.7054021  33.9409106
  91.0907115 129.5882876  32.8967126  93.4297734 128.4516839  30.4572006
  93.0947567 128.4117609  31.3529656  92.9301680 127.7861555  29.9842416
  87.4041978 123.8584469  35.9824587  87.2661776 123.1264708  36.5836126
  88.3146901 123.7693369  35.7008775  90.0324279 123.5704428  35.4708266
  90.7423897 122.9297621  35.4294885  89.9893587 123.8217323  36.3934447
  98.0211057 130.5071782  38.3914846  97.9623603 129.8231002  37.7245429
  98.4230576 131.2490772  37.9395472  88.7453213 120.5569646  37.2903906
  88.2090570 120.1060385  37.9425502  88.1569921 120.6915555  36.5474370
  87.0401756 137.3233696  31.1848565  87.2798354 137.9552220  31.8627583
  86.1970953 136.9721736  31.4713924  98.0228465 128.4711366  36.6228825
  97.1355243 128.1337287  36.7455224  98.5927016 127.7394397  36.8597591
  79.6757612 124.8035457  29.9471877  80.3628652 124.4897187  29.3592892
  79.5205740 125.7076822  29.6739128  84.4792334 119.6925654  34.3756900
  84.3950523 119.0851324  33.6407310  83.6575040 120.1834672  34.3766397
  91.5529618 133.1312818  33.5890069  91.4799789 133.9367790  34.1009373
  91.1107011 133.3304784  32.7638090  94.6516048 118.1779218  29.7427095
  95.1484747 117.4249180  29.4228166  93.8803029 118.2143534  29.1770305
 102.5045805 123.8819583  31.3845387 102.4935681 124.7644298  31.0139320
 101.6363185 123.5291134  31.1899924  94.0128302 133.0299652  35.7448227
  94.7256274 133.6647117  35.6724129  93.5218330 133.1263518  34.9288229
  95.7345828 126.9350905  27.3165519  94.8002107 127.0552367  27.1470223
  95.9122497 126.0323372  27.0525529  91.2351016 120.3196601  29.4698780
  90.8648804 119.7667641  30.1579686  91.7310109 119.7154734  28.9173780
  99.1218380 122.7768224  27.8515553  99.5878832 123.6096216  27.7775856
  99.5725880 122.3113206  28.5560811  89.0640215 130.7794096  36.5653798
  89.7649675 131.4130579  36.7183192  88.5935330 131.1208827  35.8049437
  97.0935043 115.1448811  31.8906454  96.1798122 115.3753038  32.0588661
  97.5228144 115.2287255  32.7420487  96.8641501 123.3338703  34.3906348
  96.2112951 123.5814610  33.7358801  97.2421881 122.5202841  34.0568826
  92.9129074 124.0758514  40.8772385  92.2369711 123.9752643  41.5474761
  93.7356708 123.9197728  41.3408383  84.6607933 130.3130451  33.4984901
  85.2461370 129.5674138  33.6312805  84.4632772 130.6234407  34.3821565
  87.5146588 133.3481698  28.5147343  86.8456964 133.8327826  28.0311383
  87.3759458 133.5950918  29.4290722  79.2525588 122.8836051  32.2189344
  79.2909687 122.3499641  33.0126462  78.7465881 122.3571256  31.6000321
  91.6551857 135.3825441  35.1130001  92.2070165 135.5457063  35.8779087
  91.9958050 135.9729879  34.4410026  86.6316350 117.7300591  35.7151886
  86.6957677 118.5915422  35.3029284  86.5683470 117.1174593  34.9824245
  86.1068623 119.8023724  39.3624920  86.7340661 119.4200801  39.9762445
  85.2496542 119.5837926  39.7280613  96.5062731 130.2086699  40.9678656
  97.0502635 130.8216657  40.4733611  95.9249576 130.7666277  41.4845669
  82.8834165 121.6100153  25.2943275  83.1787606 120.7010831  25.2410329
  81.9822201 121.5887892  24.9724278  94.7920244 133.3307417  32.0993684
  94.6671384 132.5297157  31.5904629  95.4499335 133.8253610  31.6107654
  86.4128412 119.6856150  31.2770824  85.6914998 120.2992117  31.1378297
  87.2021668 120.2213914  31.1987470  96.8555153 131.1316437  33.7273234
  95.9085488 131.0121788  33.6551560  97.2037926 130.2438935  33.8099495
  89.2154726 117.0210576  37.5511476  89.7389128 117.2672873  38.3137785
  88.9967059 117.8530611  37.1314613  84.6122007 119.2914251  25.4182600
  84.2834713 118.4111630  25.2357706  84.9661378 119.2361919  26.3058990
  93.8601586 130.9269153  29.9277586  93.7126548 129.9985861  30.1085156
  94.6855079 130.9489244  29.4434661  87.7263830 119.5787220  25.7858078
  88.0659903 120.1073142  25.0636686  88.1735951 119.9167627  26.5616645
  97.4635708 131.7497712  31.0142459  98.3882255 131.5440573  30.8766910
  97.2951011 131.5014113  31.9231800  90.4207271 117.9624271  35.2361146
  90.0804091 117.1632084  35.6381826  89.7146277 118.2625982  34.6637979
  91.0723743 115.0473584  33.6888469  91.8949812 114.5734062  33.5667359
  91.3161806 115.8264067  34.1887155  89.7131977 118.0761842  23.9851371
  90.4340340 118.4543095  23.4815088  89.0897281 118.7950719  24.0886349
  93.8563100 118.7806991  24.9209703  94.0726715 119.6631629  24.6198531
  93.3757167 118.3893204  24.1915345  88.5962322 121.7392704  31.4980448
  88.4506902 122.0533007  32.3904729  88.1187525 122.3577605  30.9451346
  90.4558704 118.7295252  31.5461337  90.4420273 117.8336345  31.2093635
  91.1731133 118.7365916  32.1799623  92.3084835 119.1632592  33.5914465
  92.0502613 120.0849663  33.5898795  91.7769876 118.7663027  34.2814929
  83.0707984 124.2798049  34.4368109  82.5261452 125.0557857  34.5688383
  83.9487334 124.6268853  34.2787230  89.8595600 117.6109632  26.8148907
  89.9811512 116.6826279  27.0139795  89.5697643 117.6248318  25.9027223
  92.7286791 115.2964543  29.9515627  92.7508488 115.3603876  28.9967607
  93.1454850 114.4569052  30.1456133  83.8574006 123.4067945  37.3298266
  83.1155742 123.5550580  37.9162896  83.5366750 123.6676210  36.4665015
  91.8017668 132.9483923  37.1278656  92.1104795 132.7033070  38.0001355
  92.5993150 133.1530562  36.6397526  84.3030619 131.2933374  29.3608660
  85.1288639 130.9937145  28.9807304  83.9524671 130.5240996  29.8098449
  89.2712152 130.6459842  31.4306334  88.6492162 129.9830547  31.1308562
  89.9417019 130.6720974  30.7479982  82.5039224 129.2119700  30.3197594
  81.6671133 128.7841874  30.1381595  82.4762870 129.4052143  31.2568385
  89.3436680 119.1241630  41.0238840  89.3924835 120.0003753  40.6416610
  89.8859194 118.5819023  40.4510483  99.8291526 129.6682753  40.3039977
  99.0387069 129.6506892  39.7644477  99.5924880 130.2071047  41.0589014
  99.9489401 126.5175219  37.6172706  99.9987406 126.3525227  38.5588228
  99.8403324 125.6502478  37.2270586  97.2393163 122.5006147  38.9332012
  98.1403026 122.3612612  38.6416010  97.3141138 122.6660602  39.8730190
  91.5735968 119.8773002  37.7785199  90.7039278 120.1706568  37.5067787
  91.8095449 120.4613447  38.4992462 101.4507597 128.9372161  37.8614727
 101.1592406 129.3002142  38.6978188 100.8379729 128.2239169  37.6828059
 102.6503280 126.5025041  30.3817297 103.4850171 126.9414845  30.5454858
 102.7862409 126.0263694  29.5625543  99.6994786 124.0604776  36.3294785
 100.1748907 124.2532422  35.5213637  98.7760351 124.1163961  36.0838169
  86.5878292 125.2228943  25.9125863  86.3424334 124.3191273  26.1106074
  86.7574207 125.2246093  24.9705341  94.2775002 116.0952619  35.2950619
  94.7956946 116.8313646  34.9697108  93.9230135 116.4016612  36.1297378
  85.8573940 120.9557300  23.4112025  85.1643185 121.0301655  22.7552061
  85.6125692 120.1917644  23.9333542  94.5287596 112.5152902  30.8151516
  94.8089350 111.8476091  31.4411942  95.3138203 112.7081997  30.3026180
  98.3996455 120.9370536  34.5623091  99.3513878 121.0368633  34.5835315
  98.2299905 120.1448804  35.0721175  96.4210834 118.0226119  34.7482492
  95.8260766 118.3031132  34.0528980  96.1360531 118.5120020  35.5199233
 100.8784532 124.1576655  33.6765390 100.8460853 123.2192656  33.8625074
 101.4885156 124.2360692  32.9431215 101.0279021 120.9487699  33.7223674
 100.5118070 120.1646155  33.5353602 101.9118970 120.6206415  33.8870193
  98.6889748 114.6928714  29.6819486  98.4914569 114.3843803  30.5662818
  99.2989453 115.4190353  29.8117416 106.6961082 125.2192662  32.8171427
 107.4264471 124.9577950  33.3779131 106.0868028 124.4821384  32.8573495
 104.7776379 123.3600525  33.4145878 104.0509543 123.2256490  32.8062370
 104.3623666 123.6677353  34.2202596  92.6006556 127.0790454  41.1793251
  93.5209565 127.2569053  41.3733298  92.5656139 126.1346500  41.0272951
  81.8188721 122.2729048  30.1046526  81.4991505 121.4194356  29.8120900
  81.2722149 122.4877626  30.8604493  85.5968628 124.9891489  33.8216033
  85.8154638 125.9208597  33.8404066  86.0094402 124.6299464  34.6070836
  92.5172846 115.4959574  25.8091721  91.7073575 115.1506659  26.1846967
  93.2057263 115.1867118  26.3979333  94.4463395 114.5737621  27.4316018
  94.9994433 114.9933075  28.0906041  94.6833481 113.6473369  27.4738974
  90.4696494 120.5624695  43.2118782  90.3693221 121.5119052  43.1430873
  90.2518036 120.2342934  42.3394852  89.6709565 117.8109620  19.7959459
  90.5328729 118.1364518  20.0555276  89.8559909 117.0241116  19.2832525
  81.6876981 125.8931960  32.0739648  80.9940452 125.4785912  31.5609602
  82.4349972 125.9352496  31.4773067  97.8242202 116.6838146  26.9394682
  97.2440871 117.3422950  26.5572734  97.5578134 115.8615491  26.5282099
  96.2745768 116.0843204  29.1416002  96.7745546 116.1959739  28.3330321
  96.9181376 115.7804257  29.7816811  90.3327764 123.9921834  42.0283843
  89.8494846 124.7922194  42.2347732  90.4188703 124.0029779  41.0751287
  83.6013723 125.8250213  29.9505663  83.5784412 125.9237901  28.9987546
  83.9114360 126.6715364  30.2722829  86.2601101 127.8826368  34.0652277
  87.2144355 127.8510311  33.9982209  86.0613625 127.4216992  34.8802503
  86.8500483 126.4527484  36.6323075  87.6693372 126.9471563  36.6557912
  87.1237291 125.5359453  36.6040642  96.6067080 118.8438237  25.9951030
  95.7192935 119.1287887  25.7771225  97.0221069 118.6832000  25.1478307
  99.9581616 118.8684758  29.7105369 100.7342006 119.3581210  29.9829986
  99.2329750 119.2942812  30.1677239 102.3954174 119.5812377  30.7679310
 102.9898665 119.3408113  30.0572618 102.4680758 118.8619508  31.3952846
  84.6151330 133.4245988  31.0822475  84.4805798 132.6646389  30.5160473
  84.1983392 134.1486888  30.6151264 100.3912909 120.1482505  27.0351440
 100.1349844 119.7479140  27.8659648  99.7665777 120.8626299  26.9101579
 104.7025247 122.8878578  29.5422731 104.1424805 122.9571767  30.3154293
 104.0968751 122.7119562  28.8222227  87.7720456 134.3215305  31.2940918
  87.6552840 135.2660737  31.1919608  86.9512902 134.0188867  31.6826717
  82.1035398 120.7865618  37.3315272  82.7494261 120.2764572  37.8202497
  81.8952549 121.5234300  37.9058697  94.6288790 127.8546466  42.8307412
  95.4979949 128.0287118  42.4694047  94.1495541 128.6740883  42.7083142
  90.6239008 115.0505663  23.0839168  90.6117678 115.9947503  23.2407439
  91.5162430 114.8675808  22.7898629  88.7974970 134.9743567  34.5096846
  89.7002217 135.0067177  34.8263341  88.5712340 134.0444018  34.5243182
  90.5528572 133.7274553  31.1706925  89.6024203 133.7276415  31.0571297
  90.8561058 132.9807288  30.6542959  94.4391128 111.6448440  27.3385105
  93.6723523 111.0906926  27.4841787  94.8501833 111.7170308  28.1999256
  86.4432889 117.9333235  41.4290286  87.3064350 117.5770040  41.6393611
  85.8698299 117.5947130  42.1165690 102.7325911 137.0768085  39.6961729
 101.9559245 137.6362005  39.6864594 103.3716474 137.5624868  40.2176600
 100.9872283 139.8853538  39.2579696 101.7286967 140.4238582  38.9814520
 100.2809268 140.5119827  39.4151248 105.9658138 134.6259654  36.8866589
 105.7219070 135.3801714  36.3500864 106.2418068 135.0045001  37.7213836
  99.7233647 137.0393186  40.0595006  99.0932307 137.7209467  40.2930403
  99.6169735 136.9276268  39.1148145  93.3016322 136.9595473  33.4175921
  93.5524361 137.8442483  33.6833497  93.8375871 136.7800074  32.6451013
  99.0014389 131.3413952  42.4220257  98.6081335 130.7880151  43.0967902
  99.8180530 131.6524531  42.8126775 101.9182350 132.7571831  40.0140514
 102.6592064 133.3578984  39.9344977 102.1500273 132.0149469  39.4558557
  97.0623688 137.9428198  38.2918744  96.9477204 137.0413456  38.5925843
  96.2068206 138.1891895  37.9403560 105.8639513 128.7852934  34.2904796
 105.5203783 129.6754576  34.2143906 106.2318476 128.5954592  33.4274381
  97.8408235 135.9133784  35.2222150  98.5131289 135.7051146  34.5734799
  97.0138022 135.7155870  34.7827382 103.7433807 132.5395725  37.2387811
 103.0961722 133.2385674  37.1452287 104.5134823 132.9731869  37.6064059
  98.2435732 139.1876387  35.9824587  98.1055530 138.4556626  36.5836126
  99.1540656 139.0985287  35.7008775  99.5846967 135.8861564  37.2903906
  99.0484324 135.4352302  37.9425502  98.9963676 136.0207473  36.5474370
  95.3186088 135.0217572  34.3756900  95.2344277 134.4143241  33.6407310
  94.4968795 135.5126590  34.3766397 103.7522829 139.4050432  40.8772385
 103.0763466 139.3044561  41.5474761 104.5750462 139.2489645  41.3408383
  90.0919342 138.2127968  32.2189344  90.1303442 137.6791559  33.0126462
  89.5859635 137.6863174  31.6000321  97.4710105 133.0592509  35.7151886
  97.5351431 133.9207340  35.3029284  97.4077225 132.4466511  34.9824245
  96.9462377 135.1315642  39.3624920  97.5734416 134.7492719  39.9762445
  96.0890296 134.9129843  39.7280613 100.0548480 132.3502494  37.5511476
 100.5782882 132.5964790  38.3137785  99.8360814 133.1822529  37.1314613
 101.2601025 133.2916189  35.2361146 100.9197846 132.4924002  35.6381826
 100.5540032 133.5917900  34.6637979 101.9117497 130.3765501  33.6888469
 102.7343567 129.9025979  33.5667359 102.1555561 131.1555985  34.1887155
  93.9101738 139.6089966  34.4368109  93.3655206 140.3849774  34.5688383
  94.7881088 139.9560771  34.2787230  94.6967760 138.7359863  37.3298266
  93.9549496 138.8842498  37.9162896  94.3760504 138.9968128  36.4665015
 100.1830434 134.4533548  41.0238840 100.2318590 135.3295670  40.6416610
 100.7252949 133.9110941  40.4510483 102.4129723 135.2064920  37.7785199
 101.5433032 135.4998486  37.5067787 102.6489203 135.7905365  38.4992462
 105.1168757 131.4244537  35.2950619 105.6350701 132.1605564  34.9697108
 104.7623889 131.7308530  36.1297378 103.4400310 142.4082372  41.1793251
 104.3603320 142.5860971  41.3733298 103.4049893 141.4638418  41.0272951
 101.3090248 135.8916613  43.2118782 101.2086975 136.8410970  43.1430873
 101.0911790 135.5634851  42.3394852 101.1721518 139.3213751  42.0283843
 100.6888600 140.1214112  42.2347732 101.2582457 139.3321696  41.0751287
  92.9429152 136.1157536  37.3315272  93.5888016 135.6056490  37.8202497
  92.7346303 136.8526218  37.9058697 105.4682544 143.1838384  42.8307412
 106.3373704 143.3579036  42.4694047 104.9889296 144.0032800  42.7083142
  97.2826643 133.2625153  41.4290286  98.1458105 132.9061958  41.6393611
  96.7092054 132.9239048  42.1165690  38.5428229  25.7007988  24.8545724
  38.5316870  25.3060786  23.9826227  38.7048869  24.9674061  25.4479495
  35.2635490  28.4845100  23.8024908  34.9725356  29.3890731  23.6871574
  35.8992475  28.5261628  24.5168977  37.6963385  22.1078701  26.4207036
  36.9196719  22.6672621  26.4109901  38.3353948  22.5935484  26.9421906
  35.9509757  24.9164155  25.9825003  36.6924442  25.4549199  25.7059827
  35.2446743  25.5430443  26.1396555  41.4265097  27.0593295  24.5797165
  41.8348453  26.6175706  23.8351797  40.7042358  26.4845923  24.8331357
  43.9979903  29.0780838  20.4611518  44.8197347  28.6761025  20.1794200
  43.9942306  28.9749072  21.4127634  39.1053001  30.9156555  26.6151551
  38.6616855  30.1292934  26.2972455  39.7670214  31.1035706  25.9495442
  41.2034239  31.1959355  24.6432952  41.1852714  32.0168236  24.1513221
  42.1254159  31.0713430  24.8683093  37.6607293  28.7103485  25.4856461
  38.1935630  27.9491773  25.2555769  37.1321374  28.4177137  26.2280615
  47.0534971  27.6848451  21.4642790  47.2470861  28.5894261  21.7102065
  46.9535589  27.2255870  22.2981375  42.1150079  27.8355193  27.0383670
  41.9635586  27.6065745  26.1213754  42.1054759  28.7925795  27.0515015
  43.8242286  30.8674316  25.1160152  43.7654832  30.1833536  24.4490735
  44.2261805  31.6093306  24.6640778  43.8259693  28.8313900  23.3474132
  42.9386472  28.4939822  23.4700531  44.3958244  28.0996931  23.5842897
  39.8159530  33.3902186  22.4693534  40.5287503  34.0249651  22.3969435
  39.3249559  33.4866052  21.6533536  34.8671444  31.1396630  23.2899105
  35.5680903  31.7733113  23.4428499  34.3966559  31.4811361  22.5294744
  38.7160303  24.4361048  27.6017692  38.0400940  24.3355178  28.2720067
  39.5387937  24.2800262  28.0653689  37.4583086  35.7427976  21.8375308
  38.0101394  35.9059597  22.6024393  37.7989279  36.3332414  21.1655333
  42.3093960  30.5689233  27.6923963  42.8533864  31.1819191  27.1978917
  41.7280805  31.1268812  28.2090976  42.6586381  31.4918971  20.4518540
  41.7116717  31.3724323  20.3796867  43.0069154  30.6041469  20.5344802
  37.6048897  33.3086457  23.8523962  37.9136023  33.0635604  24.7246662
  38.4024379  33.5133096  23.3642833  45.6322754  30.0285287  27.0285284
  44.8418298  30.0109426  26.4889783  45.3956109  30.5673581  27.7834320
  45.7520629  26.8777754  24.3418012  45.8018634  26.7127761  25.2833535
  45.6434553  26.0105013  23.9515893  43.0424392  22.8608682  25.6577319
  43.9434255  22.7215147  25.3661317  43.1172366  23.0263137  26.5975496
  47.2538826  29.2974695  24.5860034  46.9623635  29.6604676  25.4223495
  46.6410958  28.5841703  24.4073366  45.5026015  24.4207310  23.0540092
  45.9780136  24.6134956  22.2458943  44.5791580  24.4766496  22.8083475
  52.4992311  25.5795196  19.5416734  53.2295700  25.3180485  20.1024437
  51.8899257  24.8423918  19.5818802  38.4037785  27.4392989  27.9038558
  39.3240794  27.6171588  28.0978605  38.3687368  26.4949034  27.7518257
  36.2727723  20.9227229  29.9364088  36.1724449  21.8721586  29.8676179
  36.0549265  20.5945468  29.0640158  36.1358993  24.3524368  28.7529150
  35.6526074  25.1524728  28.9593039  36.2219932  24.3632313  27.7996594
  40.4320019  28.2149000  29.5552719  41.3011178  28.3889652  29.1939354
  39.9526770  29.0343417  29.4328448  34.6006199  35.3346101  21.2342153
  35.5033446  35.3669711  21.5508648  34.3743569  34.4046552  21.2488488
  52.0912494  39.9237626  18.9597994  52.7290904  39.8044373  18.2561334
  51.9733337  40.8718470  19.0185946  48.9002201  39.8765054  18.8959518
  48.5620712  39.7606119  18.0080053  49.7691969  39.4756219  18.8760524
  44.7589016  41.7300531  14.8856409  44.1953882  41.6390467  14.1172697
  44.6441411  40.9100435  15.3658902  49.3821984  41.0299906  24.8545724
  49.3710624  40.6352704  23.9826227  49.5442623  40.2965978  25.4479495
  42.3053448  43.2251722  17.7240630  43.0974740  42.8842547  17.3086929
  42.5450098  43.3346697  18.6442783  50.3388575  45.3971498  10.1970874
  49.6876555  45.9825579   9.8104888  51.1332938  45.9277693  10.2565912
  46.1029245  43.8137018  23.8024908  45.8119111  44.7182648  23.6871574
  46.7386229  43.8553545  24.5168977  47.0285452  41.1913866  20.3926267
  47.6249024  40.9669889  19.6783230  47.0860423  40.4498612  20.9951715
  51.6453763  37.6489080  16.0351202  52.4316852  37.2308503  15.6841619
  51.9092467  38.5535172  16.2032850  51.8163840  43.0861930  10.7339858
  51.1809673  43.1596557  11.4460763  51.4861247  43.6755529  10.0558938
  57.0462190  37.5864313  16.9384180  57.7787362  37.0163530  17.1722010
  56.2901546  37.1985913  17.3790686  48.6638310  40.0091555  14.1347523
  48.2996517  39.4822176  14.8460444  49.5205426  39.6190024  13.9614008
  54.5687610  31.2985887  21.3978789  54.2370935  32.1681298  21.1740004
  53.9733224  30.9822171  22.0772819  51.0619130  43.4998433  20.7974701
  50.7619853  44.4023472  20.6890509  50.7170189  43.2330616  21.6495854
  44.5131611  39.9512230  16.8311406  43.5882108  39.8188444  17.0389098
  44.7616025  40.7306449  17.3281348  54.4616274  36.0180973  18.4772139
  53.5533151  35.9496382  18.1830900  54.4103869  36.4952918  19.3053964
  41.8740422  39.5945504  17.6655195  42.0032804  39.8479982  18.5794607
  41.1937874  40.1873212  17.3459850  46.0439910  50.2642753  13.7645669
  45.9663939  51.2150579  13.8434150  45.4401553  49.9188626  14.4220595
  48.5357139  37.4370619  26.4207036  47.7590474  37.9964539  26.4109901
  49.1747703  37.9227402  26.9421906  56.3277920  34.2197412  20.2550013
  55.6852300  34.5129945  19.6089807  55.8232849  34.1050332  21.0603209
  53.9818084  37.9660585  10.9435872  54.8935940  38.1987972  10.7683570
  53.4727731  38.5497629  10.3810951  46.7903512  40.2456072  25.9825003
  47.5318196  40.7841116  25.7059827  46.0840497  40.8722361  26.1396555
  52.2658851  42.3885213  24.5797165  52.6742207  41.9467623  23.8351797
  51.5436113  41.8137840  24.8331357  48.6189921  37.3257820  21.9530722
  49.4651117  37.7497233  22.0965371  48.5588559  36.6691444  22.6469285
  52.5887666  42.9486403  18.3349453  51.9596529  43.1132117  17.6325521
  52.2013328  43.3628013  19.1060417  56.4676898  43.8840841  15.6893817
  55.7827936  44.2639743  15.1390851  56.5520747  44.4936168  16.4225765
  51.7689367  34.9862188  23.6111895  51.5250299  35.7404248  23.0746171
  52.0449297  35.3647535  24.4459142  53.7227830  41.5300800  22.2889161
  53.9344725  42.1732560  21.6123542  53.6757578  40.6963117  21.8211091
  51.3254059  34.1418621  19.1925733  50.4638538  34.4399874  19.4842470
  51.3516493  34.3589020  18.2606766  48.1415628  42.6860811  15.5999539
  48.6053973  42.9648514  14.8104161  47.8772426  41.7844256  15.4172629
  45.0339709  42.2332293  18.5379302  45.6041066  42.6619561  17.8996786
  45.6247821  41.9514878  19.2363487  45.5264876  37.3995720  26.7840313
  44.8963536  38.0812001  27.0175710  45.4200963  37.2878802  25.8393451
  40.8209848  37.0667516  17.7106237  40.0308902  37.3225045  17.2346348
  41.3121095  37.8815854  17.8158278  54.8373658  44.4072756  20.4611518
  55.6591101  44.0052943  20.1794200  54.8336060  44.3040990  21.4127634
  48.6030261  43.9556799  22.6172229  48.6674693  44.4177206  23.4530400
  47.8941185  43.3254164  22.7454538  39.1047551  37.3198007  20.1421228
  39.3555589  38.2045017  20.4078804  39.6407099  37.1402608  19.3696320
  62.9279651  40.7511504  16.8096490  62.1743359  40.1818902  16.6540494
  63.0627192  40.7174169  17.7567124  48.3178279  45.6224906  12.4851209
  48.1823953  46.4676442  12.9136057  48.8588091  45.8244184  11.7217143
  44.8045618  31.7016486  29.1465564  44.4112564  31.1482685  29.8213208
  45.6211759  32.0127065  29.5372082  41.7707676  43.1400344  13.0579134
  42.2832197  43.9343595  13.2084699  42.4230389  42.4426635  12.9912735
  43.5802561  46.2566101  15.1401887  43.7569189  47.1784065  14.9522871
  44.3759394  45.9424520  15.5696267  47.7213579  33.1174365  26.7385821
  48.4623293  33.7181519  26.6590283  47.9531502  32.3752003  26.1803863
  42.8654917  38.3030733  25.0164050  42.7508432  37.4015990  25.3171149
  42.0099435  38.5494429  24.6648867  49.9446755  46.2448473  26.6151551
  49.5010609  45.4584852  26.2972455  50.6063969  46.4327623  25.9495442
  44.7033876  47.7744275  21.1412230  45.2541301  47.6461338  20.3689223
  43.8645352  48.0739164  20.7907122  52.0427993  46.5251273  24.6432952
  52.0246468  47.3460154  24.1513221  52.9647913  46.4005348  24.8683093
  48.5001047  44.0395402  25.4856461  49.0329384  43.2783691  25.2555769
  47.9715128  43.7469054  26.2280615  51.6670742  29.1455468  21.0150102
  51.3235012  30.0357110  20.9389213  52.0349705  28.9557126  20.1519687
  50.7467283  31.5160123  18.9799336  50.2432078  31.4790259  18.1667141
  51.0397889  32.4252866  19.0395992  46.9910168  31.5998853  17.9865517
  47.8563165  31.4041662  17.6271407  47.0587677  31.3709205  18.9134874
  56.6055299  41.8896434  11.4575711  55.8284742  41.5507594  11.0130873
  57.2846780  41.8949057  10.7830676  49.8653760  43.1681395  12.9975273
  49.3375121  42.4334154  12.6848510  49.3641263  43.9456071  12.7515241
  54.8446606  41.3630415  18.1142319  54.1870280  42.0529677  18.2022448
  55.6487005  41.7526847  18.4576305  53.6552065  39.7174788  16.1646261
  54.1683946  40.3504780  16.6667970  54.3053289  39.1175984  15.7989621
  50.9174439  49.6959112   8.9206932  50.2436138  49.9990809   9.5291890
  51.3040261  50.4988193   8.5712389  50.1332896  37.1924244  18.4104601
  49.2155457  37.4139191  18.2526289  50.5493039  37.2670554  17.5516309
  50.9167943  38.5915659  13.5407281  51.6639762  39.1037056  13.2314404
  51.1859533  38.2699712  14.4011675  54.4213861  44.6980789  14.2925403
  53.9676188  43.8571699  14.3490594  53.7907828  45.3342188  14.6300183
  53.3646781  35.6272776  15.5226071  52.6269537  35.1150162  15.8536313
  53.6173554  35.1873157  14.7109348  52.8646800  46.5357286  15.2275221
  53.1569775  47.0962343  14.5087587  53.3745421  46.8285847  15.9828381
  47.7379488  38.7002821  16.6244031  47.7928097  37.7476657  16.5486508
  46.9270690  38.8562260  17.1085330  45.6771847  37.3179880  14.3834410
  44.8639713  37.6174051  14.7899602  46.1730842  36.9235569  15.1008892
  47.8280425  47.3137637  16.3168675  47.7856604  47.5398484  15.3877207
  48.7443124  47.0801012  16.4654476  51.2746059  37.7821705  23.2149304
  51.6295447  38.0093178  24.0743770  51.9218190  38.1140082  22.5926559
  57.0043796  40.9040141  13.9198633  56.8661695  41.0941737  12.9919822
  56.6480015  41.6659524  14.3766684  45.1685922  34.8898236  19.9995645
  45.8085302  34.7486995  19.3018608  44.3363453  34.6032749  19.6234247
  57.0313176  42.9716668  18.9309904  57.4649682  42.8791957  19.7792958
  57.7444756  42.9474168  18.2929920  45.9446226  44.1900666  16.1130637
  46.7386825  43.6950986  15.9113212  45.2337919  43.6618529  15.7498343
  50.7641071  46.5718762  20.4643005  50.8178093  47.1409698  21.2320721
  49.8955852  46.7420647  20.0997042  43.6439464  36.2736318  21.9467456
  44.3162517  36.0653680  21.2980105  42.8169251  36.0758404  21.5072689
  57.8928725  43.0140368  21.4642790  58.0864615  43.9186179  21.7102065
  57.7929343  42.5547787  22.2981375  49.5465036  32.8998259  23.9633117
  48.8992951  33.5988209  23.8697594  50.3166051  33.3334403  24.3309365
  52.9543834  43.1647111  27.0383670  52.8029340  42.9357663  26.1213754
  52.9448513  44.1217713  27.0515015  49.7229170  40.7379024  22.0229937
  50.6521230  40.8890183  21.8498904  49.3020200  40.8263045  21.1678583
  48.5217502  44.7629688  19.7928474  48.3828588  44.3948473  20.6654413
  47.7332098  45.2777328  19.6212432  49.1165654  49.8638785  11.1354011
  49.2917410  49.3926828  11.9499634  48.4298442  50.4904551  11.3635272
  50.0722717  44.1411291  17.1817312  49.7372550  44.1012061  18.0774962
  49.5726663  43.4756007  16.7087723  44.0466961  39.5478921  22.7069893
  43.9086759  38.8159160  23.3081432  44.9571885  39.4587821  22.4254081
  46.6749262  39.2598880  22.1953573  47.3848880  38.6192073  22.1540192
  46.6318570  39.5111775  23.1179754  54.6636041  46.1966234  25.1160152
  54.6048587  45.5125454  24.4490735  55.0655559  46.9385224  24.6640778
  45.3878196  36.2464098  24.0149213  44.8515553  35.7954837  24.6670809
  44.7994904  36.3810007  23.2719677  43.6826739  53.0128147  17.9093871
  43.9223338  53.6446672  18.5872890  42.8395936  52.6616188  18.1959230
  54.6653448  44.1605818  23.3474132  53.7780227  43.8231739  23.4700531
  55.2351999  43.4288849  23.5842897  36.3182595  40.4929909  16.6717183
  37.0053635  40.1791639  16.0838199  36.1630724  41.3971274  16.3984435
  41.1217317  35.3820106  21.1002207  41.0375506  34.7745775  20.3652617
  40.3000024  35.8729124  21.1011703  48.1954601  48.8207270  20.3135375
  48.1224773  49.6262241  20.8254680  47.7531994  49.0199236  19.4883397
  47.9844381  48.0579040  13.8238197  47.2011903  48.6000720  13.9176421
  48.6837126  48.5753020  14.2232438  51.2941031  33.8673669  16.4672402
  51.7909731  33.1143632  16.1473472  50.5228013  33.9037986  15.9015611
  59.1470788  39.5714035  18.1090694  59.1360665  40.4538750  17.7384627
  58.2788168  39.2185586  17.9145231  50.6553285  48.7194104  22.4693534
  51.3681257  49.3541569  22.3969435  50.1643313  48.8157970  21.6533536
  52.3770812  42.6245357  14.0410826  51.4427090  42.7446819  13.8715530
  52.5547480  41.7217823  13.7770835  47.8776000  36.0091052  16.1944087
  47.5073787  35.4562093  16.8824992  48.3735092  35.4049186  15.6419087
  55.7643363  38.4662676  14.5760860  56.2303815  39.2990668  14.5021162
  56.2150864  38.0007657  15.2806118  45.7065198  46.4688547  23.2899105
  46.4074658  47.1025030  23.4428499  45.2360313  46.8103279  22.5294744
  53.8319594  44.8106497  11.5747012  54.1079438  44.6963092  12.4840886
  52.9624093  44.4123982  11.5359185  53.7360026  30.8343263  18.6151761
  52.8223106  31.0647490  18.7833968  54.1653127  30.9181707  19.4665793
  53.5066484  39.0233155  21.1151655  52.8537935  39.2709062  20.4604108
  53.8846864  38.2097293  20.7814132  50.4673658  49.0592848  15.2179825
  50.6496053  48.2414504  15.6807578  51.2906644  49.2760540  14.7804715
  50.8015824  47.9861033  12.4794874  51.3303590  47.4753488  11.8665036
  51.0644043  47.6703563  13.3440407  49.5554057  39.7652966  27.6017692
  48.8794694  39.6647095  28.2720067  50.3781691  39.6092180  28.0653689
  41.3032916  46.0024902  20.2230207  41.8886353  45.2568590  20.3558112
  41.1057755  46.3128859  21.1066871  44.1571572  49.0376150  15.2392650
  43.4881947  49.5222277  14.7556690  44.0184441  49.2845370  16.1536028
  35.8950571  38.5730503  18.9434650  35.9334671  38.0394093  19.7371769
  35.3890864  38.0465708  18.3245628  48.2976840  51.0719893  21.8375308
  48.8495148  51.2351515  22.6024393  48.6383034  51.6624331  21.1655333
  43.2741333  33.4195043  22.4397193  43.3382660  34.2809874  22.0274590
  43.2108454  32.8069045  21.7069551  42.7493606  35.4918176  26.0870227
  43.3765645  35.1095253  26.7007751  41.8921525  35.2732378  26.4525920
  53.1487715  45.8981151  27.6923963  53.6927619  46.5111109  27.1978917
  52.5674559  46.4560729  28.2090976  51.4345227  49.0201869  18.8238990
  51.3096367  48.2191609  18.3149936  52.0924319  49.5148062  18.3352960
  43.0553396  35.3750601  18.0016130  42.3339981  35.9886569  17.8623604
  43.8446651  35.9108366  17.9232776  53.4980136  46.8210889  20.4518540
  52.5510471  46.7016240  20.3796867  53.8462909  45.9333387  20.5344802
  45.8579709  32.7105028  24.2756782  46.3814111  32.9567324  25.0383092
  45.6392043  33.5425063  23.8559920  50.5026569  46.6163605  16.6522893
  50.3551532  45.6880313  16.8330463  51.3280063  46.6383696  16.1679968
  54.1060691  47.4392164  17.7387765  55.0307238  47.2335025  17.6012216
  53.9375994  47.1908565  18.6477107  47.0632254  33.6518723  21.9606453
  46.7229075  32.8526536  22.3627133  46.3571261  33.9520434  21.3883286
  47.7148726  30.7368035  20.4133776  48.5374795  30.2628514  20.2912666
  47.9586790  31.5158519  20.9132462  45.2387305  37.4287156  18.2225754
  45.0931886  37.7427459  19.1150036  44.7612508  38.0472056  17.6696653
  47.0983688  34.4189704  18.2706644  47.0845256  33.5230797  17.9338942
  47.8156116  34.4260368  18.9044930  48.9509818  34.8527044  20.3159771
  48.6927596  35.7744115  20.3144102  48.4194859  34.4557479  21.0060236
  53.8956007  47.9577831  13.0949857  54.0692885  47.3924254  12.3423709
  54.3884898  48.7578726  12.9129347  39.7132967  39.9692500  21.1613416
  39.1686435  40.7452308  21.2933690  40.5912317  40.3163305  21.0032537
  59.7495398  40.7214254  14.7140157  60.1926544  39.9721580  14.3159280
  58.8721909  40.7124391  14.3313888  54.8831180  47.2744596  10.1946755
  55.5782084  47.8951288  10.4134070  55.2254330  46.4239947  10.4699133
  40.4998989  39.0962397  24.0543572  39.7580725  39.2445032  24.6408203
  40.1791733  39.3570662  23.1910322  56.7822603  44.7244301  11.7234086
  57.3073927  45.0631574  10.9983406  56.6944955  43.7891317  11.5397220
  48.4442652  48.6378375  23.8523962  48.7529778  48.3927522  24.7246662
  49.2418134  48.8425013  23.3642833  48.4663264  50.7916285  16.0829339
  48.0268254  50.2992663  16.7762196  49.2171381  50.2489252  15.8421414
  40.9455603  46.9827825  16.0853967  41.7713622  46.6831597  15.7052611
  40.5949655  46.2135448  16.5343756  45.9137136  46.3354294  18.1551641
  45.2917145  45.6724999  17.8553869  46.5842003  46.3615426  17.4725288
  39.1464208  44.9014152  17.0442901  38.3096116  44.4736326  16.8626902
  39.1187853  45.0946595  17.9813692  45.9861663  34.8136082  27.7484147
  46.0349819  35.6898205  27.3661916  46.5284177  34.2713475  27.1755790
  56.4716509  45.3577205  27.0285284  55.6812053  45.3401344  26.4889783
  56.2349863  45.8965499  27.7834320  56.5914384  42.2069671  24.3418012
  56.6412389  42.0419679  25.2833535  56.4828307  41.3396930  23.9515893
  45.4750643  44.8858217  11.6310101  45.6238763  45.5693681  10.9776774
  46.2817086  44.8663307  12.1459557  53.8818146  38.1900599  25.6577319
  54.7828009  38.0507064  25.3661317  53.9566121  38.3555054  26.5975496
  48.2160952  35.5667454  24.5030505  47.3464261  35.8601020  24.2313094
  48.4520432  36.1507899  25.2237769  58.0932581  44.6266613  24.5860034
  57.8017389  44.9896593  25.4223495  57.4804712  43.9133621  24.4073366
  59.2928263  42.1919493  17.1062604  60.1275154  42.6309297  17.2700164
  59.4287392  41.7158146  16.2870850  56.3419769  39.7499227  23.0540092
  56.8173891  39.9426874  22.2458943  55.4185334  39.8058413  22.8083475
  50.9199985  31.7847071  22.0195926  51.4381929  32.5208098  21.6942414
  50.5655118  32.0911064  22.8542685  51.1712580  28.2047354  17.5396822
  51.4514333  27.5370543  18.1657249  51.9563187  28.3976449  17.0271486
  48.9746048  47.3806347   9.1021849  48.4020015  47.9996535   8.6492320
  49.5478842  47.9305709   9.6361771  55.0421438  36.6264988  21.2868397
  55.9938861  36.7263085  21.3080621  54.8724888  35.8343256  21.7966482
  53.0635817  33.7120571  21.4727798  52.4685750  33.9925584  20.7774287
  52.7785514  34.2014472  22.2444539  52.1943308  47.6643498  10.2330431
  53.1273981  47.5989059  10.4363306  52.1066521  48.4999764   9.7744964
  54.8231325  46.9809368   7.1934378  54.7444956  46.6469232   8.0870136
  55.6440991  47.4731136   7.1925851  57.5209516  39.8471107  20.4010697
  57.4885836  38.9087108  20.5870381  58.1310139  39.9255144  19.6676522
  57.6704004  36.6382151  20.4468980  57.1543053  35.8540607  20.2598909
  58.5543953  36.3100867  20.6115500  55.3314731  30.3823166  16.4064793
  55.1339552  30.0738254  17.2908125  55.9414437  31.1084805  16.5362723
  63.3386066  40.9087114  19.5416734  64.0689454  40.6472402  20.1024437
  62.7293011  40.1715836  19.5818802  61.4201363  39.0494977  20.1391185
  60.6934526  38.9150942  19.5307677  61.0048650  39.3571805  20.9447903
  49.2431539  42.7684906  27.9038558  50.1634549  42.9463505  28.0978605
  49.2081122  41.8240952  27.7518257  42.2393612  40.6785941  20.5461339
  42.4579622  41.6103049  20.5649373  42.6519386  40.3193915  21.3316143
  47.1121477  36.2519147  29.9364088  47.0118204  37.2013504  29.8676179
  46.8943019  35.9237386  29.0640158  38.3301964  41.5826412  18.7984954
  37.6365436  41.1680364  18.2854909  39.0774955  41.6246948  18.2018373
  52.9170751  31.7737656  15.8661309  53.4170530  31.8854191  15.0575628
  53.5606359  31.4698709  16.5062117  46.9752747  39.6816286  28.7529150
  46.4919829  40.4816646  28.9593039  47.0613686  39.6924230  27.7996594
  40.2438707  41.5144665  16.6750969  40.2209395  41.6132353  15.7232852
  40.5539343  42.3609816  16.9968135  42.9026085  43.5720820  20.7897584
  43.8569338  43.5404763  20.7227515  42.7038608  43.1111444  21.6047810
  43.4925467  42.1421936  23.3568381  44.3118356  42.6366015  23.3803219
  43.7662274  41.2253905  23.3285949  56.6006599  34.5579210  16.4350676
  57.3766989  35.0475662  16.7075293  55.8754733  34.9837264  16.8922546
  59.0379158  35.2706829  17.4924617  59.6323648  35.0302565  16.7817925
  59.1105741  34.5513959  18.1198153  41.2576313  49.1140440  17.8067782
  41.1230781  48.3540841  17.2405780  40.8408376  49.8381340  17.3396570
  53.2233087  40.0487225  12.9346627  53.1668288  40.5055776  12.0954259
  53.7761429  39.2877909  12.7569470  57.0337893  35.8376956  13.7596746
  56.7774827  35.4373592  14.5904954  56.4090761  36.5520750  13.6346886
  61.3450230  38.5773030  16.2668038  60.7849788  38.6466219  17.0399600
  60.7393734  38.4014014  15.5467534  44.4145439  50.0109757  18.0186224
  44.2977823  50.9555189  17.9164914  43.5937886  49.7083318  18.4072023
  54.3021974  44.7359893   8.8642817  55.1367578  44.3041091   8.6820292
  54.1406317  44.5641906   9.7919711  53.9567866  41.2392006  10.2299156
  53.9016670  41.0736277   9.2887600  53.3313921  41.9468039  10.3861346
  38.7460381  36.4760070  24.0560578  39.3919245  35.9659024  24.5447804
  38.5377532  37.2128752  24.6304004  51.2713773  43.5440918  29.5552719
  52.1404933  43.7181570  29.1939354  50.7920525  44.3635335  29.4328448
  45.4399953  50.6638019  21.2342153  46.3427200  50.6961629  21.5508648
  45.2137323  49.7338470  21.2488488  47.1953555  49.4169005  17.8952231
  46.2449186  49.4170867  17.7816603  47.4986042  48.6701740  17.3788266
  43.0857872  33.6227687  28.1535593  43.9489334  33.2664492  28.3638917
  42.5123283  33.2841582  28.8410997  62.9306249  55.2529544  18.9597994
  63.5684659  55.1336291  18.2561334  62.8127092  56.2010388  19.0185946
  59.7395955  55.2056972  18.8959518  59.4014467  55.0898036  18.0080053
  60.6085723  54.8048137  18.8760524  55.5982771  57.0592448  14.8856409
  55.0347636  56.9682385  14.1172697  55.4835166  56.2392353  15.3658902
  60.2215738  56.3591823  24.8545724  60.2104379  55.9644622  23.9826227
  60.3836378  55.6257896  25.4479495  53.1447203  58.5543640  17.7240630
  53.9368495  58.2134464  17.3086929  53.3843853  58.6638615  18.6442783
  61.1782330  60.7263416  10.1970874  60.5270309  61.3117496   9.8104888
  61.9726692  61.2569611  10.2565912  55.1037957  57.8152553  10.5958008
  55.8768833  57.2681540  10.4570884  55.4563356  58.6796802  10.8072470
  56.9422999  59.1428935  23.8024908  56.6512865  60.0474566  23.6871574
  57.5779984  59.1845463  24.5168977  57.8679206  56.5205784  20.3926267
  58.4642778  56.2961806  19.6783230  57.9254178  55.7790529  20.9951715
  57.4404235  53.9745219   8.2276458  57.6929755  53.4526740   7.4659921
  56.5028794  53.8111365   8.3303142  62.4847517  52.9780998  16.0351202
  63.2710607  52.5600421  15.6841619  62.7486222  53.8827090  16.2032850
  62.6557595  58.4153848  10.7339858  62.0203428  58.4888474  11.4460763
  62.3255001  59.0047447  10.0558938  67.8855945  52.9156231  16.9384180
  68.6181116  52.3455448  17.1722010  67.1295300  52.5277831  17.3790686
  57.1600523  55.8773325  10.4300833  57.0436781  55.2018228  11.0981918
  57.2702783  55.3905699   9.6132986  59.5032064  55.3383472  14.1347523
  59.1390271  54.8114093  14.8460444  60.3599180  54.9481941  13.9614008
  65.4081365  46.6277805  21.3978789  65.0764690  47.4973216  21.1740004
  64.8126978  46.3114089  22.0772819  59.1437551  50.3673372   9.1308871
  59.3111954  51.2353608   9.4979342  58.9534720  50.5300654   8.2070160
  61.9012884  58.8290351  20.7974701  61.6013607  59.7315390  20.6890509
  61.5563944  58.5622534  21.6495854  55.3525366  55.2804148  16.8311406
  54.4275862  55.1480362  17.0389098  55.6009779  56.0598367  17.3281348
  65.3010028  51.3472891  18.4772139  64.3926906  51.2788299  18.1830900
  65.2497624  51.8244836  19.3053964  59.1226772  52.8231029  10.1155538
  59.0026397  53.2688080  10.9541018  58.4279360  53.1716347   9.5569076
  52.7134177  54.9237421  17.6655195  52.8426558  55.1771900  18.5794607
  52.0331628  55.5165129  17.3459850  56.8833664  65.5934671  13.7645669
  56.8057694  66.5442496  13.8434150  56.2795308  65.2480544  14.4220595
  59.3750894  52.7662537  26.4207036  58.5984228  53.3256457  26.4109901
  60.0141457  53.2519320  26.9421906  67.1671675  49.5489329  20.2550013
  66.5246055  49.8421863  19.6089807  66.6626603  49.4342250  21.0603209
  64.8211838  53.2952503  10.9435872  65.7329694  53.5279889  10.7683570
  64.3121485  53.8789547  10.3810951  57.6297266  55.5747990  25.9825003
  58.3711951  56.1133034  25.7059827  56.9234252  56.2014279  26.1396555
  63.1052606  57.7177130  24.5797165  63.5135962  57.2759541  23.8351797
  62.3829867  57.1429758  24.8331357  59.4583676  52.6549737  21.9530722
  60.3044871  53.0789151  22.0965371  59.3982314  51.9983362  22.6469285
  63.4281421  58.2778321  18.3349453  62.7990283  58.4424035  17.6325521
  63.0407083  58.6919931  19.1060417  67.3070652  59.2132759  15.6893817
  66.6221691  59.5931660  15.1390851  67.3914502  59.8228086  16.4225765
  62.6083121  50.3154106  23.6111895  62.3644053  51.0696166  23.0746171
  62.8843052  50.6939453  24.4459142  64.5621584  56.8592718  22.2889161
  64.7738479  57.5024478  21.6123542  64.5151332  56.0255034  21.8211091
  62.1647813  49.4710539  19.1925733  61.3032292  49.7691792  19.4842470
  62.1910248  49.6880937  18.2606766  58.9809382  58.0152729  15.5999539
  59.4447728  58.2940432  14.8104161  58.7166181  57.1136174  15.4172629
  55.8733463  57.5624211  18.5379302  56.4434821  57.9911479  17.8996786
  56.4641575  57.2806795  19.2363487  57.9178268  54.1375882  12.4089104
  58.6202312  54.5896925  12.8763030  57.5858897  53.4959700  13.0368997
  56.3658630  52.7287638  26.7840313  55.7357291  53.4103919  27.0175710
  56.2594718  52.6170720  25.8393451  51.6603602  52.3959434  17.7106237
  50.8702656  52.6516963  17.2346348  52.1514850  53.2107772  17.8158278
  65.6767412  59.7364673  20.4611518  66.4984856  59.3344861  20.1794200
  65.6729815  59.6332908  21.4127634  53.6118348  52.7604013  14.6689714
  52.8149511  52.8722708  15.1873210  53.3843940  53.0990666  13.8030604
  59.4424015  59.2848717  22.6172229  59.5068448  59.7469124  23.4530400
  58.7334939  58.6546082  22.7454538  49.9441305  52.6489925  20.1421228
  50.1949344  53.5336935  20.4078804  50.4800854  52.4694526  19.3696320
  73.7673405  56.0803422  16.8096490  73.0137113  55.5110820  16.6540494
  73.9020946  56.0466086  17.7567124  59.1572033  60.9516824  12.4851209
  59.0217708  61.7968360  12.9136057  59.6981846  61.1536102  11.7217143
  55.6439373  47.0308404  29.1465564  55.2506318  46.4774603  29.8213208
  56.4605513  47.3418982  29.5372082  52.6101430  58.4692262  13.0579134
  53.1225951  59.2635512  13.2084699  53.2624143  57.7718553  12.9912735
  54.4196315  61.5858018  15.1401887  54.5962944  62.5075983  14.9522871
  55.2153149  61.2716438  15.5696267  58.5607334  48.4466283  26.7385821
  59.3017047  49.0473436  26.6590283  58.7925257  47.7043921  26.1803863
  53.7048672  53.6322650  25.0164050  53.5902187  52.7307908  25.3171149
  52.8493189  53.8786347  24.6648867  60.7840509  61.5740391  26.6151551
  60.3404364  60.7876769  26.2972455  61.4457723  61.7619541  25.9495442
  55.5427631  63.1036192  21.1412230  56.0935056  62.9753256  20.3689223
  54.7039107  63.4031081  20.7907122  62.8821748  61.8543191  24.6432952
  62.8640223  62.6752072  24.1513221  63.8041668  61.7297266  24.8683093
  59.3394802  59.3687320  25.4856461  59.8723139  58.6075608  25.2555769
  58.8108883  59.0760972  26.2280615  62.5064497  44.4747386  21.0150102
  62.1628766  45.3649028  20.9389213  62.8743459  44.2849044  20.1519687
  50.5750347  56.7980916  13.8338705  51.4125569  57.2077925  13.6172412
  50.7528615  55.8580359  13.8038898  62.4714779  54.4655997   9.5222537
  61.9561403  55.2360602   9.7610925  62.1992088  53.7921133  10.1455599
  60.0561890  49.3105698  14.5807776  59.2003487  48.9212548  14.4013415
  60.4688842  49.3897659  13.7207561  61.5861037  46.8452041  18.9799336
  61.0825833  46.8082176  18.1667141  61.8791644  47.7544784  19.0395992
  57.8303923  46.9290771  17.9865517  58.6956920  46.7333580  17.6271407
  57.8981432  46.7001123  18.9134874  67.4449054  57.2188352  11.4575711
  66.6678496  56.8799511  11.0130873  68.1240534  57.2240975  10.7830676
  62.2601083  52.3383089  11.3482319  61.9551218  52.6529238  12.1992462
  63.2131525  52.4164509  11.3909652  60.7047514  58.4973313  12.9975273
  60.1768876  57.7626072  12.6848510  60.2035017  59.2747989  12.7515241
  65.6840360  56.6922333  18.1142319  65.0264035  57.3821594  18.2022448
  66.4880760  57.0818765  18.4576305  55.4366242  49.1592979  15.3581884
  56.0109994  48.9368160  14.6255077  56.0237224  49.2281673  16.1110485
  64.4945819  55.0466706  16.1646261  65.0077701  55.6796698  16.6667970
  65.1447043  54.4467901  15.7989621  55.7635829  51.1897440   9.3777769
  54.9273141  51.5272126   9.6987044  55.6240599  51.0546420   8.4404906
  57.7388910  46.0334228  14.0856954  57.0853322  45.7183245  13.4613568
  57.6969384  45.4109968  14.8116777  58.8500115  56.3153523   6.0010246
  57.9427176  56.0842776   6.2001395  59.3471147  55.5191142   6.1884227
  61.7568193  65.0251030   8.9206932  61.0829892  65.3282727   9.5291890
  62.1434015  65.8280110   8.5712389  60.9726650  52.5216161  18.4104601
  60.0549211  52.7431108  18.2526289  61.3886794  52.5962472  17.5516309
  61.7561698  53.9207577  13.5407281  62.5033517  54.4328974  13.2314404
  62.0253287  53.5991630  14.4011675  60.0288348  56.4166118  10.5234236
  59.1199567  56.1325150  10.6206706  60.0583432  56.8365196   9.6637543
  65.2607615  60.0272707  14.2925403  64.8069943  59.1863617  14.3490594
  64.6301582  60.6634106  14.6300183  64.2040535  50.9564693  15.5226071
  63.4663292  50.4442079  15.8536313  64.4567309  50.5165075  14.7109348
  63.7040555  61.8649204  15.2275221  63.9963529  62.4254261  14.5087587
  64.2139175  62.1577765  15.9828381  64.3052162  43.7340945  16.1167840
  64.6111039  42.8738309  15.8293755  65.0304767  44.3258565  15.9166834
  50.5976518  54.1371632  14.5049438  50.4000918  53.5440992  13.7800505
  50.0423182  53.8323842  15.2225377  58.5773242  54.0294738  16.6244031
  58.6321852  53.0768575  16.5486508  57.7664444  54.1854177  17.1085330
  59.7264436  57.9574861   7.8622314  59.2883866  57.2410720   7.4027952
  60.4674877  58.1850976   7.3007406  56.5165602  52.6471798  14.3834410
  55.7033468  52.9465969  14.7899602  57.0124596  52.2527487  15.1008892
  58.6674180  62.6429555  16.3168675  58.6250359  62.8690401  15.3877207
  59.5836879  62.4092930  16.4654476  62.1139814  53.1113622  23.2149304
  62.4689201  53.3385096  24.0743770  62.7611945  53.4431999  22.5926559
  67.8437551  56.2332058  13.9198633  67.7055449  56.4233654  12.9919822
  67.4873769  56.9951441  14.3766684  56.0079677  50.2190154  19.9995645
  56.6479056  50.0778913  19.3018608  55.1757207  49.9324667  19.6234247
  67.8706930  58.3008585  18.9309904  68.3043437  58.2083874  19.7792958
  68.5838511  58.2766086  18.2929920  56.7839981  59.5192584  16.1130637
  57.5780579  59.0242904  15.9113212  56.0731673  58.9910447  15.7498343
  61.6034825  61.9010679  20.4643005  61.6571847  62.4701616  21.2320721
  60.7349606  62.0712565  20.0997042  53.0922744  53.6635666  12.1890390
  52.1620332  53.6020121  12.4060352  53.1880216  53.1411618  11.3927031
  53.0108293  50.1890479  14.7768632  53.2715110  51.1035812  14.6677792
  53.8325465  49.7214921  14.9265245  54.4833219  51.6028236  21.9467456
  55.1556272  51.3945598  21.2980105  53.6563005  51.4050322  21.5072689
  68.7322480  58.3432286  21.4642790  68.9258370  59.2478097  21.7102065
  68.6323098  57.8839705  22.2981375  60.3858791  48.2290177  23.9633117
  59.7386706  48.9280126  23.8697594  61.1559806  48.6626321  24.3309365
  63.7937588  58.4939029  27.0383670  63.6423095  58.2649580  26.1213754
  63.7842268  59.4509630  27.0515015  60.5622925  56.0670942  22.0229937
  61.4914985  56.2182101  21.8498904  60.1413955  56.1554962  21.1678583
  59.3611257  60.0921606  19.7928474  59.2222342  59.7240390  20.6654413
  58.5725853  60.6069245  19.6212432  59.9559409  65.1930702  11.1354011
  60.1311164  64.7218746  11.9499634  59.2692197  65.8196469  11.3635272
  60.9116472  59.4703209  17.1817312  60.5766304  59.4303979  18.0774962
  60.4120417  58.8047925  16.7087723  54.8860716  54.8770839  22.7069893
  54.7480514  54.1451077  23.3081432  55.7965639  54.7879739  22.4254081
  63.8475663  56.8159243   7.4554372  63.2304834  56.0906071   7.3587425
  63.3792152  57.5768603   7.1121446  57.5143016  54.5890798  22.1953573
  58.2242635  53.9483990  22.1540192  57.4712325  54.8403693  23.1179754
  65.5029795  61.5258151  25.1160152  65.4442341  60.8417371  24.4490735
  65.9049313  62.2677141  24.6640778  56.2271950  51.5756016  24.0149213
  55.6909307  51.1246754  24.6670809  55.6388659  51.7101925  23.2719677
  54.5220494  68.3420065  17.9093871  54.7617092  68.9738589  18.5872890
  53.6789690  67.9908105  18.1959230  55.6374209  51.0344667   6.5775676
  54.7603676  50.9133468   6.2137923  56.1131962  50.2430746   6.3254565
  65.5047202  59.4897735  23.3474132  64.6173981  59.1523657  23.4700531
  66.0745753  58.7580766  23.5842897  47.1576349  55.8221827  16.6717183
  47.8447389  55.5083557  16.0838199  47.0024478  56.7263192  16.3984435
  51.9611072  50.7112024  21.1002207  51.8769260  50.1037693  20.3652617
  51.1393778  51.2021042  21.1011703  59.0348356  64.1499188  20.3135375
  58.9618527  64.9554159  20.8254680  58.5925749  64.3491153  19.4883397
  58.8238135  63.3870958  13.8238197  58.0405657  63.9292638  13.9176421
  59.5230881  63.9044937  14.2232438  62.1334785  49.1965587  16.4672402
  62.6303485  48.4435549  16.1473472  61.3621767  49.2329904  15.9015611
  69.9864543  54.9005953  18.1090694  69.9754419  55.7830668  17.7384627
  69.1181922  54.5477503  17.9145231  61.4947039  64.0486022  22.4693534
  62.2075011  64.6833486  22.3969435  61.0037068  64.1449888  21.6533536
  63.2164566  57.9537274  14.0410826  62.2820845  58.0738737  13.8715530
  63.3941235  57.0509741  13.7770835  58.7169754  51.3382970  16.1944087
  58.3467542  50.7854010  16.8824992  59.2128847  50.7341104  15.6419087
  66.6037118  53.7954594  14.5760860  67.0697570  54.6282585  14.5021162
  67.0544618  53.3299575  15.2806118  56.5458953  61.7980465  23.2899105
  57.2468412  62.4316948  23.4428499  56.0754068  62.1395197  22.5294744
  64.6713349  60.1398415  11.5747012  64.9473193  60.0255009  12.4840886
  63.8017847  59.7415900  11.5359185  64.5753780  46.1635181  18.6151761
  63.6616860  46.3939407  18.7833968  65.0046882  46.2473625  19.4665793
  64.3460239  54.3525073  21.1151655  63.6931689  54.6000980  20.4604108
  64.7240619  53.5389211  20.7814132  61.3067413  64.3884766  15.2179825
  61.4889807  63.5706422  15.6807578  62.1300399  64.6052458  14.7804715
  61.6409578  63.3152951  12.4794874  62.1697345  62.8045405  11.8665036
  61.9037798  62.9995481  13.3440407  60.3947812  55.0944884  27.6017692
  59.7188449  54.9939013  28.2720067  61.2175446  54.9384097  28.0653689
  52.1426671  61.3316820  20.2230207  52.7280108  60.5860508  20.3558112
  51.9451509  61.6420777  21.1066871  54.9965326  64.3668068  15.2392650
  54.3275701  64.8514195  14.7556690  54.8578196  64.6137288  16.1536028
  46.7344326  53.9022420  18.9434650  46.7728425  53.3686011  19.7371769
  46.2284618  53.3757626  18.3245628  59.1370595  66.4011811  21.8375308
  59.6888903  66.5643433  22.6024393  59.4776788  66.9916249  21.1655333
  54.1135088  48.7486961  22.4397193  54.1776414  49.6101792  22.0274590
  54.0502208  48.1360963  21.7069551  53.5887360  50.8210093  26.0870227
  54.2159399  50.4387171  26.7007751  52.7315279  50.6024295  26.4525920
  63.9881469  61.2273069  27.6923963  64.5321373  61.8403027  27.1978917
  63.4068314  61.7852647  28.2090976  50.3652903  52.6286523  12.0188582
  50.6606344  51.7197201  11.9655636  49.4640939  52.6074262  11.6969584
  62.2738982  64.3493787  18.8238990  62.1490121  63.5483526  18.3149936
  62.9318073  64.8439980  18.3352960  53.8947150  50.7042519  18.0016130
  53.1733736  51.3178487  17.8623604  54.6840406  51.2400284  17.9232776
  64.3373890  62.1502807  20.4518540  63.3904226  62.0308158  20.3796867
  64.6856663  61.2625305  20.5344802  56.6973464  48.0396946  24.2756782
  57.2207866  48.2859242  25.0383092  56.4785797  48.8716980  23.8559920
  52.0940745  50.3100620  12.1427907  51.7653451  49.4297999  11.9603013
  52.4480115  50.2548289  13.0304296  61.3420324  61.9455523  16.6522893
  61.1945286  61.0172230  16.8330463  62.1673817  61.9675614  16.1679968
  55.2082568  50.5973590  12.5103385  55.5478640  51.1259511  11.7881993
  55.6554688  50.9353996  13.2861951  64.9454445  62.7684082  17.7387765
  65.8700993  62.5626943  17.6012216  64.7769749  62.5200483  18.6477107
  57.9026009  48.9810641  21.9606453  57.5622829  48.1818454  22.3627133
  57.1965015  49.2812352  21.3883286  58.5542481  46.0659953  20.4133776
  59.3768550  45.5920431  20.2912666  58.7980544  46.8450437  20.9132462
  57.1950715  49.0948212  10.7096677  57.9159078  49.4729464  10.2060394
  56.5716019  49.8137088  10.8131655  61.3381838  49.7993361  11.6455010
  61.5545452  50.6817998  11.3443838  60.8575905  49.4079574  10.9160652
  56.0781059  52.7579074  18.2225754  55.9325640  53.0719377  19.1150036
  55.6006263  53.3763974  17.6696653  57.9377442  49.7481622  18.2706644
  57.9239011  48.8522715  17.9338942  58.6549870  49.7552285  18.9044930
  59.7903573  50.1818962  20.3159771  59.5321351  51.1036033  20.3144102
  59.2588613  49.7849396  21.0060236  64.7349762  63.2869749  13.0949857
  64.9086639  62.7216172  12.3423709  65.2278653  64.0870644  12.9129347
  50.5526722  55.2984418  21.1613416  50.0080190  56.0744226  21.2933690
  51.4306071  55.6455223  21.0032537  57.3414338  48.6296002  13.5394214
  57.4630249  47.7012648  13.7385102  57.0516381  48.6434688  12.6272530
  60.2105529  46.3150912  16.6760934  60.2327225  46.3790246  15.7212913
  60.6273588  45.4755421  16.8701440  70.5889153  56.0506172  14.7140157
  71.0320299  55.3013497  14.3159280  69.7115663  56.0416308  14.3313888
  65.7224934  62.6036513  10.1946755  66.4175839  63.2243206  10.4134070
  66.0648084  61.7531865  10.4699133  51.3392743  54.4254314  24.0543572
  50.5974479  54.5736950  24.6408203  51.0185488  54.6862580  23.1910322
  67.6216357  60.0536219  11.7234086  68.1467681  60.3923492  10.9983406
  67.5338710  59.1183234  11.5397220  59.2836406  63.9670293  23.8523962
  59.5923532  63.7219439  24.7246662  60.0811888  64.1716931  23.3642833
  59.3057018  66.1208202  16.0829339  58.8662008  65.6284581  16.7762196
  60.0565135  65.5781170  15.8421414  51.7849357  62.3119743  16.0853967
  52.6107377  62.0123515  15.7052611  51.4343409  61.5427366  16.5343756
  56.7530890  61.6646211  18.1551641  56.1310899  61.0016916  17.8553869
  57.4235757  61.6907343  17.4725288  49.9857962  60.2306070  17.0442901
  49.1489870  59.8028244  16.8626902  49.9581608  60.4238513  17.9813692
  56.8255418  50.1427999  27.7484147  56.8743573  51.0190122  27.3661916
  57.3677932  49.6005392  27.1755790  67.3110263  60.6869123  27.0285284
  66.5205807  60.6693261  26.4889783  67.0743618  61.2257416  27.7834320
  67.4308138  57.5361589  24.3418012  67.4806143  57.3711596  25.2833535
  67.3222062  56.6688848  23.9515893  56.3144397  60.2150135  11.6310101
  56.4632517  60.8985599  10.9776774  57.1210841  60.1955225  12.1459557
  64.7211901  53.5192517  25.6577319  65.6221764  53.3798982  25.3661317
  64.7959875  53.6846972  26.5975496  59.0554706  50.8959372  24.5030505
  58.1858016  51.1892938  24.2313094  59.2914187  51.4799817  25.2237769
  68.9326335  59.9558531  24.5860034  68.6411144  60.3188511  25.4223495
  68.3198467  59.2425539  24.4073366  70.1322018  57.5211410  17.1062604
  70.9668909  57.9601214  17.2700164  70.2681146  57.0450064  16.2870850
  67.1813524  55.0791145  23.0540092  67.6567645  55.2718791  22.2458943
  66.2579089  55.1350331  22.8083475  54.0697030  56.2415312  12.6371170
  53.8243072  55.3377642  12.8351380  54.2392945  56.2432463  11.6950648
  61.7593740  47.1138989  22.0195926  62.2775684  47.8500016  21.6942414
  61.4048873  47.4202982  22.8542685  53.3392678  51.9743670  10.1357332
  52.6461923  52.0488025   9.4797368  53.0944430  51.2104014  10.6578848
  62.0106334  43.5339271  17.5396822  62.2908088  42.8662460  18.1657249
  62.7956941  43.7268367  17.0271486  59.8139803  62.7098265   9.1021849
  59.2413770  63.3288452   8.6492320  60.3872596  63.2597627   9.6361771
  65.8815192  51.9556905  21.2868397  66.8332615  52.0555003  21.3080621
  65.7118643  51.1635174  21.7966482  63.9029572  49.0412488  21.4727798
  63.3079504  49.3217501  20.7774287  63.6179269  49.5306389  22.2444539
  63.0337062  62.9935415  10.2330431  63.9667736  62.9280977  10.4363306
  62.9460275  63.8291682   9.7744964  65.6625079  62.3101286   7.1934378
  65.5838711  61.9761149   8.0870136  66.4834746  62.8023054   7.1925851
  68.3603270  55.1763025  20.4010697  68.3279590  54.2379026  20.5870381
  68.9703894  55.2547062  19.6676522  60.1986601  54.0459078   6.4437901
  61.1445706  53.9165286   6.5126319  59.8200846  53.3073740   6.9207329
  68.5097759  51.9674068  20.4468980  67.9936807  51.1832525  20.2598909
  69.3937707  51.6392785  20.6115500  66.1708486  45.7115084  16.4064793
  65.9733307  45.4030172  17.2908125  66.7808191  46.4376723  16.5362723
  74.1779820  56.2379032  19.5416734  74.9083209  55.9764320  20.1024437
  73.5686766  55.5007754  19.5818802  72.2595117  54.3786894  20.1391185
  71.5328281  54.2442859  19.5307677  71.8442404  54.6863723  20.9447903
  60.0825294  58.0976824  27.9038558  61.0028303  58.2755423  28.0978605
  60.0474877  57.1532869  27.7518257  58.3829518  51.9709054   6.3792786
  57.4760974  51.6742167   6.4555500  58.6605499  51.6738872   5.5127073
  49.3007459  53.2915418  16.8291833  48.9810243  52.4380726  16.5366207
  48.7540887  53.5063996  17.5849800  53.0787366  56.0077859  20.5461339
  53.2973376  56.9394967  20.5649373  53.4913140  55.6485833  21.3316143
  59.9991584  46.5145944  12.5337028  59.1892312  46.1693029  12.9092274
  60.6876001  46.2053488  13.1224639  61.9282132  45.5923991  14.1561324
  62.4813171  46.0119444  14.8151347  62.1652219  44.6659739  14.1984280
  57.9515232  51.5811064  29.9364088  57.8511958  52.5305421  29.8676179
  57.7336774  51.2529303  29.0640158  57.1528303  48.8295990   6.5204766
  58.0147467  49.1550888   6.7800583  57.3378647  48.0427485   6.0077831
  49.1695719  56.9118329  18.7984954  48.4759190  56.4972282  18.2854909
  49.9168710  56.9538866  18.2018373  65.3060939  47.7024516  13.6639989
  64.7259608  48.3609320  13.2818041  65.0396872  46.8801861  13.2527406
  63.7564506  47.1029574  15.8661309  64.2564284  47.2146108  15.0575628
  64.4000114  46.7990627  16.5062117  57.8146502  55.0108203  28.7529150
  57.3313583  55.8108563  28.9593039  57.9007441  55.0216148  27.7996594
  51.0832461  56.8436583  16.6750969  51.0603149  56.9424270  15.7232852
  51.3933098  57.6901734  16.9968135  53.7419839  58.9012738  20.7897584
  54.6963093  58.8696680  20.7227515  53.5432363  58.4403362  21.6047810
  54.3319221  57.4713854  23.3568381  55.1512110  57.9657933  23.3803219
  54.6056029  56.5545822  23.3285949  64.0885817  49.8624606  12.7196337
  63.2011672  50.1474257  12.5016532  64.5039806  49.7018370  11.8723614
  67.4400354  49.8871127  16.4350676  68.2160744  50.3767580  16.7075293
  66.7148488  50.3129182  16.8922546  69.8772912  50.5998747  17.4924617
  70.4717403  50.3594483  16.7817925  69.9499496  49.8805877  18.1198153
  52.0970068  64.4432358  17.8067782  51.9624536  63.6832758  17.2405780
  51.6802130  65.1673257  17.3396570  63.2329031  59.6269281   6.8144357
  63.9364881  59.8319284   7.4302012  62.5091680  60.1946043   7.0793440
  64.0626841  55.3779142  12.9346627  64.0062043  55.8347694  12.0954259
  64.6155184  54.6169827  12.7569470  67.8731647  51.1668874  13.7596746
  67.6168581  50.7665510  14.5904954  67.2484515  51.8812668  13.6346886
  72.1843985  53.9064947  16.2668038  71.6243543  53.9758137  17.0399600
  71.5787488  53.7305932  15.5467534  55.2539194  65.3401675  18.0186224
  55.1371578  66.2847107  17.9164914  54.4331640  65.0375236  18.4072023
  65.1415728  60.0651810   8.8642817  65.9761332  59.6333009   8.6820292
  64.9800071  59.8933824   9.7919711  64.7961620  56.5683924  10.2299156
  64.7410424  56.4028195   9.2887600  64.1707676  57.2759956  10.3861346
  49.5854135  51.8051988  24.0560578  50.2312999  51.2950942  24.5447804
  49.3771287  52.5420670  24.6304004  62.1107528  58.8732835  29.5552719
  62.9798687  59.0473488  29.1939354  61.6314279  59.6927252  29.4328448
  58.1057746  46.0692033   9.8084475  58.0936416  47.0133872   9.9652745
  58.9981168  45.8862178   9.5143936  56.2793708  65.9929936  21.2342153
  57.1820955  66.0253547  21.5508648  56.0531078  65.0630387  21.2488488
  58.0347310  64.7460923  17.8952231  57.0842941  64.7462785  17.7816603
  58.3379796  63.9993658  17.3788266  61.9209865  42.6634809  14.0630411
  61.1542261  42.1093296  14.2087094  62.3320570  42.7356678  14.9244563
  53.9251626  48.9519605  28.1535593  54.7883088  48.5956410  28.3638917
  53.3517037  48.6133500  28.8410997  73.7700003  70.5821461  18.9597994
  74.4078413  70.4628209  18.2561334  73.6520846  71.5302305  19.0185946
  70.5789710  70.5348889  18.8959518  70.2408221  70.4189954  18.0080053
  71.4479478  70.1340055  18.8760524  66.4376525  72.3884366  14.8856409
  65.8741390  72.2974303  14.1172697  66.3228920  71.5684270  15.3658902
  71.0609493  71.6883741  24.8545724  71.0498133  71.2936539  23.9826227
  71.2230132  70.9549814  25.4479495  63.9840957  73.8835557  17.7240630
  64.7762249  73.5426382  17.3086929  64.2237607  73.9930533  18.6442783
  72.0176084  76.0555334  10.1970874  71.3664064  76.6409414   9.8104888
  72.8120447  76.5861528  10.2565912  65.9431711  73.1444471  10.5958008
  66.7162587  72.5973458  10.4570884  66.2957110  74.0088720  10.8072470
  67.7816754  74.4720853  23.8024908  67.4906620  75.3766484  23.6871574
  68.4173738  74.5137381  24.5168977  68.7072961  71.8497702  20.3926267
  69.3036533  71.6253724  19.6783230  68.7647932  71.1082447  20.9951715
  68.2797989  69.3037137   8.2276458  68.5323510  68.7818658   7.4659921
  67.3422548  69.1403282   8.3303142  73.3241272  68.3072915  16.0351202
  74.1104361  67.8892338  15.6841619  73.5879976  69.2119007  16.2032850
  73.4951349  73.7445766  10.7339858  72.8597182  73.8180392  11.4460763
  73.1648756  74.3339364  10.0558938  78.7249699  68.2448148  16.9384180
  79.4574871  67.6747365  17.1722010  77.9689055  67.8569749  17.3790686
  67.9994278  71.2065243  10.4300833  67.8830536  70.5310146  11.0981918
  68.1096538  70.7197617   9.6132986  70.3425819  70.6675390  14.1347523
  69.9784026  70.1406011  14.8460444  71.1992935  70.2773859  13.9614008
  76.2475119  61.9569723  21.3978789  75.9158444  62.8265133  21.1740004
  75.6520733  61.6406007  22.0772819  69.9831306  65.6965290   9.1308871
  70.1505708  66.5645526   9.4979342  69.7928475  65.8592571   8.2070160
  72.7406639  74.1582268  20.7974701  72.4407362  75.0607307  20.6890509
  72.3957698  73.8914452  21.6495854  66.1919120  70.6096065  16.8311406
  65.2669617  70.4772279  17.0389098  66.4403534  71.3890285  17.3281348
  76.1403783  66.6764809  18.4772139  75.2320660  66.6080217  18.1830900
  76.0891378  67.1536754  19.3053964  69.9620527  68.1522947  10.1155538
  69.8420152  68.5979998  10.9541018  69.2673115  68.5008265   9.5569076
  63.5527931  70.2529339  17.6655195  63.6820313  70.5063818  18.5794607
  62.8725383  70.8457047  17.3459850  67.7227419  80.9226589  13.7645669
  67.6451448  81.8734414  13.8434150  67.1189062  80.5772461  14.4220595
  70.2144648  68.0954454  26.4207036  69.4377983  68.6548374  26.4109901
  70.8535212  68.5811237  26.9421906  78.0065429  64.8781247  20.2550013
  77.3639809  65.1713780  19.6089807  77.5020358  64.7634167  21.0603209
  75.6605593  68.6244420  10.9435872  76.5723449  68.8571807  10.7683570
  75.1515240  69.2081464  10.3810951  68.4691021  70.9039908  25.9825003
  69.2105705  71.4424952  25.7059827  67.7628006  71.5306196  26.1396555
  73.9446360  73.0469048  24.5797165  74.3529716  72.6051459  23.8351797
  73.2223622  72.4721676  24.8331357  70.2977430  67.9841655  21.9530722
  71.1438626  68.4081068  22.0965371  70.2376068  67.3275279  22.6469285
  74.2675175  73.6070239  18.3349453  73.6384037  73.7715953  17.6325521
  73.8800837  74.0211848  19.1060417  78.1464407  74.5424677  15.6893817
  77.4615445  74.9223578  15.1390851  78.2308256  75.1520003  16.4225765
  73.4476876  65.6446023  23.6111895  73.2037808  66.3988084  23.0746171
  73.7236806  66.0231371  24.4459142  75.4015339  72.1884636  22.2889161
  75.6132234  72.8316395  21.6123542  75.3545087  71.3546952  21.8211091
  73.0041568  64.8002456  19.1925733  72.1426047  65.0983710  19.4842470
  73.0304002  65.0172855  18.2606766  69.8203137  73.3444647  15.5999539
  70.2841482  73.6232350  14.8104161  69.5559935  72.4428091  15.4172629
  66.7127218  72.8916128  18.5379302  67.2828575  73.3203397  17.8996786
  67.3035330  72.6098713  19.2363487  68.7572023  69.4667799  12.4089104
  69.4596066  69.9188843  12.8763030  68.4252651  68.8251618  13.0368997
  67.2052385  68.0579556  26.7840313  66.5751045  68.7395837  27.0175710
  67.0988472  67.9462637  25.8393451  62.4997357  67.7251352  17.7106237
  61.7096411  67.9808880  17.2346348  62.9908604  68.5399690  17.8158278
  76.5161166  75.0656591  20.4611518  77.3378610  74.6636778  20.1794200
  76.5123569  74.9624825  21.4127634  64.4512102  68.0895931  14.6689714
  63.6543266  68.2014625  15.1873210  64.2237695  68.4282583  13.8030604
  70.2817770  74.6140634  22.6172229  70.3462202  75.0761042  23.4530400
  69.5728694  73.9837999  22.7454538  60.7835060  67.9781842  20.1421228
  61.0343098  68.8628852  20.4078804  61.3194608  67.7986444  19.3696320
  84.6067160  71.4095339  16.8096490  83.8530868  70.8402738  16.6540494
  84.7414701  71.3758004  17.7567124  69.9965788  76.2808742  12.4851209
  69.8611462  77.1260278  12.9136057  70.5375600  76.4828019  11.7217143
  66.4833127  62.3600322  29.1465564  66.0900073  61.8066520  29.8213208
  67.2999268  62.6710900  29.5372082  63.4495185  73.7984180  13.0579134
  63.9619706  74.5927430  13.2084699  64.1017898  73.1010470  12.9912735
  65.2590070  76.9149936  15.1401887  65.4356698  77.8367901  14.9522871
  66.0546903  76.6008355  15.5696267  69.4001088  63.7758201  26.7385821
  70.1410802  64.3765354  26.6590283  69.6319011  63.0335839  26.1803863
  64.5442426  68.9614568  25.0164050  64.4295941  68.0599825  25.3171149
  63.6886944  69.2078265  24.6648867  71.6234264  76.9032308  26.6151551
  71.1798118  76.1168687  26.2972455  72.2851478  77.0911459  25.9495442
  66.3821385  78.4328110  21.1412230  66.9328810  78.3045173  20.3689223
  65.5432861  78.7322999  20.7907122  73.7215502  77.1835108  24.6432952
  73.7033977  78.0043989  24.1513221  74.6435422  77.0589183  24.8683093
  70.1788556  74.6979238  25.4856461  70.7116893  73.9367526  25.2555769
  69.6502637  74.4052890  26.2280615  73.3458251  59.8039304  21.0150102
  73.0022521  60.6940945  20.9389213  73.7137214  59.6140961  20.1519687
  61.4144102  72.1272834  13.8338705  62.2519324  72.5369843  13.6172412
  61.5922369  71.1872276  13.8038898  73.3108534  69.7947915   9.5222537
  72.7955157  70.5652519   9.7610925  73.0385842  69.1213051  10.1455599
  70.8955645  64.6397616  14.5807776  70.0397241  64.2504466  14.4013415
  71.3082597  64.7189576  13.7207561  72.4254792  62.1743959  18.9799336
  71.9219587  62.1374094  18.1667141  72.7185398  63.0836702  19.0395992
  68.6697677  62.2582689  17.9865517  69.5350674  62.0625497  17.6271407
  68.7375186  62.0293040  18.9134874  78.2842808  72.5480269  11.4575711
  77.5072251  72.2091429  11.0130873  78.9634289  72.5532893  10.7830676
  73.0994837  67.6675007  11.3482319  72.7944973  67.9821156  12.1992462
  74.0525279  67.7456427  11.3909652  71.5441269  73.8265230  12.9975273
  71.0162630  73.0917990  12.6848510  71.0428772  74.6039907  12.7515241
  76.5234115  72.0214251  18.1142319  75.8657789  72.7113512  18.2022448
  77.3274514  72.4110683  18.4576305  66.2759997  64.4884896  15.3581884
  66.8503748  64.2660078  14.6255077  66.8630979  64.5573591  16.1110485
  75.3339574  70.3758623  16.1646261  75.8471455  71.0088615  16.6667970
  75.9840798  69.7759819  15.7989621  66.6029584  66.5189358   9.3777769
  65.7666896  66.8564044   9.6987044  66.4634353  66.3838337   8.4404906
  68.5782664  61.3626145  14.0856954  67.9247077  61.0475163  13.4613568
  68.5363138  60.7401886  14.8116777  69.6893869  71.6445440   6.0010246
  68.7820931  71.4134694   6.2001395  70.1864901  70.8483060   6.1884227
  72.5961948  80.3542948   8.9206932  71.9223647  80.6574644   9.5291890
  72.9827770  81.1572028   8.5712389  71.8120405  67.8508079  18.4104601
  70.8942966  68.0723026  18.2526289  72.2280548  67.9254389  17.5516309
  72.5955452  69.2499495  13.5407281  73.3427271  69.7620892  13.2314404
  72.8647042  68.9283547  14.4011675  70.8682103  71.7458035  10.5234236
  69.9593322  71.4617068  10.6206706  70.8977186  72.1657114   9.6637543
  76.1001370  75.3564625  14.2925403  75.6463697  74.5155535  14.3490594
  75.4695337  75.9926023  14.6300183  75.0434289  66.2856611  15.5226071
  74.3057046  65.7733997  15.8536313  75.2961063  65.8456992  14.7109348
  74.5434309  77.1941122  15.2275221  74.8357284  77.7546179  14.5087587
  75.0532930  77.4869683  15.9828381  75.1445917  59.0632863  16.1167840
  75.4504794  58.2030226  15.8293755  75.8698522  59.6550483  15.9166834
  61.4370273  69.4663549  14.5049438  61.2394673  68.8732910  13.7800505
  60.8816937  69.1615760  15.2225377  69.4166997  69.3586656  16.6244031
  69.4715606  68.4060492  16.5486508  68.6058199  69.5146095  17.1085330
  70.5658190  73.2866779   7.8622314  70.1277620  72.5702638   7.4027952
  71.3068631  73.5142894   7.3007406  67.3559356  67.9763716  14.3834410
  66.5427222  68.2757886  14.7899602  67.8518351  67.5819404  15.1008892
  69.5067934  77.9721473  16.3168675  69.4644113  78.1982319  15.3877207
  70.4230633  77.7384847  16.4654476  72.9533568  68.4405540  23.2149304
  73.3082956  68.6677013  24.0743770  73.6005699  68.7723917  22.5926559
  78.6831305  71.5623976  13.9198633  78.5449204  71.7525572  12.9919822
  78.3267524  72.3243359  14.3766684  66.8473431  65.5482071  19.9995645
  67.4872811  65.4070830  19.3018608  66.0150962  65.2616585  19.6234247
  78.7100685  73.6300503  18.9309904  79.1437191  73.5375792  19.7792958
  79.4232265  73.6058004  18.2929920  67.6233735  74.8484502  16.1130637
  68.4174334  74.3534822  15.9113212  66.9125428  74.3202365  15.7498343
  72.4428580  77.2302597  20.4643005  72.4965602  77.7993533  21.2320721
  71.5743361  77.4004482  20.0997042  63.9316499  68.9927583  12.1890390
  63.0014087  68.9312039  12.4060352  64.0273971  68.4703536  11.3927031
  63.8502048  65.5182396  14.7768632  64.1108865  66.4327729  14.6677792
  64.6719220  65.0506839  14.9265245  65.3226973  66.9320153  21.9467456
  65.9950026  66.7237515  21.2980105  64.4956760  66.7342239  21.5072689
  79.5716234  73.6724204  21.4642790  79.7652124  74.5770014  21.7102065
  79.4716852  73.2131623  22.2981375  71.2252545  63.5582094  23.9633117
  70.5780460  64.2572044  23.8697594  71.9953560  63.9918238  24.3309365
  74.6331343  73.8230946  27.0383670  74.4816849  73.5941498  26.1213754
  74.6236022  74.7801548  27.0515015  71.4016679  71.3962859  22.0229937
  72.3308739  71.5474019  21.8498904  70.9807709  71.4846880  21.1678583
  70.2005011  75.4213524  19.7928474  70.0616097  75.0532308  20.6654413
  69.4119607  75.9361163  19.6212432  70.7953163  80.5222620  11.1354011
  70.9704919  80.0510663  11.9499634  70.1085951  81.1488386  11.3635272
  71.7510226  74.7995126  17.1817312  71.4160059  74.7595896  18.0774962
  71.2514172  74.1339842  16.7087723  65.7254470  70.2062756  22.7069893
  65.5874268  69.4742995  23.3081432  66.6359394  70.1171656  22.4254081
  74.6869418  72.1451161   7.4554372  74.0698589  71.4197989   7.3587425
  74.2185906  72.9060521   7.1121446  68.3536771  69.9182716  22.1953573
  69.0636389  69.2775908  22.1540192  68.3106079  70.1695611  23.1179754
  76.3423550  76.8550069  25.1160152  76.2836096  76.1709289  24.4490735
  76.7443068  77.5969059  24.6640778  67.0665705  66.9047934  24.0149213
  66.5303062  66.4538672  24.6670809  66.4782413  67.0393842  23.2719677
  65.3614248  83.6711983  17.9093871  65.6010847  84.3030507  18.5872890
  64.5183445  83.3200023  18.1959230  66.4767964  66.3636585   6.5775676
  65.5997430  66.2425386   6.2137923  66.9525717  65.5722663   6.3254565
  76.3440957  74.8189653  23.3474132  75.4567736  74.4815575  23.4700531
  76.9139508  74.0872684  23.5842897  57.9970104  71.1513745  16.6717183
  58.6841144  70.8375475  16.0838199  57.8418233  72.0555109  16.3984435
  62.8004826  66.0403941  21.1002207  62.7163015  65.4329611  20.3652617
  61.9787533  66.5312960  21.1011703  69.8742110  79.4791105  20.3135375
  69.8012282  80.2846077  20.8254680  69.4319503  79.6783071  19.4883397
  69.6631890  78.7162875  13.8238197  68.8799412  79.2584555  13.9176421
  70.3624635  79.2336855  14.2232438  72.9728540  64.5257505  16.4672402
  73.4697240  63.7727467  16.1473472  72.2015521  64.5621821  15.9015611
  80.8258297  70.2297870  18.1090694  80.8148174  71.1122586  17.7384627
  79.9575677  69.8769421  17.9145231  72.3340794  79.3777939  22.4693534
  73.0468766  80.0125404  22.3969435  71.8430822  79.4741805  21.6533536
  74.0558321  73.2829192  14.0410826  73.1214599  73.4030654  13.8715530
  74.2334989  72.3801659  13.7770835  69.5563509  66.6674888  16.1944087
  69.1861296  66.1145928  16.8824992  70.0522601  66.0633021  15.6419087
  77.4430872  69.1246511  14.5760860  77.9091324  69.9574503  14.5021162
  77.8938373  68.6591493  15.2806118  67.3852707  77.1272383  23.2899105
  68.0862167  77.7608866  23.4428499  66.9147822  77.4687114  22.5294744
  75.5107103  75.4690333  11.5747012  75.7866947  75.3546927  12.4840886
  74.6411602  75.0707817  11.5359185  75.4147535  61.4927098  18.6151761
  74.5010615  61.7231325  18.7833968  75.8440636  61.5765542  19.4665793
  75.1853993  69.6816990  21.1151655  74.5325444  69.9292898  20.4604108
  75.5634373  68.8681128  20.7814132  72.1461167  79.7176683  15.2179825
  72.3283562  78.8998339  15.6807578  72.9694153  79.9344376  14.7804715
  72.4803333  78.6444869  12.4794874  73.0091099  78.1337323  11.8665036
  72.7431552  78.3287399  13.3440407  71.2341566  70.4236801  27.6017692
  70.5582203  70.3230931  28.2720067  72.0569200  70.2676015  28.0653689
  62.9820425  76.6608738  20.2230207  63.5673862  75.9152426  20.3558112
  62.7845264  76.9712695  21.1066871  65.8359081  79.6959985  15.2392650
  65.1669456  80.1806113  14.7556690  65.6971950  79.9429206  16.1536028
  57.5738080  69.2314338  18.9434650  57.6122180  68.6977929  19.7371769
  57.0678373  68.7049544  18.3245628  69.9764349  81.7303729  21.8375308
  70.5282657  81.8935350  22.6024393  70.3170543  82.3208167  21.1655333
  64.9528842  64.0778879  22.4397193  65.0170169  64.9393709  22.0274590
  64.8895963  63.4652880  21.7069551  64.4281115  66.1502011  26.0870227
  65.0553154  65.7679088  26.7007751  63.5709034  65.9316213  26.4525920
  74.8275224  76.5564986  27.6923963  75.3715127  77.1694945  27.1978917
  74.2462068  77.1144565  28.2090976  61.2046658  67.9578440  12.0188582
  61.5000099  67.0489119  11.9655636  60.3034693  67.9366180  11.6969584
  73.1132736  79.6785704  18.8238990  72.9883876  78.8775444  18.3149936
  73.7711828  80.1731898  18.3352960  64.7340905  66.0334437  18.0016130
  64.0127490  66.6470404  17.8623604  65.5234160  66.5692202  17.9232776
  75.1767645  77.4794724  20.4518540  74.2297980  77.3600076  20.3796867
  75.5250418  76.5917222  20.5344802  67.5367218  63.3688863  24.2756782
  68.0601620  63.6151160  25.0383092  67.3179551  64.2008898  23.8559920
  62.9334499  65.6392538  12.1427907  62.6047205  64.7589917  11.9603013
  63.2873870  65.5840207  13.0304296  72.1814078  77.2747441  16.6522893
  72.0339041  76.3464148  16.8330463  73.0067572  77.2967531  16.1679968
  66.0476322  65.9265508  12.5103385  66.3872395  66.4551429  11.7881993
  66.4948443  66.2645914  13.2861951  75.7848200  78.0975999  17.7387765
  76.7094747  77.8918861  17.6012216  75.6163503  77.8492400  18.6477107
  68.7419763  64.3102558  21.9606453  68.4016584  63.5110371  22.3627133
  68.0358770  64.6104269  21.3883286  69.3936235  61.3951871  20.4133776
  70.2162304  60.9212349  20.2912666  69.6374299  62.1742355  20.9132462
  68.0344470  64.4240129  10.7096677  68.7552832  64.8021382  10.2060394
  67.4109774  65.1429006  10.8131655  72.1775592  65.1285278  11.6455010
  72.3939207  66.0109916  11.3443838  71.6969660  64.7371492  10.9160652
  66.9174814  68.0870991  18.2225754  66.7719395  68.4011295  19.1150036
  66.4400017  68.7055892  17.6696653  68.7771197  65.0773539  18.2706644
  68.7632765  64.1814633  17.9338942  69.4943625  65.0844203  18.9044930
  70.6297327  65.5110880  20.3159771  70.3715105  66.4327950  20.3144102
  70.0982368  65.1141314  21.0060236  75.5743516  78.6161667  13.0949857
  75.7480394  78.0508089  12.3423709  76.0672407  79.4162562  12.9129347
  61.3920476  70.6276336  21.1613416  60.8473944  71.4036144  21.2933690
  62.2699826  70.9747140  21.0032537  68.1808093  63.9587920  13.5394214
  68.3024004  63.0304566  13.7385102  67.8910135  63.9726606  12.6272530
  71.0499283  61.6442830  16.6760934  71.0720980  61.7082163  15.7212913
  71.4667342  60.8047339  16.8701440  81.4282907  71.3798090  14.7140157
  81.8714053  70.6305415  14.3159280  80.5509418  71.3708226  14.3313888
  76.5618689  77.9328431  10.1946755  77.2569593  78.5535124  10.4134070
  76.9041839  77.0823782  10.4699133  62.1786498  69.7546232  24.0543572
  61.4368234  69.9028867  24.6408203  61.8579242  70.0154498  23.1910322
  78.4610112  75.3828137  11.7234086  78.9861436  75.7215409  10.9983406
  78.3732464  74.4475152  11.5397220  70.1230160  79.2962210  23.8523962
  70.4317287  79.0511357  24.7246662  70.9205643  79.5008849  23.3642833
  70.1450773  81.4500120  16.0829339  69.7055763  80.9576499  16.7762196
  70.8958890  80.9073088  15.8421414  62.6243112  77.6411661  16.0853967
  63.4501131  77.3415433  15.7052611  62.2737164  76.8719283  16.5343756
  67.5924645  76.9938129  18.1551641  66.9704654  76.3308834  17.8553869
  68.2629512  77.0199261  17.4725288  60.8251717  75.5597987  17.0442901
  59.9883625  75.1320162  16.8626902  60.7975362  75.7530431  17.9813692
  67.6649172  65.4719917  27.7484147  67.7137328  66.3482040  27.3661916
  68.2071686  64.9297310  27.1755790  78.1504018  76.0161040  27.0285284
  77.3599562  75.9985179  26.4889783  77.9137372  76.5549334  27.7834320
  78.2701893  72.8653507  24.3418012  78.3199898  72.7003514  25.2833535
  78.1615816  71.9980766  23.9515893  67.1538152  75.5442052  11.6310101
  67.3026272  76.2277517  10.9776774  67.9604595  75.5247142  12.1459557
  75.5605655  68.8484435  25.6577319  76.4615518  68.7090900  25.3661317
  75.6353630  69.0138890  26.5975496  69.8948461  66.2251289  24.5030505
  69.0251770  66.5184856  24.2313094  70.1307941  66.8091734  25.2237769
  79.7720090  75.2850448  24.5860034  79.4804898  75.6480429  25.4223495
  79.1592221  74.5717456  24.4073366  80.9715772  72.8503328  17.1062604
  81.8062663  73.2893132  17.2700164  81.1074901  72.3741981  16.2870850
  78.0207278  70.4083063  23.0540092  78.4961400  70.6010709  22.2458943
  77.0972843  70.4642249  22.8083475  64.9090785  71.5707230  12.6371170
  64.6636827  70.6669560  12.8351380  65.0786699  71.5724380  11.6950648
  72.5987494  62.4430906  22.0195926  73.1169438  63.1791933  21.6942414
  72.2442627  62.7494900  22.8542685  64.1786432  67.3035588  10.1357332
  63.4855677  67.3779943   9.4797368  63.9338184  66.5395931  10.6578848
  72.8500089  58.8631189  17.5396822  73.1301842  58.1954378  18.1657249
  73.6350696  59.0560285  17.0271486  70.6533557  78.0390183   9.1021849
  70.0807524  78.6580370   8.6492320  71.2266351  78.5889545   9.6361771
  76.7208947  67.2848823  21.2868397  77.6726370  67.3846921  21.3080621
  76.5512397  66.4927091  21.7966482  74.7423326  64.3704406  21.4727798
  74.1473259  64.6509419  20.7774287  74.4573023  64.8598307  22.2444539
  73.8730817  78.3227333  10.2330431  74.8061490  78.2572895  10.4363306
  73.7854030  79.1583600   9.7744964  76.5018834  77.6393203   7.1934378
  76.4232465  77.3053067   8.0870136  77.3228500  78.1314971   7.1925851
  79.1997025  70.5054943  20.4010697  79.1673345  69.5670943  20.5870381
  79.8097648  70.5838979  19.6676522  71.0380356  69.3750996   6.4437901
  71.9839460  69.2457204   6.5126319  70.6594601  68.6365657   6.9207329
  79.3491513  67.2965986  20.4468980  78.8330562  66.5124443  20.2598909
  80.2331462  66.9684703  20.6115500  77.0102240  61.0407002  16.4064793
  76.8127061  60.7322090  17.2908125  77.6201946  61.7668641  16.5362723
  85.0173575  71.5670949  19.5416734  85.7476963  71.3056238  20.1024437
  84.4080520  70.8299671  19.5818802  83.0988872  69.7078812  20.1391185
  82.3722035  69.5734777  19.5307677  82.6836159  70.0155641  20.9447903
  70.9219048  73.4268742  27.9038558  71.8422058  73.6047341  28.0978605
  70.8868631  72.4824787  27.7518257  69.2223273  67.3000972   6.3792786
  68.3154728  67.0034085   6.4555500  69.4999254  67.0030790   5.5127073
  60.1401213  68.6207335  16.8291833  59.8203998  67.7672644  16.5366207
  59.5934641  68.8355914  17.5849800  63.9181121  71.3369776  20.5461339
  64.1367130  72.2686884  20.5649373  64.3306895  70.9777751  21.3316143
  70.8385339  61.8437862  12.5337028  70.0286067  61.4984947  12.9092274
  71.5269755  61.5345405  13.1224639  72.7675887  60.9215909  14.1561324
  73.3206925  61.3411362  14.8151347  73.0045973  59.9951657  14.1984280
  68.7908986  66.9102982  29.9364088  68.6905713  67.8597339  29.8676179
  68.5730528  66.5821221  29.0640158  67.9922057  64.1587907   6.5204766
  68.8541221  64.4842806   6.7800583  68.1772402  63.3719403   6.0077831
  60.0089473  72.2410247  18.7984954  59.3152945  71.8264200  18.2854909
  60.7562464  72.2830783  18.2018373  76.1454694  63.0316434  13.6639989
  75.5653363  63.6901238  13.2818041  75.8790627  62.2093778  13.2527406
  74.5958260  62.4321491  15.8661309  75.0958039  62.5438026  15.0575628
  75.2393868  62.1282544  16.5062117  68.6540256  70.3400121  28.7529150
  68.1707338  71.1400481  28.9593039  68.7401195  70.3508066  27.7996594
  61.9226216  72.1728501  16.6750969  61.8996904  72.2716188  15.7232852
  62.2326852  73.0193651  16.9968135  64.5813594  74.2304656  20.7897584
  65.5356847  74.1988598  20.7227515  64.3826117  73.7695279  21.6047810
  65.1712976  72.8005772  23.3568381  65.9905865  73.2949850  23.3803219
  65.4449783  71.8837740  23.3285949  74.9279572  65.1916524  12.7196337
  74.0405427  65.4766175  12.5016532  75.3433561  65.0310287  11.8723614
  78.2794108  65.2163045  16.4350676  79.0554498  65.7059497  16.7075293
  77.5542242  65.6421099  16.8922546  80.7166667  65.9290664  17.4924617
  81.3111157  65.6886400  16.7817925  80.7893250  65.2097795  18.1198153
  62.9363822  79.7724275  17.8067782  62.8018290  79.0124676  17.2405780
  62.5195885  80.4965175  17.3396570  74.0722785  74.9561199   6.8144357
  74.7758635  75.1611201   7.4302012  73.3485434  75.5237961   7.0793440
  74.9020596  70.7071060  12.9346627  74.8455797  71.1639611  12.0954259
  75.4548938  69.9461745  12.7569470  78.7125402  66.4960792  13.7596746
  78.4562336  66.0957428  14.5904954  78.0878270  67.2104586  13.6346886
  83.0237739  69.2356865  16.2668038  82.4637297  69.3050054  17.0399600
  82.4181243  69.0597850  15.5467534  66.0932948  80.6693592  18.0186224
  65.9765332  81.6139025  17.9164914  65.2725395  80.3667154  18.4072023
  75.9809483  75.3943728   8.8642817  76.8155087  74.9624926   8.6820292
  75.8193826  75.2225742   9.7919711  75.6355375  71.8975841  10.2299156
  75.5804179  71.7320113   9.2887600  75.0101430  72.6051874  10.3861346
  60.4247890  67.1343906  24.0560578  61.0706754  66.6242860  24.5447804
  60.2165041  67.8712587  24.6304004  72.9501282  74.2024753  29.5552719
  73.8192442  74.3765405  29.1939354  72.4708034  75.0219170  29.4328448
  68.9451500  61.3983950   9.8084475  68.9330170  62.3425790   9.9652745
  69.8374922  61.2154096   9.5143936  67.1187462  81.3221854  21.2342153
  68.0214709  81.3545464  21.5508648  66.8924832  80.3922305  21.2488488
  68.8741064  80.0752841  17.8952231  67.9236695  80.0754702  17.7816603
  69.1773551  79.3285575  17.3788266  72.7603620  57.9926727  14.0630411
  71.9936016  57.4385214  14.2087094  73.1714325  58.0648596  14.9244563
  64.7645381  64.2811523  28.1535593  65.6276843  63.9248328  28.3638917
  64.1910792  63.9425417  28.8410997  84.6093758  85.9113379  18.9597994
  85.2472168  85.7920126  18.2561334  84.4914601  86.8594223  19.0185946
  81.4183464  85.8640807  18.8959518  81.0801976  85.7481872  18.0080053
  82.2873232  85.4631972  18.8760524  77.2770280  87.7176284  14.8856409
  76.7135145  87.6266220  14.1172697  77.1622675  86.8976188  15.3658902
  81.9003247  87.0175659  24.8545724  81.8891888  86.6228457  23.9826227
  82.0623887  86.2841731  25.4479495  74.8234712  89.2127475  17.7240630
  75.6156004  88.8718300  17.3086929  75.0631362  89.3222450  18.6442783
  82.8569839  91.3847251  10.1970874  82.2057818  91.9701332   9.8104888
  83.6514201  91.9153446  10.2565912  76.7825466  88.4736388  10.5958008
  77.5556342  87.9265375  10.4570884  77.1350865  89.3380638  10.8072470
  78.6210508  89.8012771  23.8024908  78.3300374  90.7058402  23.6871574
  79.2567493  89.8429298  24.5168977  79.5466715  87.1789619  20.3926267
  80.1430287  86.9545642  19.6783230  79.6041687  86.4374365  20.9951715
  79.1191744  84.6329055   8.2276458  79.3717264  84.1110576   7.4659921
  78.1816303  84.4695200   8.3303142  84.1635026  83.6364833  16.0351202
  84.9498116  83.2184256  15.6841619  84.4273731  84.5410925  16.2032850
  84.3345104  89.0737683  10.7339858  83.6990937  89.1472310  11.4460763
  84.0042510  89.6631282  10.0558938  89.5643453  83.5740066  16.9384180
  90.2968625  83.0039283  17.1722010  88.8082809  83.1861667  17.3790686
  78.8388032  86.5357160  10.4300833  78.7224290  85.8602064  11.0981918
  78.9490292  86.0489534   9.6132986  81.1819573  85.9967308  14.1347523
  80.8177780  85.4697929  14.8460444  82.0386689  85.6065777  13.9614008
  87.0868874  77.2861640  21.3978789  86.7552199  78.1557051  21.1740004
  86.4914487  76.9697924  22.0772819  80.8225060  81.0257207   9.1308871
  80.9899463  81.8937444   9.4979342  80.6322229  81.1884489   8.2070160
  83.5800393  89.4874186  20.7974701  83.2801116  90.3899225  20.6890509
  83.2351453  89.2206369  21.6495854  77.0312875  85.9387983  16.8311406
  76.1063371  85.8064197  17.0389098  77.2797288  86.7182202  17.3281348
  86.9797537  82.0056726  18.4772139  86.0714414  81.9372135  18.1830900
  86.9285133  82.4828671  19.3053964  80.8014281  83.4814865  10.1155538
  80.6813906  83.9271916  10.9541018  80.1066869  83.8300182   9.5569076
  74.3921686  85.5821257  17.6655195  74.5214067  85.8355735  18.5794607
  73.7119137  86.1748965  17.3459850  78.5621173  96.2518507  13.7645669
  78.4845203  97.2026332  13.8434150  77.9582817  95.9064379  14.4220595
  81.0538403  83.4246372  26.4207036  80.2771737  83.9840292  26.4109901
  81.6928966  83.9103155  26.9421906  88.8459184  80.2073165  20.2550013
  88.2033564  80.5005698  19.6089807  88.3414112  80.0926085  21.0603209
  86.4999347  83.9536338  10.9435872  87.4117203  84.1863725  10.7683570
  85.9908994  84.5373382  10.3810951  79.3084775  86.2331825  25.9825003
  80.0499460  86.7716869  25.7059827  78.6021761  86.8598114  26.1396555
  84.7840115  88.3760966  24.5797165  85.1923471  87.9343376  23.8351797
  84.0617376  87.8013593  24.8331357  81.1371185  83.3133573  21.9530722
  81.9832380  83.7372986  22.0965371  81.0769823  82.6567197  22.6469285
  85.1068930  88.9362156  18.3349453  84.4777792  89.1007871  17.6325521
  84.7194592  89.3503766  19.1060417  88.9858161  89.8716594  15.6893817
  88.3009200  90.2515496  15.1390851  89.0702011  90.4811921  16.4225765
  84.2870630  80.9737941  23.6111895  84.0431562  81.7280001  23.0746171
  84.5630561  81.3523289  24.4459142  86.2409093  87.5176553  22.2889161
  86.4525988  88.1608313  21.6123542  86.1938841  86.6838870  21.8211091
  83.8435322  80.1294374  19.1925733  82.9819801  80.4275627  19.4842470
  83.8697757  80.3464773  18.2606766  80.6596891  88.6736564  15.5999539
  81.1235237  88.9524267  14.8104161  80.3953690  87.7720009  15.4172629
  77.5520972  88.2208046  18.5379302  78.1222330  88.6495314  17.8996786
  78.1429084  87.9390631  19.2363487  79.5965777  84.7959717  12.4089104
  80.2989821  85.2480761  12.8763030  79.2646406  84.1543536  13.0368997
  78.0446139  83.3871473  26.7840313  77.4144800  84.0687754  27.0175710
  77.9382227  83.2754555  25.8393451  73.3391111  83.0543270  17.7106237
  72.5490165  83.3100798  17.2346348  73.8302359  83.8691607  17.8158278
  87.3554921  90.3948509  20.4611518  88.1772365  89.9928696  20.1794200
  87.3517324  90.2916743  21.4127634  75.2905857  83.4187849  14.6689714
  74.4937020  83.5306543  15.1873210  75.0631449  83.7574501  13.8030604
  81.1211524  89.9432552  22.6172229  81.1855957  90.4052959  23.4530400
  80.4122448  89.3129917  22.7454538  71.6228814  83.3073760  20.1421228
  71.8736853  84.1920770  20.4078804  72.1588363  83.1278361  19.3696320
  95.4460914  86.7387257  16.8096490  94.6924622  86.1694655  16.6540494
  95.5808455  86.7049922  17.7567124  80.8359542  91.6100659  12.4851209
  80.7005217  92.4552195  12.9136057  81.3769355  91.8119937  11.7217143
  77.3226882  77.6892239  29.1465564  76.9293827  77.1358438  29.8213208
  78.1393022  78.0002818  29.5372082  74.2888939  89.1276098  13.0579134
  74.8013460  89.9219348  13.2084699  74.9411652  88.4302388  12.9912735
  76.0983824  92.2441854  15.1401887  76.2750453  93.1659818  14.9522871
  76.8940658  91.9300273  15.5696267  80.2394843  79.1050118  26.7385821
  80.9804556  79.7057272  26.6590283  80.4712766  78.3627756  26.1803863
  75.3836181  84.2906486  25.0164050  75.2689696  83.3891743  25.3171149
  74.5280698  84.5370182  24.6648867  82.4628018  92.2324226  26.6151551
  82.0191873  91.4460605  26.2972455  83.1245232  92.4203376  25.9495442
  77.2215140  93.7620028  21.1412230  77.7722565  93.6337091  20.3689223
  76.3826616  94.0614917  20.7907122  84.5609257  92.5127026  24.6432952
  84.5427732  93.3335907  24.1513221  85.4829177  92.3881101  24.8683093
  81.0182311  90.0271155  25.4856461  81.5510647  89.2659444  25.2555769
  80.4896392  89.7344807  26.2280615  84.1852006  75.1331221  21.0150102
  83.8416275  76.0232863  20.9389213  84.5530968  74.9432879  20.1519687
  72.2537856  87.4564752  13.8338705  73.0913078  87.8661760  13.6172412
  72.4316124  86.5164194  13.8038898  84.1502288  85.1239832   9.5222537
  83.6348912  85.8944437   9.7610925  83.8779597  84.4504969  10.1455599
  81.7349399  79.9689533  14.5807776  80.8790996  79.5796384  14.4013415
  82.1476351  80.0481494  13.7207561  83.2648546  77.5035877  18.9799336
  82.7613342  77.4666012  18.1667141  83.5579153  78.4128619  19.0395992
  79.5091432  77.5874606  17.9865517  80.3744429  77.3917415  17.6271407
  79.5768941  77.3584958  18.9134874  89.1236563  87.8772187  11.4575711
  88.3466005  87.5383347  11.0130873  89.8028043  87.8824810  10.7830676
  83.9388592  82.9966925  11.3482319  83.6338727  83.3113074  12.1992462
  84.8919034  83.0748344  11.3909652  82.3835023  89.1557148  12.9975273
  81.8556385  88.4209907  12.6848510  81.8822526  89.9331824  12.7515241
  87.3627869  87.3506168  18.1142319  86.7051544  88.0405430  18.2022448
  88.1668269  87.7402600  18.4576305  77.1153751  79.8176814  15.3581884
  77.6897503  79.5951996  14.6255077  77.7024733  79.8865509  16.1110485
  86.1733328  85.7050541  16.1646261  86.6865210  86.3380533  16.6667970
  86.8234552  85.1051737  15.7989621  77.4423338  81.8481275   9.3777769
  76.6060650  82.1855962   9.6987044  77.3028108  81.7130255   8.4404906
  79.4176419  76.6918063  14.0856954  78.7640831  76.3767080  13.4613568
  79.3756893  76.0693804  14.8116777  80.5287624  86.9737358   6.0010246
  79.6214685  86.7426612   6.2001395  81.0258656  86.1774977   6.1884227
  83.4355702  95.6834865   8.9206932  82.7617401  95.9866562   9.5291890
  83.8221524  96.4863946   8.5712389  82.6514159  83.1799997  18.4104601
  81.7336720  83.4014944  18.2526289  83.0674303  83.2546307  17.5516309
  83.4349207  84.5791412  13.5407281  84.1821026  85.0912809  13.2314404
  83.7040796  84.2575465  14.4011675  81.7075857  87.0749953  10.5234236
  80.7987076  86.7908986  10.6206706  81.7370941  87.4949032   9.6637543
  86.9395124  90.6856543  14.2925403  86.4857452  89.8447452  14.3490594
  86.3089091  91.3217941  14.6300183  85.8828044  81.6148529  15.5226071
  85.1450801  81.1025915  15.8536313  86.1354818  81.1748910  14.7109348
  85.3828064  92.5233039  15.2275221  85.6751038  93.0838096  14.5087587
  85.8926684  92.8161600  15.9828381  85.9839671  74.3924781  16.1167840
  86.2898548  73.5322144  15.8293755  86.7092276  74.9842401  15.9166834
  72.2764027  84.7955467  14.5049438  72.0788427  84.2024828  13.7800505
  71.7210691  84.4907677  15.2225377  80.2560751  84.6878574  16.6244031
  80.3109361  83.7352410  16.5486508  79.4451953  84.8438013  17.1085330
  81.4051945  88.6158697   7.8622314  80.9671375  87.8994556   7.4027952
  82.1462386  88.8434811   7.3007406  78.1953111  83.3055633  14.3834410
  77.3820977  83.6049804  14.7899602  78.6912105  82.9111322  15.1008892
  80.3461689  93.3013390  16.3168675  80.3037868  93.5274237  15.3877207
  81.2624388  93.0676765  16.4654476  83.7927323  83.7697458  23.2149304
  84.1476710  83.9968931  24.0743770  84.4399454  84.1015835  22.5926559
  89.5225060  86.8915894  13.9198633  89.3842958  87.0817490  12.9919822
  89.1661278  87.6535277  14.3766684  77.6867186  80.8773989  19.9995645
  78.3266565  80.7362748  19.3018608  76.8544716  80.5908502  19.6234247
  89.5494439  88.9592421  18.9309904  89.9830946  88.8667710  19.7792958
  90.2626020  88.9349921  18.2929920  78.4627490  90.1776419  16.1130637
  79.2568088  89.6826739  15.9113212  77.7519182  89.6494282  15.7498343
  83.2822334  92.5594515  20.4643005  83.3359356  93.1285451  21.2320721
  82.4137115  92.7296400  20.0997042  74.7710253  84.3219501  12.1890390
  73.8407841  84.2603957  12.4060352  74.8667725  83.7995454  11.3927031
  74.6895802  80.8474314  14.7768632  74.9502619  81.7619647  14.6677792
  75.5112974  80.3798756  14.9265245  76.1620727  82.2612071  21.9467456
  76.8343781  82.0529433  21.2980105  75.3350514  82.0634157  21.5072689
  90.4109989  89.0016121  21.4642790  90.6045879  89.9061932  21.7102065
  90.3110607  88.5423540  22.2981375  82.0646299  78.8874012  23.9633117
  81.4174215  79.5863962  23.8697594  82.8347315  79.3210156  24.3309365
  85.4725097  89.1522864  27.0383670  85.3210604  88.9233416  26.1213754
  85.4629777  90.1093466  27.0515015  82.2410434  86.7254777  22.0229937
  83.1702494  86.8765936  21.8498904  81.8201464  86.8138798  21.1678583
  81.0398766  90.7505441  19.7928474  80.9009851  90.3824226  20.6654413
  80.2513362  91.2653081  19.6212432  81.6346918  95.8514538  11.1354011
  81.8098673  95.3802581  11.9499634  80.9479706  96.4780304  11.3635272
  82.5903981  90.1287044  17.1817312  82.2553813  90.0887814  18.0774962
  82.0907926  89.4631760  16.7087723  76.5648225  85.5354674  22.7069893
  76.4268023  84.8034913  23.3081432  77.4753148  85.4463574  22.4254081
  85.5263172  87.4743078   7.4554372  84.9092343  86.7489906   7.3587425
  85.0579661  88.2352439   7.1121446  79.1930525  85.2474633  22.1953573
  79.9030144  84.6067826  22.1540192  79.1499834  85.4987528  23.1179754
  87.1817304  92.1841987  25.1160152  87.1229850  91.5001207  24.4490735
  87.5836822  92.9260977  24.6640778  77.9059459  82.2339851  24.0149213
  77.3696816  81.7830590  24.6670809  77.3176168  82.3685760  23.2719677
  76.2008003  99.0003901  17.9093871  76.4404601  99.6322425  18.5872890
  75.3577199  98.6491941  18.1959230  77.3161718  81.6928503   6.5775676
  76.4391185  81.5717303   6.2137923  77.7919471  80.9014581   6.3254565
  87.1834711  90.1481571  23.3474132  86.2961490  89.8107492  23.4700531
  87.7533262  89.4164602  23.5842897  68.8363858  86.4805662  16.6717183
  69.5234898  86.1667392  16.0838199  68.6811987  87.3847027  16.3984435
  73.6398581  81.3695859  21.1002207  73.5556769  80.7621528  20.3652617
  72.8181287  81.8604877  21.1011703  80.7135865  94.8083023  20.3135375
  80.6406036  95.6137994  20.8254680  80.2713258  95.0074989  19.4883397
  80.5025644  94.0454793  13.8238197  79.7193166  94.5876473  13.9176421
  81.2018390  94.5628773  14.2232438  83.8122294  79.8549422  16.4672402
  84.3090994  79.1019385  16.1473472  83.0409276  79.8913739  15.9015611
  91.6652052  85.5589788  18.1090694  91.6541928  86.4414503  17.7384627
  90.7969431  85.2061339  17.9145231  83.1734548  94.7069857  22.4693534
  83.8862520  95.3417322  22.3969435  82.6824577  94.8033723  21.6533536
  84.8952075  88.6121110  14.0410826  83.9608354  88.7322572  13.8715530
  85.0728744  87.7093576  13.7770835  80.3957263  81.9966805  16.1944087
  80.0255051  81.4437846  16.8824992  80.8916356  81.3924939  15.6419087
  88.2824627  84.4538429  14.5760860  88.7485079  85.2866421  14.5021162
  88.7332127  83.9883411  15.2806118  78.2246462  92.4564300  23.2899105
  78.9255921  93.0900783  23.4428499  77.7541577  92.7979032  22.5294744
  86.3500858  90.7982250  11.5747012  86.6260702  90.6838845  12.4840886
  85.4805356  90.3999735  11.5359185  86.2541289  76.8219016  18.6151761
  85.3404369  77.0523243  18.7833968  86.6834391  76.9057460  19.4665793
  86.0247748  85.0108908  21.1151655  85.3719198  85.2584815  20.4604108
  86.4028128  84.1973046  20.7814132  82.9854922  95.0468601  15.2179825
  83.1677316  94.2290257  15.6807578  83.8087908  95.2636293  14.7804715
  83.3197087  93.9736786  12.4794874  83.8484854  93.4629241  11.8665036
  83.5825307  93.6579316  13.3440407  82.0735321  85.7528719  27.6017692
  81.3975958  85.6522848  28.2720067  82.8962955  85.5967933  28.0653689
  73.8214180  91.9900655  20.2230207  74.4067617  91.2444343  20.3558112
  73.6239018  92.3004612  21.1066871  76.6752835  95.0251903  15.2392650
  76.0063210  95.5098031  14.7556690  76.5365705  95.2721123  16.1536028
  68.4131835  84.5606256  18.9434650  68.4515934  84.0269846  19.7371769
  67.9072127  84.0341461  18.3245628  80.8158104  97.0595646  21.8375308
  81.3676412  97.2227268  22.6024393  81.1564297  97.6500084  21.1655333
  75.7922597  79.4070796  22.4397193  75.8563923  80.2685627  22.0274590
  75.7289717  78.7944798  21.7069551  75.2674869  81.4793929  26.0870227
  75.8946908  81.0971006  26.7007751  74.4102788  81.2608131  26.4525920
  85.6668978  91.8856904  27.6923963  86.2108882  92.4986862  27.1978917
  85.0855823  92.4436482  28.2090976  72.0440412  83.2870358  12.0188582
  72.3393853  82.3781036  11.9655636  71.1428448  83.2658097  11.6969584
  83.9526491  95.0077622  18.8238990  83.8277630  94.2067362  18.3149936
  84.6105582  95.5023815  18.3352960  75.5734659  81.3626354  18.0016130
  74.8521245  81.9762322  17.8623604  76.3627915  81.8984119  17.9232776
  86.0161399  92.8086642  20.4518540  85.0691735  92.6891993  20.3796867
  86.3644172  91.9209140  20.5344802  78.3760973  78.6980781  24.2756782
  78.8995375  78.9443077  25.0383092  78.1573306  79.5300816  23.8559920
  73.7728254  80.9684456  12.1427907  73.4440960  80.0881834  11.9603013
  74.1267624  80.9132124  13.0304296  83.0207833  92.6039358  16.6522893
  82.8732795  91.6756066  16.8330463  83.8461326  92.6259449  16.1679968
  76.8870077  81.2557425  12.5103385  77.2266149  81.7843347  11.7881993
  77.3342197  81.5937831  13.2861951  86.6241954  93.4267917  17.7387765
  87.5488502  93.2210778  17.6012216  86.4557258  93.1784318  18.6477107
  79.5813518  79.6394476  21.9606453  79.2410338  78.8402289  22.3627133
  78.8752524  79.9396187  21.3883286  80.2329990  76.7243788  20.4133776
  81.0556059  76.2504267  20.2912666  80.4768053  77.5034272  20.9132462
  78.8738224  79.7532047  10.7096677  79.5946587  80.1313300  10.2060394
  78.2503528  80.4720924  10.8131655  83.0169347  80.4577196  11.6455010
  83.2332961  81.3401834  11.3443838  82.5363414  80.0663409  10.9160652
  77.7568568  83.4162909  18.2225754  77.6113149  83.7303212  19.1150036
  77.2793772  84.0347809  17.6696653  79.6164951  80.4065457  18.2706644
  79.6026520  79.5106550  17.9338942  80.3337379  80.4136121  18.9044930
  81.4691082  80.8402797  20.3159771  81.2108860  81.7619868  20.3144102
  80.9376122  80.4433232  21.0060236  86.4137271  93.9453584  13.0949857
  86.5874148  93.3800007  12.3423709  86.9066162  94.7454479  12.9129347
  72.2314230  85.9568254  21.1613416  71.6867699  86.7328061  21.2933690
  73.1093580  86.3039058  21.0032537  79.0201847  79.2879837  13.5394214
  79.1417758  78.3596484  13.7385102  78.7303890  79.3018523  12.6272530
  81.8893038  76.9734748  16.6760934  81.9114734  77.0374081  15.7212913
  82.3061097  76.1339256  16.8701440  92.2676662  86.7090007  14.7140157
  92.7107808  85.9597333  14.3159280  91.3903172  86.7000144  14.3313888
  87.4012443  93.2620349  10.1946755  88.0963348  93.8827042  10.4134070
  87.7435593  92.4115700  10.4699133  73.0180252  85.0838150  24.0543572
  72.2761988  85.2320785  24.6408203  72.6972997  85.3446415  23.1910322
  89.3003866  90.7120054  11.7234086  89.8255190  91.0507327  10.9983406
  89.2126219  89.7767070  11.5397220  80.9623915  94.6254128  23.8523962
  81.2711041  94.3803275  24.7246662  81.7599397  94.8300766  23.3642833
  80.9844527  96.7792038  16.0829339  80.5449517  96.2868416  16.7762196
  81.7352644  96.2365005  15.8421414  73.4636866  92.9703578  16.0853967
  74.2894886  92.6707350  15.7052611  73.1130918  92.2011201  16.5343756
  78.4318399  92.3230047  18.1551641  77.8098408  91.6600752  17.8553869
  79.1023266  92.3491179  17.4725288  71.6645471  90.8889905  17.0442901
  70.8277379  90.4612079  16.8626902  71.6369116  91.0822348  17.9813692
  78.5042927  80.8011835  27.7484147  78.5531082  81.6773958  27.3661916
  79.0465441  80.2589228  27.1755790  88.9897772  91.3452958  27.0285284
  88.1993316  91.3277097  26.4889783  88.7531127  91.8841252  27.7834320
  89.1095647  88.1945424  24.3418012  89.1593652  88.0295432  25.2833535
  89.0009571  87.3272683  23.9515893  77.9931906  90.8733970  11.6310101
  78.1420026  91.5569434  10.9776774  78.7998350  90.8539060  12.1459557
  86.3999410  84.1776352  25.6577319  87.3009273  84.0382817  25.3661317
  86.4747384  84.3430807  26.5975496  80.7342215  81.5543207  24.5030505
  79.8645525  81.8476773  24.2313094  80.9701695  82.1383652  25.2237769
  90.6113844  90.6142366  24.5860034  90.3198653  90.9772346  25.4223495
  89.9985976  89.9009374  24.4073366  91.8109527  88.1795246  17.1062604
  92.6456418  88.6185050  17.2700164  91.9468655  87.7033899  16.2870850
  88.8601032  85.7374981  23.0540092  89.3355154  85.9302627  22.2458943
  87.9366598  85.7934166  22.8083475  75.7484539  86.8999148  12.6371170
  75.5030581  85.9961478  12.8351380  75.9180454  86.9016298  11.6950648
  83.4381249  77.7722824  22.0195926  83.9563193  78.5083851  21.6942414
  83.0836382  78.0786817  22.8542685  75.0180187  82.6327505  10.1357332
  74.3249432  82.7071860   9.4797368  74.7731939  81.8687849  10.6578848
  83.6893843  74.1923107  17.5396822  83.9695597  73.5246296  18.1657249
  84.4744450  74.3852202  17.0271486  81.4927312  93.3682100   9.1021849
  80.9201279  93.9872288   8.6492320  82.0660105  93.9181462   9.6361771
  87.5602701  82.6140741  21.2868397  88.5120124  82.7138838  21.3080621
  87.3906152  81.8219009  21.7966482  85.5817081  79.6996324  21.4727798
  84.9867013  79.9801337  20.7774287  85.2966778  80.1890225  22.2444539
  84.7124571  93.6519251  10.2330431  85.6455245  93.5864812  10.4363306
  84.6247784  94.4875517   9.7744964  87.3412588  92.9685121   7.1934378
  87.2626220  92.6344985   8.0870136  88.1622255  93.4606889   7.1925851
  90.0390779  85.8346860  20.4010697  90.0067099  84.8962861  20.5870381
  90.6491403  85.9130897  19.6676522  81.8774110  84.7042913   6.4437901
  82.8233215  84.5749121   6.5126319  81.4988355  83.9657575   6.9207329
  90.1885268  82.6257904  20.4468980  89.6724316  81.8416360  20.2598909
  91.0725216  82.2976620  20.6115500  87.8495995  76.3698919  16.4064793
  87.6520816  76.0614007  17.2908125  88.4595700  77.0960558  16.5362723
  95.8567329  86.8962867  19.5416734  96.5870718  86.6348155  20.1024437
  95.2474275  86.1591589  19.5818802  93.9382626  85.0370730  20.1391185
  93.2115790  84.9026695  19.5307677  93.5229913  85.3447558  20.9447903
  81.7612803  88.7560659  27.9038558  82.6815812  88.9339258  28.0978605
  81.7262386  87.8116705  27.7518257  80.0617027  82.6292890   6.3792786
  79.1548483  82.3326002   6.4555500  80.3393008  82.3322708   5.5127073
  70.9794968  83.9499253  16.8291833  70.6597752  83.0964561  16.5366207
  70.4328396  84.1647831  17.5849800  74.7574875  86.6661694  20.5461339
  74.9760885  87.5978802  20.5649373  75.1700649  86.3069668  21.3316143
  81.6779093  77.1729779  12.5337028  80.8679821  76.8276864  12.9092274
  82.3663510  76.8637323  13.1224639  83.6069641  76.2507826  14.1561324
  84.1600680  76.6703280  14.8151347  83.8439728  75.3243574  14.1984280
  79.6302741  82.2394900  29.9364088  79.5299467  83.1889257  29.8676179
  79.4124283  81.9113139  29.0640158  78.8315812  79.4879825   6.5204766
  79.6934976  79.8134723   6.7800583  79.0166156  78.7011321   6.0077831
  70.8483228  87.5702165  18.7984954  70.1546699  87.1556117  18.2854909
  71.5956219  87.6122701  18.2018373  86.9848448  78.3608351  13.6639989
  86.4047117  79.0193155  13.2818041  86.7184381  77.5385696  13.2527406
  85.4352015  77.7613409  15.8661309  85.9351793  77.8729944  15.0575628
  86.0787623  77.4574462  16.5062117  79.4934011  85.6692039  28.7529150
  79.0101092  86.4692399  28.9593039  79.5794950  85.6799984  27.7996594
  72.7619970  87.5020418  16.6750969  72.7390658  87.6008106  15.7232852
  73.0720607  88.3485569  16.9968135  75.4207348  89.5596573  20.7897584
  76.3750602  89.5280516  20.7227515  75.2219872  89.0987197  21.6047810
  76.0106730  88.1297689  23.3568381  76.8299619  88.6241768  23.3803219
  76.2843538  87.2129658  23.3285949  85.7673326  80.5208442  12.7196337
  84.8799181  80.8058092  12.5016532  86.1827315  80.3602205  11.8723614
  89.1187863  80.5454963  16.4350676  89.8948253  81.0351415  16.7075293
  88.3935997  80.9713017  16.8922546  91.5560421  81.2582582  17.4924617
  92.1504912  81.0178318  16.7817925  91.6287005  80.5389712  18.1198153
  73.7757577  95.1016193  17.8067782  73.6412045  94.3416594  17.2405780
  73.3589639  95.8257093  17.3396570  84.9116540  90.2853116   6.8144357
  85.6152390  90.4903119   7.4302012  84.1879189  90.8529878   7.0793440
  85.7414350  86.0362978  12.9346627  85.6849552  86.4931529  12.0954259
  86.2942693  85.2753662  12.7569470  89.5519156  81.8252710  13.7596746
  89.2956090  81.4249345  14.5904954  88.9272024  82.5396503  13.6346886
  93.8631494  84.5648783  16.2668038  93.3031052  84.6341972  17.0399600
  93.2574997  84.3889767  15.5467534  76.9326703  95.9985510  18.0186224
  76.8159087  96.9430942  17.9164914  76.1119149  95.6959071  18.4072023
  86.8203237  90.7235646   8.8642817  87.6548841  90.2916844   8.6820292
  86.6587580  90.5517659   9.7919711  86.4749129  87.2267759  10.2299156
  86.4197933  87.0612030   9.2887600  85.8495185  87.9343792  10.3861346
  71.2641644  82.4635823  24.0560578  71.9100508  81.9534777  24.5447804
  71.0558796  83.2004505  24.6304004  83.7895037  89.5316671  29.5552719
  84.6586196  89.7057323  29.1939354  83.3101788  90.3511088  29.4328448
  79.7845255  76.7275868   9.8084475  79.7723925  77.6717708   9.9652745
  80.6768677  76.5446013   9.5143936  77.9581217  96.6513772  21.2342153
  78.8608464  96.6837382  21.5508648  77.7318587  95.7214223  21.2488488
  79.7134819  95.4044758  17.8952231  78.7630450  95.4046620  17.7816603
  80.0167305  94.6577493  17.3788266  83.5997374  73.3218645  14.0630411
  82.8329770  72.7677131  14.2087094  84.0108079  73.3940513  14.9244563
  75.6039135  79.6103440  28.1535593  76.4670597  79.2540245  28.3638917
  75.0304546  79.2717335  28.8410997  95.4487512 101.2405297  18.9597994
  96.0865922 101.1212044  18.2561334  95.3308355 102.1886141  19.0185946
  92.2577219 101.1932725  18.8959518  91.9195730 101.0773789  18.0080053
  93.1266987 100.7923890  18.8760524  88.1164034 103.0468201  14.8856409
  87.5528899 102.9558138  14.1172697  88.0016429 102.2268106  15.3658902
  92.7397002 102.3467577  24.8545724  92.7285642 101.9520375  23.9826227
  92.9017641 101.6133649  25.4479495  85.6628466 104.5419393  17.7240630
  86.4549758 104.2010217  17.3086929  85.9025116 104.6514368  18.6442783
  89.4604263 105.1304688  23.8024908  89.1694129 106.0350319  23.6871574
  90.0961247 105.1721216  24.5168977  90.3860470 102.5081537  20.3926267
  90.9824042 102.2837559  19.6783230  90.4435441 101.7666282  20.9951715
  95.0028781  98.9656751  16.0351202  95.7891870  98.5476174  15.6841619
  95.2667485  99.8702843  16.2032850 100.4037208  98.9031984  16.9384180
 101.1362380  98.3331201  17.1722010  99.6476564  98.5153584  17.3790686
  92.0213328 101.3259225  14.1347523  91.6571535 100.7989846  14.8460444
  92.8780444 100.9357694  13.9614008  97.9262628  92.6153558  21.3978789
  97.5945953  93.4848969  21.1740004  97.3308242  92.2989842  22.0772819
  91.6618815  96.3549125   9.1308871  91.8293217  97.2229361   9.4979342
  91.4715984  96.5176407   8.2070160  94.4194148 104.8166104  20.7974701
  94.1194871 105.7191143  20.6890509  94.0745207 104.5498287  21.6495854
  87.8706629 101.2679901  16.8311406  86.9457126 101.1356115  17.0389098
  88.1191043 102.0474120  17.3281348  97.8191292  97.3348644  18.4772139
  96.9108169  97.2664052  18.1830900  97.7678887  97.8120589  19.3053964
  91.6408036  98.8106782  10.1155538  91.5207661  99.2563833  10.9541018
  90.9460624  99.1592100   9.5569076  85.2315440 100.9113174  17.6655195
  85.3607822 101.1647653  18.5794607  84.5512892 101.5040882  17.3459850
  91.8932157  98.7538290  26.4207036  91.1165491  99.3132210  26.4109901
  92.5322720  99.2395073  26.9421906  99.6852938  95.5365082  20.2550013
  99.0427318  95.8297616  19.6089807  99.1807867  95.4218003  21.0603209
  90.1478530 101.5623743  25.9825003  90.8893214 102.1008787  25.7059827
  89.4415515 102.1890032  26.1396555  95.6233869 103.7052883  24.5797165
  96.0317225 103.2635294  23.8351797  94.9011131 103.1305511  24.8331357
  91.9764939  98.6425490  21.9530722  92.8226135  99.0664904  22.0965371
  91.9163577  97.9859115  22.6469285  95.9462684 104.2654074  18.3349453
  95.3171546 104.4299788  17.6325521  95.5588346 104.6795684  19.1060417
  95.1264385  96.3029859  23.6111895  94.8825317  97.0571919  23.0746171
  95.4024315  96.6815206  24.4459142  97.0802848 102.8468471  22.2889161
  97.2919743 103.4900231  21.6123542  97.0332596 102.0130788  21.8211091
  94.6829076  95.4586292  19.1925733  93.8213556  95.7567545  19.4842470
  94.7091511  95.6756690  18.2606766  91.4990646 104.0028482  15.5999539
  91.9628991 104.2816185  14.8104161  91.2347444 103.1011927  15.4172629
  88.3914727 103.5499964  18.5379302  88.9616084 103.9787232  17.8996786
  88.9822839 103.2682548  19.2363487  90.4359532 100.1251635  12.4089104
  91.1383575 100.5772678  12.8763030  90.1040160  99.4835453  13.0368997
  88.8839893  98.7163391  26.7840313  88.2538554  99.3979672  27.0175710
  88.7775981  98.6046473  25.8393451  84.1784866  98.3835187  17.7106237
  83.3883920  98.6392716  17.2346348  84.6696113  99.1983525  17.8158278
  98.1948675 105.7240426  20.4611518  99.0166119 105.3220614  20.1794200
  98.1911078 105.6208661  21.4127634  86.1299611  98.7479766  14.6689714
  85.3330775  98.8598461  15.1873210  85.9025203  99.0866419  13.8030604
  91.9605279 105.2724470  22.6172229  92.0249711 105.7344877  23.4530400
  91.2516203 104.6421835  22.7454538  82.4622569  98.6365678  20.1421228
  82.7130607  99.5212688  20.4078804  82.9982117  98.4570279  19.3696320
  88.1620636  93.0184157  29.1465564  87.7687582  92.4650356  29.8213208
  88.9786777  93.3294735  29.5372082  85.1282694 104.4568015  13.0579134
  85.6407215 105.2511265  13.2084699  85.7805407 103.7594306  12.9912735
  86.9377579 107.5733771  15.1401887  87.1144207 108.4951736  14.9522871
  87.7334412 107.2592191  15.5696267  91.0788597  94.4342036  26.7385821
  91.8198311  95.0349189  26.6590283  91.3106520  93.6919674  26.1803863
  86.2229935  99.6198403  25.0164050  86.1083450  98.7183661  25.3171149
  85.3674453  99.8662100  24.6648867  93.3021773 107.5616144  26.6151551
  92.8585627 106.7752522  26.2972455  93.9638987 107.7495294  25.9495442
  88.0608894 109.0911945  21.1412230  88.6116319 108.9629009  20.3689223
  87.2220370 109.3906834  20.7907122  95.4003011 107.8418944  24.6432952
  95.3821486 108.6627825  24.1513221  96.3222931 107.7173019  24.8683093
  91.8576065 105.3563073  25.4856461  92.3904402 104.5951361  25.2555769
  91.3290146 105.0636725  26.2280615  95.0245760  90.4623139  21.0150102
  94.6810030  91.3524781  20.9389213  95.3924723  90.2724797  20.1519687
  83.0931611 102.7856669  13.8338705  83.9306833 103.1953678  13.6172412
  83.2709878 101.8456112  13.8038898  92.5743154  95.2981451  14.5807776
  91.7184750  94.9088301  14.4013415  92.9870106  95.3773412  13.7207561
  94.1042301  92.8327794  18.9799336  93.6007096  92.7957929  18.1667141
  94.3972907  93.7420537  19.0395992  90.3485186  92.9166524  17.9865517
  91.2138183  92.7209333  17.6271407  90.4162695  92.6876876  18.9134874
  94.7782346  98.3258842  11.3482319  94.4732482  98.6404991  12.1992462
  95.7312788  98.4040262  11.3909652  98.2021624 102.6798086  18.1142319
  97.5445298 103.3697347  18.2022448  99.0062023 103.0694518  18.4576305
  87.9547505  95.1468732  15.3581884  88.5291257  94.9243913  14.6255077
  88.5418488  95.2157426  16.1110485  97.0127083 101.0342459  16.1646261
  97.5258964 101.6672451  16.6667970  97.6628307 100.4343654  15.7989621
  88.2817093  97.1773193   9.3777769  87.4454405  97.5147879   9.6987044
  88.1421862  97.0422173   8.4404906  90.2570173  92.0209981  14.0856954
  89.6034586  91.7058998  13.4613568  90.2150647  91.3985721  14.8116777
  93.4907914  98.5091914  18.4104601  92.5730475  98.7306861  18.2526289
  93.9068057  98.5838225  17.5516309  94.2742961  99.9083330  13.5407281
  95.0214780 100.4204727  13.2314404  94.5434551  99.5867383  14.4011675
  96.7221798  96.9440446  15.5226071  95.9844555  96.4317832  15.8536313
  96.9748572  96.5040828  14.7109348  96.8233426  89.7216698  16.1167840
  97.1292303  88.8614062  15.8293755  97.5486031  90.3134318  15.9166834
  83.1157782 100.1247385  14.5049438  82.9182182  99.5316746  13.7800505
  82.5604446  99.8199595  15.2225377  91.0954506 100.0170491  16.6244031
  91.1503115  99.0644328  16.5486508  90.2845708 100.1729930  17.1085330
  89.0346865  98.6347551  14.3834410  88.2214731  98.9341722  14.7899602
  89.5305860  98.2403240  15.1008892  91.1855443 108.6305308  16.3168675
  91.1431622 108.8566154  15.3877207  92.1018142 108.3968683  16.4654476
  94.6321077  99.0989376  23.2149304  94.9870465  99.3260849  24.0743770
  95.2793208  99.4307752  22.5926559  88.5260940  96.2065907  19.9995645
  89.1660320  96.0654666  19.3018608  87.6938471  95.9200420  19.6234247
 100.3888194 104.2884338  18.9309904 100.8224700 104.1959627  19.7792958
 101.1019774 104.2641839  18.2929920  89.3021244 105.5068337  16.1130637
  90.0961843 105.0118657  15.9113212  88.5912937 104.9786200  15.7498343
  94.1216089 107.8886433  20.4643005  94.1753111 108.4577369  21.2320721
  93.2530870 108.0588318  20.0997042  85.6104008  99.6511419  12.1890390
  84.6801596  99.5895874  12.4060352  85.7061480  99.1287371  11.3927031
  85.5289557  96.1766232  14.7768632  85.7896374  97.0911565  14.6677792
  86.3506729  95.7090674  14.9265245  87.0014482  97.5903989  21.9467456
  87.6737535  97.3821351  21.2980105  86.1744268  97.3926075  21.5072689
 101.2503743 104.3308039  21.4642790 101.4439633 105.2353850  21.7102065
 101.1504361 103.8715458  22.2981375  92.9040054  94.2165930  23.9633117
  92.2567969  94.9155879  23.8697594  93.6741069  94.6502074  24.3309365
  96.3118852 104.4814782  27.0383670  96.1604358 104.2525333  26.1213754
  96.3023531 105.4385383  27.0515015  93.0804188 102.0546695  22.0229937
  94.0096248 102.2057854  21.8498904  92.6595218 102.1430715  21.1678583
  91.8792520 106.0797359  19.7928474  91.7403606 105.7116143  20.6654413
  91.0907116 106.5944998  19.6212432  93.4297735 105.4578962  17.1817312
  93.0947568 105.4179732  18.0774962  92.9301681 104.7923678  16.7087723
  87.4041979 100.8646592  22.7069893  87.2661777 100.1326831  23.3081432
  88.3146903 100.7755492  22.4254081  90.0324280 100.5766551  22.1953573
  90.7423898  99.9359743  22.1540192  89.9893588 100.8279446  23.1179754
  98.0211059 107.5133904  25.1160152  97.9623605 106.8293124  24.4490735
  98.4230577 108.2552894  24.6640778  88.7453214  97.5631769  24.0149213
  88.2090571  97.1122507  24.6670809  88.1569922  97.6977678  23.2719677
  87.0401757 114.3295818  17.9093871  87.2798356 114.9614342  18.5872890
  86.1970954 113.9783858  18.1959230  98.0228466 105.4773488  23.3474132
  97.1355245 105.1399410  23.4700531  98.5927017 104.7456520  23.5842897
  79.6757613 101.8097580  16.6717183  80.3628653 101.4959310  16.0838199
  79.5205742 102.7138945  16.3984435  84.4792335  96.6987777  21.1002207
  84.3950524  96.0913446  20.3652617  83.6575042  97.1896795  21.1011703
  91.5529619 110.1374941  20.3135375  91.4799791 110.9429912  20.8254680
  91.1107012 110.3366906  19.4883397  94.6516049  95.1841340  16.4672402
  95.1484749  94.4311302  16.1473472  93.8803030  95.2205657  15.9015611
 102.5045806 100.8881706  18.1090694 102.4935683 101.7706421  17.7384627
 101.6363186 100.5353256  17.9145231  94.0128303 110.0361775  22.4693534
  94.7256275 110.6709239  22.3969435  93.5218331 110.1325641  21.6533536
  95.7345830 103.9413027  14.0410826  94.8002108 104.0614490  13.8715530
  95.9122498 103.0385494  13.7770835  91.2351018  97.3258723  16.1944087
  90.8648805  96.7729763  16.8824992  91.7310110  96.7216857  15.6419087
  99.1218381  99.7830347  14.5760860  99.5878833 100.6158338  14.5021162
  99.5725882  99.3175328  15.2806118  89.0640216 107.7856218  23.2899105
  89.7649676 108.4192701  23.4428499  88.5935331 108.1270950  22.5294744
  97.0935044  92.1510934  18.6151761  96.1798124  92.3815160  18.7833968
  97.5228145  92.2349378  19.4665793  96.8641502 100.3400826  21.1151655
  96.2112952 100.5876733  20.4604108  97.2421882  99.5264964  20.7814132
  92.9129075 101.0820637  27.6017692  92.2369712 100.9814766  28.2720067
  93.7356709 100.9259850  28.0653689  84.6607934 107.3192573  20.2230207
  85.2461371 106.5736261  20.3558112  84.4632773 107.6296530  21.1066871
  87.5146590 110.3543821  15.2392650  86.8456965 110.8389948  14.7556690
  87.3759459 110.6013041  16.1536028  79.2525589  99.8898173  18.9434650
  79.2909689  99.3561764  19.7371769  78.7465882  99.3633379  18.3245628
  91.6551858 112.3887564  21.8375308  92.2070166 112.5519186  22.6024393
  91.9958052 112.9792002  21.1655333  86.6316351  94.7362714  22.4397193
  86.6957678  95.5977545  22.0274590  86.5683472  94.1236716  21.7069551
  86.1068624  96.8085846  26.0870227  86.7340663  96.4262924  26.7007751
  85.2496543  96.5900048  26.4525920  96.5062732 107.2148822  27.6923963
  97.0502636 107.8278780  27.1978917  95.9249577 107.7728400  28.2090976
  82.8834167  98.6162276  12.0188582  83.1787608  97.7072954  11.9655636
  81.9822202  98.5950015  11.6969584  94.7920245 110.3369540  18.8238990
  94.6671385 109.5359279  18.3149936  95.4499337 110.8315733  18.3352960
  86.4128414  96.6918272  18.0016130  85.6914999  97.3054240  17.8623604
  87.2021669  97.2276037  17.9232776  96.8555154 108.1378560  20.4518540
  95.9085489 108.0183911  20.3796867  97.2037927 107.2501058  20.5344802
  89.2154727  94.0272699  24.2756782  89.7389129  94.2734995  25.0383092
  88.9967060  94.8592733  23.8559920  84.6122008  96.2976373  12.1427907
  84.2834714  95.4173752  11.9603013  84.9661379  96.2424042  13.0304296
  93.8601587 107.9331276  16.6522893  93.7126550 107.0047983  16.8330463
  94.6855081 107.9551367  16.1679968  87.7263831  96.5849343  12.5103385
  88.0659904  97.1135264  11.7881993  88.1735952  96.9229749  13.2861951
  97.4635709 108.7559835  17.7387765  98.3882256 108.5502696  17.6012216
  97.2951012 108.5076236  18.6477107  90.4207272  94.9686394  21.9606453
  90.0804093  94.1694207  22.3627133  89.7146279  95.2688105  21.3883286
  91.0723744  92.0535706  20.4133776  91.8949813  91.5796184  20.2912666
  91.3161808  92.8326190  20.9132462  89.7131979  95.0823965  10.7096677
  90.4340341  95.4605217  10.2060394  89.0897283  95.8012841  10.8131655
  93.8563101  95.7869114  11.6455010  94.0726716  96.6693751  11.3443838
  93.3757169  95.3955327  10.9160652  88.5962323  98.7454827  18.2225754
  88.4506904  99.0595130  19.1150036  88.1187526  99.3639727  17.6696653
  90.4558706  95.7357375  18.2706644  90.4420274  94.8398468  17.9338942
  91.1731134  95.7428039  18.9044930  92.3084836  96.1694715  20.3159771
  92.0502614  97.0911786  20.3144102  91.7769877  95.7725150  21.0060236
  83.0707985 101.2860171  21.1613416  82.5261453 102.0619979  21.2933690
  83.9487335 101.6330976  21.0032537  89.8595602  94.6171755  13.5394214
  89.9811513  93.6888401  13.7385102  89.5697644  94.6310441  12.6272530
  92.7286792  92.3026665  16.6760934  92.7508489  92.3665999  15.7212913
  93.1454851  91.4631174  16.8701440  83.8574007 100.4130067  24.0543572
  83.1155743 100.5612703  24.6408203  83.5366751 100.6738333  23.1910322
  91.8017669 109.9546046  23.8523962  92.1104796 109.7095192  24.7246662
  92.5993152 110.1592684  23.3642833  84.3030621 108.2995496  16.0853967
  85.1288640 107.9999268  15.7052611  83.9524673 107.5303119  16.5343756
  89.2712154 107.6521964  18.1551641  88.6492163 106.9892669  17.8553869
  89.9417021 107.6783096  17.4725288  82.5039226 106.2181823  17.0442901
  81.6671134 105.7903997  16.8626902  82.4762871 106.4114266  17.9813692
  89.3436681  96.1303752  27.7484147  89.3924837  97.0065875  27.3661916
  89.8859195  95.5881145  27.1755790  99.8291527 106.6744876  27.0285284
  99.0387071 106.6569015  26.4889783  99.5924881 107.2133169  27.7834320
  99.9489402 103.5237342  24.3418012  99.9987407 103.3587349  25.2833535
  99.8403325 102.6564601  23.9515893  97.2393164  99.5068270  25.6577319
  98.1403027  99.3674735  25.3661317  97.3141139  99.6722725  26.5975496
  91.5735970  96.8835125  24.5030505  90.7039279  97.1768691  24.2313094
  91.8095450  97.4675570  25.2237769 101.4507599 105.9434284  24.5860034
 101.1592407 106.3064264  25.4223495 100.8379730 105.2301292  24.4073366
 102.6503281 103.5087163  17.1062604 103.4850172 103.9476967  17.2700164
 102.7862410 103.0325817  16.2870850  99.6994787 101.0666898  23.0540092
 100.1748909 101.2594544  22.2458943  98.7760352 101.1226084  22.8083475
  86.5878294 102.2291065  12.6371170  86.3424336 101.3253395  12.8351380
  86.7574208 102.2308216  11.6950648  94.2775003  93.1014742  22.0195926
  94.7956947  93.8375769  21.6942414  93.9230136  93.4078735  22.8542685
  85.8573941  97.9619423  10.1357332  85.1643186  98.0363778   9.4797368
  85.6125693  97.1979767  10.6578848  94.5287598  89.5215024  17.5396822
  94.8089351  88.8538213  18.1657249  95.3138205  89.7144120  17.0271486
  98.3996456  97.9432658  21.2868397  99.3513879  98.0430756  21.3080621
  98.2299906  97.1510927  21.7966482  96.4210835  95.0288241  21.4727798
  95.8260768  95.3093254  20.7774287  96.1360532  95.5182142  22.2444539
 100.8784534 101.1638778  20.4010697 100.8460854 100.2254779  20.5870381
 101.4885157 101.2422815  19.6676522 101.0279022  97.9549821  20.4468980
 100.5118071  97.1708278  20.2598909 101.9118971  97.6268538  20.6115500
  98.6889749  91.6990837  16.4064793  98.4914570  91.3905925  17.2908125
  99.2989455  92.4252476  16.5362723 106.6961084 102.2254785  19.5416734
 107.4264472 101.9640073  20.1024437 106.0868029 101.4883507  19.5818802
 104.7776381 100.3662647  20.1391185 104.0509544 100.2318612  19.5307677
 104.3623668 100.6739476  20.9447903  92.6006557 104.0852577  27.9038558
  93.5209567 104.2631176  28.0978605  92.5656140 103.1408622  27.7518257
  81.8188722  99.2791171  16.8291833  81.4991506  98.4256479  16.5366207
  81.2722150  99.4939749  17.5849800  85.5968630 101.9953612  20.5461339
  85.8154639 102.9270720  20.5649373  86.0094404 101.6361586  21.3316143
  92.5172847  92.5021697  12.5337028  91.7073576  92.1568782  12.9092274
  93.2057264  92.1929241  13.1224639  94.4463396  91.5799744  14.1561324
  94.9994434  91.9995197  14.8151347  94.6833482  90.6535492  14.1984280
  90.4696495  97.5686817  29.9364088  90.3693222  98.5181174  29.8676179
  90.2518037  97.2405056  29.0640158  89.6709566  94.8171743   6.5204766
  90.5328730  95.1426641   6.7800583  89.8559911  94.0303238   6.0077831
  81.6876982 102.8994082  18.7984954  80.9940454 102.4848035  18.2854909
  82.4349973 102.9414619  18.2018373  97.8242203  93.6900269  13.6639989
  97.2440872  94.3485073  13.2818041  97.5578136  92.8677614  13.2527406
  96.2745769  93.0905327  15.8661309  96.7745548  93.2021861  15.0575628
  96.9181377  92.7866380  16.5062117  90.3327765 100.9983956  28.7529150
  89.8494847 101.7984316  28.9593039  90.4188704 101.0091901  27.7996594
  83.6013725 102.8312336  16.6750969  83.5784413 102.9300023  15.7232852
  83.9114361 103.6777487  16.9968135  86.2601103 104.8888491  20.7897584
  87.2144356 104.8572433  20.7227515  86.0613626 104.4279115  21.6047810
  86.8500485 103.4589607  23.3568381  87.6693374 103.9533686  23.3803219
  87.1237292 102.5421575  23.3285949  96.6067081  95.8500359  12.7196337
  95.7192936  96.1350010  12.5016532  97.0221070  95.6894123  11.8723614
  99.9581617  95.8746880  16.4350676 100.7342007  96.3643333  16.7075293
  99.2329751  96.3004935  16.8922546 102.3954176  96.5874500  17.4924617
 102.9898666  96.3470236  16.7817925 102.4680759  95.8681630  18.1198153
  84.6151331 110.4308111  17.8067782  84.4805799 109.6708511  17.2405780
  84.1983394 111.1549010  17.3396570 100.3912911  97.1544627  13.7596746
 100.1349845  96.7541263  14.5904954  99.7665779  97.8688421  13.6346886
 104.7025248  99.8940700  16.2668038 104.1424806  99.9633890  17.0399600
 104.0968752  99.7181685  15.5467534  87.7720457 111.3277428  18.0186224
  87.6552841 112.2722860  17.9164914  86.9512903 111.0250989  18.4072023
  82.1035399  97.7927741  24.0560578  82.7494263  97.2826695  24.5447804
  81.8952550  98.5296423  24.6304004  94.6288791 104.8608588  29.5552719
  95.4979951 105.0349241  29.1939354  94.1495543 105.6803005  29.4328448
  90.6239009  92.0567786   9.8084475  90.6117679  93.0009625   9.9652745
  91.5162431  91.8737931   9.5143936  88.7974971 111.9805689  21.2342153
  89.7002218 112.0129300  21.5508648  88.5712341 111.0506140  21.2488488
  90.5528573 110.7336676  17.8952231  89.6024204 110.7338538  17.7816603
  90.8561060 109.9869411  17.3788266  94.4391129  88.6510562  14.0630411
  93.6723525  88.0969049  14.2087094  94.8501834  88.7232431  14.9244563
  86.4432890  94.9395358  28.1535593  87.3064351  94.5832163  28.3638917
  85.8698301  94.6009253  28.8410997 102.7325912 114.0830207  26.4207036
 101.9559246 114.6424127  26.4109901 103.3716475 114.5686990  26.9421906
 100.9872284 116.8915661  25.9825003 101.7286969 117.4300705  25.7059827
 100.2809270 117.5181949  26.1396555 105.9658139 111.6321776  23.6111895
 105.7219071 112.3863837  23.0746171 106.2418070 112.0107124  24.4459142
  99.7233648 114.0455309  26.7840313  99.0932309 114.7271590  27.0175710
  99.6169736 113.9338390  25.8393451  93.3016323 113.9657595  20.1421228
  93.5524362 114.8504605  20.4078804  93.8375872 113.7862197  19.3696320
  99.0014391 108.3476075  29.1465564  98.6081336 107.7942273  29.8213208
  99.8180531 108.6586653  29.5372082 101.9182352 109.7633954  26.7385821
 102.6592065 110.3641107  26.6590283 102.1500275 109.0211592  26.1803863
  97.0623690 114.9490321  25.0164050  96.9477205 114.0475578  25.3171149
  96.2068207 115.1954018  24.6648867 105.8639515 105.7915057  21.0150102
 105.5203784 106.6816698  20.9389213 106.2318477 105.6016714  20.1519687
  97.8408236 112.9195906  21.9467456  98.5131290 112.7113269  21.2980105
  97.0138023 112.7217992  21.5072689 103.7433808 109.5457847  23.9633117
 103.0961724 110.2447797  23.8697594 104.5134824 109.9793991  24.3309365
  98.2435734 116.1938509  22.7069893  98.1055532 115.4618748  23.3081432
  99.1540657 116.1047409  22.4254081  99.5846968 112.8923687  24.0149213
  99.0484325 112.4414425  24.6670809  98.9963677 113.0269595  23.2719677
  95.3186090 112.0279694  21.1002207  95.2344278 111.4205364  20.3652617
  94.4968796 112.5188713  21.1011703 103.7522830 116.4112554  27.6017692
 103.0763467 116.3106684  28.2720067 104.5750464 116.2551768  28.0653689
  90.0919344 115.2190091  18.9434650  90.1303443 114.6853682  19.7371769
  89.5859636 114.6925297  18.3245628  97.4710106 110.0654632  22.4397193
  97.5351432 110.9269462  22.0274590  97.4077226 109.4528633  21.7069551
  96.9462378 112.1377764  26.0870227  97.5734417 111.7554841  26.7007751
  96.0890297 111.9191966  26.4525920 100.0548482 109.3564616  24.2756782
 100.5782883 109.6026913  25.0383092  99.8360815 110.1884651  23.8559920
 101.2601027 110.2978311  21.9606453 100.9197847 109.4986124  22.3627133
 100.5540033 110.5980022  21.3883286 101.9117499 107.3827624  20.4133776
 102.7343568 106.9088102  20.2912666 102.1555562 108.1618108  20.9132462
  93.9101739 116.6152089  21.1613416  93.3655208 117.3911897  21.2933690
  94.7881089 116.9622893  21.0032537  94.6967761 115.7421985  24.0543572
  93.9549497 115.8904620  24.6408203  94.3760506 116.0030251  23.1910322
 100.1830436 111.4595670  27.7484147 100.2318591 112.3357793  27.3661916
 100.7252950 110.9173063  27.1755790 102.4129724 112.2127043  24.5030505
 101.5433034 112.5060609  24.2313094 102.6489204 112.7967488  25.2237769
 105.1168758 108.4306659  22.0195926 105.6350702 109.1667686  21.6942414
 104.7623891 108.7370653  22.8542685 103.4400312 119.4144495  27.9038558
 104.3603321 119.5923094  28.0978605 103.4049895 118.4700540  27.7518257
 101.3090249 112.8978735  29.9364088 101.2086976 113.8473092  29.8676179
 101.0911792 112.5696974  29.0640158 101.1721520 116.3275874  28.7529150
 100.6888601 117.1276234  28.9593039 101.2582459 116.3383819  27.7996594
  92.9429153 113.1219659  24.0560578  93.5888017 112.6118613  24.5447804
  92.7346305 113.8588340  24.6304004 105.4682546 120.1900506  29.5552719
 106.3373705 120.3641158  29.1939354 104.9889297 121.0094923  29.4328448
  97.2826644 110.2687276  28.1535593  98.1458106 109.9124081  28.3638917
  96.7092055 109.9301171  28.8410997  60.2215739  33.3653946  11.5791030
  60.2104380  32.9706744  10.7071534  60.3836379  32.6320019  12.1724802
  56.9423001  36.1491058  10.5270214  56.6512867  37.0536689  10.4116881
  57.5779985  36.1907586  11.2414284  59.3750895  29.7724659  13.1452343
  58.5984229  30.3318579  13.1355207  60.0141458  30.2581442  13.6667213
  57.6297268  32.5810113  12.7070310  58.3711952  33.1195157  12.4305133
  56.9234253  33.2076401  12.8641862  63.1052607  34.7239253  11.3042471
  63.5135963  34.2821664  10.5597104  62.3829869  34.1491881  11.5576664
  65.6767413  36.7426796   7.1856825  66.4984857  36.3406983   6.9039506
  65.6729816  36.6395030   8.1372941  60.7840511  38.5802513  13.3396858
  60.3404365  37.7938892  13.0217762  61.4457724  38.7681664  12.6740748
  62.8821749  38.8605313  11.3678259  62.8640224  39.6814194  10.8758528
  63.8041669  38.7359388  11.5928400  59.3394803  36.3749443  12.2101767
  59.8723140  35.6137731  11.9801075  58.8108884  36.0823094  12.9525922
  68.7322481  35.3494409   8.1888096  68.9258371  36.2540219   8.4347371
  68.6323099  34.8901828   9.0226681  63.7937590  35.5001151  13.7628977
  63.6423096  35.2711703  12.8459061  63.7842269  36.4571753  13.7760322
  65.5029796  38.5320274  11.8405459  65.4442343  37.8479494  11.1736042
  65.9049315  39.2739264  11.3886085  65.5047204  36.4959858  10.0719439
  64.6173982  36.1585780  10.1945837  66.0745755  35.7642889  10.3088204
  61.4947041  41.0548144   9.1938840  62.2075013  41.6895609   9.1214742
  61.0037069  41.1512010   8.3778842  56.5458954  38.8042588  10.0144411
  57.2468414  39.4379071  10.1673806  56.0754069  39.1457319   9.2540051
  60.3947813  32.1007006  14.3262999  59.7188450  32.0001136  14.9965374
  61.2175447  31.9446220  14.7898996  59.1370596  43.4073934   8.5620615
  59.6888904  43.5705555   9.3269700  59.4776789  43.9978371   7.8900640
  63.9881470  38.2335191  14.4169269  64.5321374  38.8465149  13.9224224
  63.4068315  38.7914770  14.9336282  64.3373892  39.1564929   7.1763847
  63.3904227  39.0370280   7.1042174  64.6856665  38.2687427   7.2590108
  59.2836407  40.9732415  10.5769269  59.5923534  40.7281562  11.4491969
  60.0811889  41.1779054  10.0888139  67.3110265  37.6931245  13.7530590
  66.5205808  37.6755384  13.2135090  67.0743619  38.2319539  14.5079627
  67.4308140  34.5423712  11.0663319  67.4806145  34.3773719  12.0078842
  67.3222063  33.6750971  10.6761200  64.7211902  30.5254640  12.3822626
  65.6221765  30.3861104  12.0906623  64.7959877  30.6909094  13.3220803
  68.9326337  36.9620653  11.3105340  68.6411145  37.3250634  12.1468801
  68.3198468  36.2487661  11.1318673  67.1813525  32.0853268   9.7785398
  67.6567646  32.2780914   8.9704250  66.2579090  32.1412454   9.5328782
  74.1779821  33.2441154   6.2662041  74.9083210  32.9826443   6.8269744
  73.5686767  32.5069876   6.3064108  60.0825295  35.1038947  14.6283865
  61.0028304  35.2817546  14.8223911  60.0474878  34.1594992  14.4763564
  57.9515233  28.5873187  16.6609395  57.8511960  29.5367544  16.5921486
  57.7336775  28.2591426  15.7885465  57.8146503  32.0170326  15.4774456
  57.3313585  32.8170686  15.6838346  57.9007442  32.0278271  14.5241900
  62.1107529  35.8794958  16.2798026  62.9798689  36.0535610  15.9184660
  61.6314280  36.6989375  16.1573755  56.2793709  42.9992059   7.9587459
  57.1820956  43.0315669   8.2753954  56.0531079  42.0692510   7.9733795
  73.7700005  47.5883584   5.6843300  74.4078415  47.4690331   4.9806640
  73.6520848  48.5364428   5.7431252  70.5789711  47.5411012   5.6204825
  70.2408222  47.4252077   4.7325360  71.4479479  47.1402177   5.6005831
  66.4376527  49.3946488   1.6101716  65.8741392  49.3036425   0.8418004
  66.3228922  48.5746393   2.0904208  71.0609494  48.6945864  11.5791030
  71.0498135  48.2998662  10.7071534  71.2230133  47.9611936  12.1724802
  63.9840959  50.8897680   4.4485936  64.7762250  50.5488505   4.0332236
  64.2237609  50.9992655   5.3688090  72.0176085  53.0617456  -3.0783819
  71.3664065  53.6471537  -3.4649805  72.8120448  53.5923651  -3.0188782
  67.7816755  51.4782976  10.5270214  67.4906621  52.3828606  10.4116881
  68.4173739  51.5199503  11.2414284  68.7072962  48.8559824   7.1171574
  69.3036534  48.6315846   6.4028537  68.7647933  48.1144570   7.7197022
  73.3241273  45.3135038   2.7596508  74.1104362  44.8954461   2.4086925
  73.5879977  46.2181130   2.9278157  73.4951350  50.7507888  -2.5414835
  72.8597183  50.8242515  -1.8293930  73.1648757  51.3401487  -3.2195756
  78.7249700  45.2510271   3.6629487  79.4574872  44.6809488   3.8967316
  77.9689056  44.8631871   4.1035992  70.3425820  47.6737512   0.8592829
  69.9784027  47.1468133   1.5705751  71.1992936  47.2835982   0.6859315
  76.2475121  38.9631845   8.1224095  75.9158445  39.8327256   7.8985310
  75.6520734  38.6468129   8.8018126  72.7406640  51.1644391   7.5220008
  72.4407363  52.0669430   7.4135815  72.3957700  50.8976574   8.3741161
  66.1919122  47.6158188   3.5556713  65.2669618  47.4834402   3.7634404
  66.4403535  48.3952407   4.0526655  76.1403784  43.6826931   5.2017445
  75.2320661  43.6142340   4.9076206  76.0891380  44.1598876   6.0299271
  63.5527933  47.2591461   4.3900502  63.6820314  47.5125940   5.3039913
  62.8725384  47.8519169   4.0705157  67.7227420  57.9288711   0.4890976
  67.6451450  58.8796537   0.5679456  67.1189064  57.5834584   1.1465902
  70.2144650  45.1016577  13.1452343  69.4377984  45.6610497  13.1355207
  70.8535213  45.5873360  13.6667213  78.0065430  41.8843370   6.9795319
  77.3639811  42.1775903   6.3335114  77.5020359  41.7696290   7.7848516
  75.6605594  45.6306543  -2.3318821  76.5723450  45.8633930  -2.5071124
  75.1515241  46.2143587  -2.8943743  68.4691022  47.9102030  12.7070310
  69.2105706  48.4487074  12.4305133  67.7628007  48.5368319  12.8641862
  73.9446362  50.0531171  11.3042471  74.3529718  49.6113581  10.5597104
  73.2223623  49.4783798  11.5576664  70.2977432  44.9903777   8.6776028
  71.1438627  45.4143191   8.8210677  70.2376069  44.3337402   9.3714591
  74.2675176  50.6132361   5.0594760  73.6384039  50.7778075   4.3570828
  73.8800838  51.0273971   5.8305724  78.1464408  51.5486799   2.4139124
  77.4615446  51.9285701   1.8636157  78.2308258  52.1582126   3.1471072
  73.4476877  42.6508146  10.3357202  73.2037809  43.4050206   9.7991477
  73.7236808  43.0293493  11.1704449  75.4015340  49.1946758   9.0134467
  75.6132235  49.8378518   8.3368848  75.3545088  48.3609075   8.5456397
  73.0041569  41.8064579   5.9171040  72.1426048  42.1045832   6.2087777
  73.0304003  42.0234978   4.9852072  69.8203138  50.3506769   2.3244845
  70.2841484  50.6294472   1.5349468  69.5559936  49.4490214   2.1417936
  66.7127219  49.8978251   5.2624608  67.2828576  50.3265519   4.6242093
  67.3035331  49.6160836   5.9608794  67.2052386  45.0641678  13.5085620
  66.5751046  45.7457959  13.7421017  67.0988474  44.9524760  12.5638758
  62.4997358  44.7313474   4.4351544  61.7096412  44.9871003   3.9591655
  62.9908606  45.5461812   4.5403584  76.5161168  52.0718714   7.1856825
  77.3378611  51.6698901   6.9039506  76.5123571  51.9686948   8.1372941
  70.2817771  51.6202757   9.3417535  70.3462204  52.0823164  10.1775707
  69.5728695  50.9900122   9.4699845  60.7835061  44.9843965   6.8666535
  61.0343100  45.8690975   7.1324111  61.3194610  44.8048566   6.0941627
  84.6067161  48.4157462   3.5341796  83.8530869  47.8464860   3.3785801
  84.7414702  48.3820127   4.4812431  69.9965789  53.2870864  -0.7903484
  69.8611464  54.1322400  -0.3618637  70.5375601  53.4890142  -1.5537551
  66.4833128  39.3662444  15.8710871  66.0900074  38.8128643  16.5458515
  67.2999269  39.6773023  16.2617388  63.4495186  50.8046302  -0.2175559
  63.9619707  51.5989553  -0.0669995  64.1017899  50.1072593  -0.2841958
  65.2590071  53.9212059   1.8647194  65.4356699  54.8430023   1.6768178
  66.0546904  53.6070478   2.2941574  69.4001089  40.7820323  13.4631127
  70.1410803  41.3827476  13.3835590  69.6319012  40.0397961  12.9049170
  64.5442427  45.9676691  11.7409357  64.4295943  45.0661948  12.0416456
  63.6886945  46.2140387  11.3894174  71.6234265  53.9094431  13.3396858
  71.1798119  53.1230809  13.0217762  72.2851479  54.0973581  12.6740748
  66.3821386  55.4390232   7.8657536  66.9328812  55.3107296   7.0934530
  65.5432862  55.7385122   7.5152429  73.7215503  54.1897231  11.3678259
  73.7033979  55.0106112  10.8758528  74.6435423  54.0651306  11.5928400
  70.1788557  51.7041360  12.2101767  70.7116894  50.9429648  11.9801075
  69.6502639  51.4115012  12.9525922  73.3458252  36.8101426   7.7395409
  73.0022522  37.7003068   7.6634520  73.7137215  36.6203084   6.8764994
  72.4254793  39.1806081   5.7044642  71.9219588  39.1436217   4.8912448
  72.7185400  40.0898824   5.7641299  68.6697679  39.2644811   4.7110824
  69.5350675  39.0687620   4.3516713  68.7375188  39.0355163   5.6380181
  78.2842809  49.5542392  -1.8178982  77.5072252  49.2153552  -2.2623820
  78.9634290  49.5595015  -2.4924017  71.5441270  50.8327353  -0.2779421
  71.0162632  50.0980112  -0.5906183  71.0428773  51.6102029  -0.5239452
  76.5234116  49.0276373   4.8387626  75.8657791  49.7175635   4.9267754
  77.3274515  49.4172805   5.1821612  75.3339575  47.3820746   2.8891567
  75.8471457  48.0150738   3.3913277  75.9840799  46.7821941   2.5234927
  72.5961949  57.3605070  -4.3547762  71.9223648  57.6636767  -3.7462804
  72.9827771  58.1634151  -4.7042304  71.8120406  44.8570202   5.1349908
  70.8942967  45.0785149   4.9771596  72.2280549  44.9316512   4.2761615
  72.5955454  46.2561617   0.2652588  73.3427273  46.7683014  -0.0440290
  72.8647043  45.9345670   1.1256982  76.1001371  52.3626747   1.0170710
  75.6463698  51.5217657   1.0735900  75.4695338  52.9988146   1.3545490
  75.0434291  43.2918733   2.2471377  74.3057048  42.7796120   2.5781620
  75.2961064  42.8519115   1.4354654  74.5434310  54.2003244   1.9520528
  74.8357285  54.7608301   1.2332894  75.0532931  54.4931805   2.7073687
  69.4166998  46.3648779   3.3489338  69.4715608  45.4122615   3.2731814
  68.6058200  46.5208218   3.8330636  67.3559358  44.9825838   1.1079717
  66.5427223  45.2820009   1.5144909  67.8518352  44.5881527   1.8254199
  69.5067936  54.9783595   3.0413981  69.4644114  55.2044442   2.1122513
  70.4230634  54.7446970   3.1899782  72.9533569  45.4467663   9.9394611
  73.3082957  45.6739136  10.7989076  73.6005701  45.7786040   9.3171866
  78.6831306  48.5686099   0.6443940  78.5449205  48.7587695  -0.2834871
  78.3267525  49.3305481   1.1011991  66.8473432  42.5544194   6.7240952
  67.4872812  42.4132953   6.0263915  66.0150963  42.2678707   6.3479554
  78.7100686  50.6362626   5.6555211  79.1437193  50.5437915   6.5038265
  79.4232267  50.6120126   5.0175227  67.6233736  51.8546624   2.8375944
  68.4174335  51.3596944   2.6358519  66.9125429  51.3264487   2.4743650
  72.4428581  54.2364720   7.1888312  72.4965603  54.8055656   7.9566028
  71.5743362  54.4066605   6.8242349  65.3226974  43.9382276   8.6712763
  65.9950028  43.7299638   8.0225412  64.4956761  43.7404362   8.2317995
  79.5716236  50.6786326   8.1888096  79.7652126  51.5832137   8.4347371
  79.4716854  50.2193745   9.0226681  71.2252546  40.5644217  10.6878424
  70.5780461  41.2634167  10.5942900  71.9953562  40.9980361  11.0554672
  74.6331344  50.8293069  13.7628977  74.4816851  50.6003621  12.8459061
  74.6236024  51.7863670  13.7760322  71.4016681  48.4024982   8.7475243
  72.3308741  48.5536141   8.5744211  70.9807711  48.4909003   7.8923890
  70.2005012  52.4275646   6.5173781  70.0616098  52.0594431   7.3899719
  69.4119609  52.9423286   6.3457739  70.7953164  57.5284743  -2.1400682
  70.9704920  57.0572786  -1.3255060  70.1085952  58.1550509  -1.9119422
  71.7510228  51.8057249   3.9062619  71.4160060  51.7658019   4.8020269
  71.2514173  51.1401965   3.4333029  65.7254472  47.2124879   9.4315200
  65.5874269  46.4805118  10.0326739  66.6359395  47.1233779   9.1499388
  68.3536772  46.9244838   8.9198880  69.0636391  46.2838030   8.8785498
  68.3106080  47.1757733   9.8425060  76.3423551  53.8612192  11.8405459
  76.2836097  53.1771412  11.1736042  76.7443069  54.6031182  11.3886085
  67.0665706  43.9110056  10.7394519  66.5303063  43.4600795  11.3916116
  66.4782415  44.0455965   9.9964984  65.3614250  60.6774105   4.6339178
  65.6010848  61.3092630   5.3118196  64.5183446  60.3262145   4.9204537
  76.3440958  51.8251776  10.0719439  75.4567737  51.4877697  10.1945837
  76.9139509  51.0934807  10.3088204  57.9970105  48.1575867   3.3962490
  58.6841145  47.8437597   2.8083505  57.8418234  49.0617232   3.1229741
  62.8004827  43.0466064   7.8247514  62.7163016  42.4391733   7.0897924
  61.9787534  43.5375082   7.8257010  69.8742112  56.4853228   7.0380682
  69.8012283  57.2908199   7.5499986  69.4319505  56.6845194   6.2128703
  69.6631891  55.7224998   0.5483503  68.8799413  56.2646678   0.6421728
  70.3624636  56.2398978   0.9477745  72.9728541  41.5319627   3.1917709
  73.4697241  40.7789590   2.8718779  72.2015523  41.5683944   2.6260918
  80.8258299  47.2359993   4.8336000  80.8148175  48.1184708   4.4629933
  79.9575678  46.8831544   4.6390537  72.3340795  56.3840062   9.1938840
  73.0468767  57.0187527   9.1214742  71.8430824  56.4803928   8.3778842
  74.0558322  50.2891315   0.7656132  73.1214601  50.4092777   0.5960836
  74.2334990  49.3863781   0.5016142  69.5563510  43.6737010   2.9189393
  69.1861298  43.1208051   3.6070299  70.0522602  43.0695144   2.3664393
  77.4430873  46.1308634   1.3006166  77.9091325  46.9636625   1.2266469
  77.8938374  45.6653615   2.0051425  67.3852709  54.1334505  10.0144411
  68.0862168  54.7670988  10.1673806  66.9147824  54.4749237   9.2540051
  75.5107104  52.4752455  -1.7007682  75.7866948  52.3609050  -0.7913808
  74.6411603  52.0769940  -1.7395509  75.4147536  38.4989221   5.3397068
  74.5010616  38.7293448   5.5079275  75.8440638  38.5827665   6.1911100
  75.1853995  46.6879113   7.8396962  74.5325445  46.9355020   7.1849414
  75.5634374  45.8743251   7.5059439  72.1461168  56.7238806   1.9425132
  72.3283563  55.9060462   2.4052884  72.9694154  56.9406498   1.5050022
  72.4803334  55.6506991  -0.7959820  73.0091100  55.1399446  -1.4089657
  72.7431553  55.3349521   0.0685713  71.2341568  47.4298924  14.3262999
  70.5582205  47.3293053  14.9965374  72.0569201  47.2738138  14.7898996
  62.9820427  53.6670860   6.9475514  63.5673863  52.9214548   7.0803418
  62.7845265  53.9774817   7.8312178  65.8359082  56.7022108   1.9637956
  65.1669457  57.1868235   1.4801996  65.6971952  56.9491328   2.8781335
  57.5738081  46.2376461   5.6679957  57.6122181  45.7040051   6.4617075
  57.0678374  45.7111666   5.0490934  69.9764350  58.7365851   8.5620615
  70.5282658  58.8997473   9.3269700  70.3170544  59.3270289   7.8900640
  64.9528844  41.0841001   9.1642499  65.0170170  41.9455832   8.7519897
  64.8895964  40.4715003   8.4314858  64.4281116  43.1564134  12.8115534
  65.0553155  42.7741211  13.4253058  63.5709035  42.9378336  13.1771226
  74.8275225  53.5627109  14.4169269  75.3715129  54.1757067  13.9224224
  74.2462070  54.1206687  14.9336282  73.1132738  56.6847827   5.5484297
  72.9883877  55.8837567   5.0395242  73.7711829  57.1794020   5.0598267
  64.7340906  43.0396559   4.7261437  64.0127492  43.6532527   4.5868910
  65.5234162  43.5754324   4.6478083  75.1767646  54.4856847   7.1763847
  74.2297982  54.3662198   7.1042174  75.5250419  53.5979345   7.2590108
  67.5367219  40.3750986  11.0002089  68.0601621  40.6213282  11.7628398
  67.3179553  41.2071021  10.5805226  72.1814079  54.2809563   3.3768199
  72.0339042  53.3526271   3.5575769  73.0067573  54.3029654   2.8925274
  75.7848201  55.1038122   4.4633072  76.7094749  54.8980983   4.3257523
  75.6163505  54.8554523   5.3722413  68.7419765  41.3164681   8.6851759
  68.4016585  40.5172494   9.0872439  68.0358771  41.6166392   8.1128593
  69.3936236  38.4013993   7.1379082  70.2162306  37.9274472   7.0157973
  69.6374300  39.1804477   7.6377769  66.9174815  45.0933114   4.9471061
  66.7719396  45.4073417   5.8395343  66.4400019  45.7118014   4.3941960
  68.7771198  42.0835662   4.9951951  68.7632767  41.1876755   4.6584249
  69.4943626  42.0906326   5.6290237  70.6297329  42.5173002   7.0405078
  70.3715107  43.4390073   7.0389408  70.0982369  42.1203437   7.7305542
  75.5743517  55.6223789  -0.1804837  75.7480395  55.0570212  -0.9330984
  76.0672409  56.4224684  -0.3625347  61.3920477  47.6338458   7.8858722
  60.8473945  48.4098266   8.0178997  62.2699827  47.9809263   7.7277844
  81.4282909  48.3860212   1.4385463  81.8714055  47.6367537   1.0404586
  80.5509419  48.3770349   1.0559195  76.5618690  54.9390554  -3.0807938
  77.2569595  55.5597246  -2.8620624  76.9041840  54.0885905  -2.8055560
  62.1786499  46.7608355  10.7788879  61.4368235  46.9090990  11.3653509
  61.8579243  47.0216620   9.9155628  78.4610113  52.3890259  -1.5520608
  78.9861437  52.7277532  -2.2771288  78.3732466  51.4537275  -1.7357473
  70.1230162  56.3024333  10.5769269  70.4317288  56.0573480  11.4491969
  70.9205644  56.5070971  10.0888139  70.1450774  58.4562243   2.8074646
  69.7055764  57.9638621   3.5007502  70.8958891  57.9135210   2.5666721
  62.6243113  54.6473783   2.8099274  63.4501133  54.3477555   2.4297917
  62.2737165  53.8781406   3.2589062  67.5924646  54.0000252   4.8796947
  66.9704655  53.3370957   4.5799175  68.2629513  54.0261384   4.1970595
  60.8251718  52.5660110   3.7688207  59.9883626  52.1382284   3.5872209
  60.7975363  52.7592553   4.7058998  67.6649173  42.4782040  14.4729453
  67.7137329  43.3544162  14.0907223  68.2071688  41.9359433  13.9001097
  78.1504019  53.0223163  13.7530590  77.3599563  53.0047302  13.2135090
  77.9137374  53.5611457  14.5079627  78.2701894  49.8715629  11.0663319
  78.3199899  49.7065637  12.0078842  78.1615818  49.0042888  10.6761200
  67.1538153  52.5504175  -1.6444592  67.3026273  53.2339639  -2.2977919
  67.9604596  52.5309265  -1.1295136  75.5605657  45.8546557  12.3822626
  76.4615519  45.7153022  12.0906623  75.6353631  46.0201012  13.3220803
  69.8948462  43.2313412  11.2275812  69.0251771  43.5246978  10.9558401
  70.1307942  43.8153857  11.9483076  79.7720091  52.2912571  11.3105340
  79.4804899  52.6542551  12.1468801  79.1592222  51.5779579  11.1318673
  80.9715773  49.8565451   3.8307911  81.8062665  50.2955255   3.9945471
  81.1074902  49.3804104   3.0116156  78.0207279  47.4145185   9.7785398
  78.4961401  47.6072832   8.9704250  77.0972845  47.4704371   9.5328782
  72.5987496  39.4493029   8.7441232  73.1169440  40.1854056   8.4187721
  72.2442629  39.7557022   9.5787991  72.8500090  35.8693312   4.2642129
  73.1301844  35.2016501   4.8902555  73.6350697  36.0622407   3.7516793
  70.6533558  55.0452305  -4.1732845  70.0807525  55.6642493  -4.6262373
  71.2266352  55.5951667  -3.6392923  76.7208948  44.2910946   8.0113704
  77.6726371  44.3909043   8.0325928  76.5512399  43.4989214   8.5211788
  74.7423328  41.3766529   8.1973105  74.1473260  41.6571541   7.5019594
  74.4573024  41.8660430   8.9689846  73.8730818  55.3289456  -3.0424262
  74.8061491  55.2635017  -2.8391387  73.7854031  56.1645722  -3.5009730
  76.5018835  54.6455326  -6.0820315  76.4232466  54.3115190  -5.1884557
  77.3228502  55.1377094  -6.0828843  79.1997026  47.5117065   7.1256004
  79.1673346  46.5733066   7.3115688  79.8097650  47.5901102   6.3921829
  79.3491515  44.3028109   7.1714287  78.8330563  43.5186565   6.9844216
  80.2331463  43.9746825   7.3360806  77.0102241  38.0469124   3.1310100
  76.8127063  37.7384212   4.0153432  77.6201947  38.7730763   3.2608029
  85.0173576  48.5733072   6.2662041  85.7476964  48.3118360   6.8269744
  84.4080521  47.8361794   6.3064108  83.0988873  46.7140935   6.8636492
  82.3722037  46.5796900   6.2552983  82.6836160  47.0217763   7.6693210
  70.9219049  50.4330864  14.6283865  71.8422059  50.6109463  14.8223911
  70.8868632  49.4886910  14.4763564  63.9181122  48.3431899   7.2706646
  64.1367132  49.2749007   7.2894680  64.3306896  47.9839873   8.0561450
  68.7908987  43.9165105  16.6609395  68.6905714  44.8659462  16.5921486
  68.5730529  43.5883344  15.7885465  60.0089474  49.2472369   5.5230261
  59.3152946  48.8326322   5.0100215  60.7562465  49.2892906   4.9263680
  74.5958262  39.4383614   2.5906616  75.0958040  39.5500148   1.7820934
  75.2393869  39.1344667   3.2307424  68.6540257  47.3462244  15.4774456
  68.1707339  48.1462604  15.6838346  68.7401196  47.3570188  14.5241900
  61.9226217  49.1790623   3.3996276  61.8996905  49.2778311   2.4478159
  62.2326853  50.0255774   3.7213442  64.5813595  51.2366778   7.5142890
  65.5356848  51.2050721   7.4472822  64.3826118  50.7757402   8.3293116
  65.1712977  49.8067894  10.0813688  65.9905866  50.3011973  10.1048525
  65.4449785  48.8899862  10.0531255  78.2794109  42.2225168   3.1595983
  79.0554499  42.7121620   3.4320600  77.5542243  42.6483222   3.6167852
  80.7166668  42.9352787   4.2169923  81.3111159  42.6948523   3.5063232
  80.7893252  42.2159917   4.8443460  62.9363824  56.7786398   4.5313088
  62.8018292  56.0186799   3.9651086  62.5195886  57.5027298   4.0641877
  74.9020597  47.7133183  -0.3408066  74.8455798  48.1701734  -1.1800434
  75.4548939  46.9523867  -0.5185224  78.7125403  43.5022914   0.4842053
  78.4562337  43.1019550   1.3150261  78.0878271  44.2166708   0.3592192
  83.0237741  46.2418988   2.9913345  82.4637299  46.3112177   3.7644907
  82.4181244  46.0659972   2.2712841  66.0932949  57.6755715   4.7431531
  65.9765334  58.6201147   4.6410221  65.2725396  57.3729276   5.1317330
  75.9809484  52.4005851  -4.4111877  76.8155088  51.9687049  -4.5934402
  75.8193827  52.2287864  -3.4834982  75.6355376  48.9037964  -3.0455537
  75.5804180  48.7382235  -3.9867093  75.0101431  49.6113997  -2.8893348
  60.4247891  44.1406028  10.7805885  61.0706755  43.6304982  11.2693110
  60.2165042  44.8774710  11.3549310  72.9501283  51.2086876  16.2798026
  73.8192443  51.3827528  15.9184660  72.4708035  52.0281293  16.1573755
  67.1187464  58.3283977   7.9587459  68.0214710  58.3607587   8.2753954
  66.8924834  57.3984428   7.9733795  68.8741066  57.0814963   4.6197538
  67.9236697  57.0816825   4.5061910  69.1773552  56.3347698   4.1033572
  64.7645382  41.2873645  14.8780899  65.6276844  40.9310450  15.0884224
  64.1910793  40.9487540  15.5656303  84.6093759  62.9175502   5.6843300
  85.2472169  62.7982249   4.9806640  84.4914602  63.8656346   5.7431252
  81.4183465  62.8702930   5.6204825  81.0801977  62.7543994   4.7325360
  82.2873234  62.4694095   5.6005831  77.2770281  64.7238406   1.6101716
  76.7135146  64.6328343   0.8418004  77.1622676  63.9038311   2.0904208
  81.9003248  64.0237781  11.5791030  81.8891889  63.6290580  10.7071534
  82.0623888  63.2903854  12.1724802  74.8234713  66.2189598   4.4485936
  75.6156005  65.8780422   4.0332236  75.0631363  66.3284573   5.3688090
  82.8569840  68.3909374  -3.0783819  82.2057820  68.9763454  -3.4649805
  83.6514203  68.9215569  -3.0188782  76.7825467  65.4798511  -2.6796685
  77.5556343  64.9327498  -2.8183809  77.1350866  66.3442760  -2.4682223
  78.6210510  66.8074893  10.5270214  78.3300376  67.7120524  10.4116881
  79.2567494  66.8491421  11.2414284  79.5466716  64.1851742   7.1171574
  80.1430289  63.9607764   6.4028537  79.6041688  63.4436487   7.7197022
  79.1191745  61.6391177  -5.0478235  79.3717265  61.1172698  -5.8094772
  78.1816304  61.4757323  -4.9451551  84.1635028  60.6426955   2.7596508
  84.9498117  60.2246379   2.4086925  84.4273732  61.5473048   2.9278157
  84.3345105  66.0799806  -2.5414835  83.6990938  66.1534432  -1.8293930
  84.0042511  66.6693405  -3.2195756  89.5643455  60.5802189   3.6629487
  90.2968627  60.0101405   3.8967316  88.8082810  60.1923789   4.1035992
  78.8388034  63.5419283  -2.8453860  78.7224292  62.8664186  -2.1772776
  78.9490293  63.0551657  -3.6621707  81.1819574  63.0029430   0.8592829
  80.8177782  62.4760051   1.5705751  82.0386690  62.6127899   0.6859315
  87.0868875  54.2923763   8.1224095  86.7552200  55.1619174   7.8985310
  86.4914488  53.9760047   8.8018126  80.8225061  58.0319330  -4.1445822
  80.9899464  58.8999566  -3.7775351  80.6322231  58.1946612  -5.0684533
  83.5800395  66.4936309   7.5220008  83.2801118  67.3961348   7.4135815
  83.2351454  66.2268492   8.3741161  77.0312876  62.9450106   3.5556713
  76.1063373  62.8126320   3.7634404  77.2797289  63.7244325   4.0526655
  86.9797538  59.0118849   5.2017445  86.0714416  58.9434257   4.9076206
  86.9285134  59.4890794   6.0299271  80.8014282  60.4876987  -3.1599155
  80.6813908  60.9334038  -2.3213675  80.1066871  60.8362305  -3.7185617
  74.3921687  62.5883379   4.3900502  74.5214068  62.8417858   5.3039913
  73.7119138  63.1811087   4.0705157  78.5621174  73.2580629   0.4890976
  78.4845204  74.2088454   0.5679456  77.9582818  72.9126502   1.1465902
  81.0538404  60.4308495  13.1452343  80.2771738  60.9902415  13.1355207
  81.6928967  60.9165278  13.6667213  88.8459185  57.2135287   6.9795319
  88.2033565  57.5067821   6.3335114  88.3414113  57.0988208   7.7848516
  86.4999348  60.9598461  -2.3318821  87.4117205  61.1925847  -2.5071124
  85.9908996  61.5435505  -2.8943743  79.3084777  63.2393948  12.7070310
  80.0499461  63.7778992  12.4305133  78.6021762  63.8660237  12.8641862
  84.7840116  65.3823088  11.3042471  85.1923472  64.9405499  10.5597104
  84.0617378  64.8075716  11.5576664  81.1371186  60.3195695   8.6776028
  81.9832381  60.7435109   8.8210677  81.0769824  59.6629319   9.3714591
  85.1068931  65.9424279   5.0594760  84.4777793  66.1069993   4.3570828
  84.7194593  66.3565889   5.8305724  88.9858163  66.8778717   2.4139124
  88.3009201  67.2577618   1.8636157  89.0702012  67.4874043   3.1471072
  84.2870632  57.9800063  10.3357202  84.0431563  58.7342124   9.7991477
  84.5630562  58.3585411  11.1704449  86.2409094  64.5238676   9.0134467
  86.4525990  65.1670436   8.3368848  86.1938843  63.6900992   8.5456397
  83.8435323  57.1356497   5.9171040  82.9819802  57.4337750   6.2087777
  83.8697758  57.3526895   4.9852072  80.6596893  65.6798687   2.3244845
  81.1235238  65.9586390   1.5349468  80.3953691  64.7782132   2.1417936
  77.5520974  65.2270169   5.2624608  78.1222331  65.6557437   4.6242093
  78.1429086  64.9452753   5.9608794  79.5965779  61.8021839  -0.8665590
  80.2989822  62.2542883  -0.3991663  79.2646407  61.1605658  -0.2385697
  78.0446140  60.3933596  13.5085620  77.4144801  61.0749877  13.7421017
  77.9382228  60.2816678  12.5638758  73.3391113  60.0605392   4.4351544
  72.5490167  60.3162921   3.9591655  73.8302360  60.8753730   4.5403584
  87.3554922  67.4010631   7.1856825  88.1772366  66.9990819   6.9039506
  87.3517325  67.2978865   8.1372941  75.2905858  60.4249971   1.3935021
  74.4937021  60.5368666   1.9118516  75.0631450  60.7636624   0.5275911
  81.1211526  66.9494675   9.3417535  81.1855958  67.4115082  10.1775707
  80.4122450  66.3192040   9.4699845  71.6228816  60.3135883   6.8666535
  71.8736854  61.1982892   7.1324111  72.1588364  60.1340484   6.0941627
  95.4460915  63.7449380   3.5341796  94.6924624  63.1756778   3.3785801
  95.5808456  63.7112044   4.4812431  80.8359543  68.6162782  -0.7903484
  80.7005218  69.4614318  -0.3618637  81.3769356  68.8182060  -1.5537551
  77.3226883  54.6954362  15.8710871  76.9293829  54.1420560  16.5458515
  78.1393023  55.0064940  16.2617388  74.2888941  66.1338220  -0.2175559
  74.8013461  66.9281470  -0.0669995  74.9411654  65.4364511  -0.2841958
  76.0983825  69.2503976   1.8647194  76.2750454  70.1721941   1.6768178
  76.8940659  68.9362396   2.2941574  80.2394844  56.1112241  13.4631127
  80.9804557  56.7119394  13.3835590  80.4712767  55.3689879  12.9049170
  75.3836182  61.2968608  11.7409357  75.2689697  60.3953866  12.0416456
  74.5280700  61.5432305  11.3894174  82.4628020  69.2386349  13.3396858
  82.0191874  68.4522727  13.0217762  83.1245233  69.4265499  12.6740748
  77.2215141  70.7682150   7.8657536  77.7722566  70.6399214   7.0934530
  76.3826617  71.0677039   7.5152429  84.5609258  69.5189149  11.3678259
  84.5427733  70.3398030  10.8758528  85.4829178  69.3943224  11.5928400
  81.0182312  67.0333278  12.2101767  81.5510649  66.2721566  11.9801075
  80.4896393  66.7406930  12.9525922  84.1852007  52.1393344   7.7395409
  83.8416276  53.0294986   7.6634520  84.5530970  51.9495002   6.8764994
  72.2537858  64.4626874   0.5584011  73.0913080  64.8723883   0.3417719
  72.4316125  63.5226317   0.5284205  84.1502290  62.1301955  -3.7532156
  83.6348913  62.9006560  -3.5143768  83.8779598  61.4567091  -3.1299094
  81.7349401  56.9751656   1.3053082  80.8790997  56.5858506   1.1258721
  82.1476352  57.0543617   0.4452868  83.2648547  54.5097999   5.7044642
  82.7613343  54.4728134   4.8912448  83.5579154  55.4190742   5.7641299
  79.5091433  54.5936729   4.7110824  80.3744430  54.3979538   4.3516713
  79.5768942  54.3647081   5.6380181  89.1236564  64.8834310  -1.8178982
  88.3466007  64.5445469  -2.2623820  89.8028045  64.8886933  -2.4924017
  83.9388593  60.0029047  -1.9272375  83.6338728  60.3175196  -1.0762232
  84.8919035  60.0810467  -1.8845042  82.3835025  66.1619270  -0.2779421
  81.8556386  65.4272030  -0.5906183  81.8822527  66.9393947  -0.5239452
  87.3627871  64.3568291   4.8387626  86.7051545  65.0467552   4.9267754
  88.1668270  64.7464723   5.1821612  77.1153752  56.8238937   2.0827191
  77.6897504  56.6014118   1.3500384  77.7024735  56.8927631   2.8355792
  86.1733329  62.7112664   2.8891567  86.6865211  63.3442655   3.3913277
  86.8234553  62.1113859   2.5234927  77.4423339  58.8543398  -3.8976924
  76.6060652  59.1918084  -3.5767649  77.3028109  58.7192378  -4.8349787
  79.4176420  53.6980186   0.8102260  78.7640832  53.3829203   0.1858875
  79.3756894  53.0755926   1.5362083  80.5287625  63.9799481  -7.2744448
  79.6214687  63.7488734  -7.0753299  81.0258657  63.1837100  -7.0870466
  83.4355704  72.6896988  -4.3547762  82.7617402  72.9928685  -3.7462804
  83.8221526  73.4926068  -4.7042304  82.6514160  60.1862119   5.1349908
  81.7336722  60.4077066   4.9771596  83.0674304  60.2608430   4.2761615
  83.4349208  61.5853535   0.2652588  84.1821027  62.0974932  -0.0440290
  83.7040798  61.2637588   1.1256982  81.7075858  64.0812076  -2.7520458
  80.7987078  63.7971108  -2.6547988  81.7370942  64.5011154  -3.6117151
  86.9395126  67.6918665   1.0170710  86.4857453  66.8509575   1.0735900
  86.3089092  68.3280063   1.3545490  85.8828045  58.6210651   2.2471377
  85.1450802  58.1088037   2.5781620  86.1354819  58.1811033   1.4354654
  85.3828065  69.5295162   1.9520528  85.6751039  70.0900219   1.2332894
  85.8926685  69.8223723   2.7073687  85.9839673  51.3986903   2.8413147
  86.2898549  50.5384267   2.5539062  86.7092277  51.9904523   2.6412141
  72.2764029  61.8017590   1.2294745  72.0788428  61.2086950   0.5045811
  71.7210693  61.4969800   1.9470683  80.2560752  61.6940696   3.3489338
  80.3109362  60.7414533   3.2731814  79.4451954  61.8500135   3.8330636
  81.4051946  65.6220819  -5.4132379  80.9671376  64.9056678  -5.8726742
  82.1462387  65.8496934  -5.9747288  78.1953112  60.3117756   1.1079717
  77.3820978  60.6111927   1.5144909  78.6912106  59.9173445   1.8254199
  80.3461690  70.3075513   3.0413981  80.3037869  70.5336359   2.1122513
  81.2624389  70.0738887   3.1899782  83.7927324  60.7759580   9.9394611
  84.1476712  61.0031054  10.7989076  84.4399455  61.1077957   9.3171866
  89.5225061  63.8978016   0.6443940  89.3842959  64.0879612  -0.2834871
  89.1661280  64.6597399   1.1011991  77.6867187  57.8836111   6.7240952
  78.3266566  57.7424871   6.0263915  76.8544718  57.5970625   6.3479554
  89.5494440  65.9654543   5.6555211  89.9830947  65.8729832   6.5038265
  90.2626021  65.9412044   5.0175227  78.4627491  67.1838542   2.8375944
  79.2568089  66.6888862   2.6358519  77.7519183  66.6556405   2.4743650
  83.2822335  69.5656637   7.1888312  83.3359358  70.1347574   7.9566028
  82.4137117  69.7358522   6.8242349  74.7710254  61.3281624  -1.0864303
  73.8407842  61.2666079  -0.8694341  74.8667726  60.8057576  -1.8827662
  74.6895803  57.8536436   1.5013938  74.9502621  58.7681770   1.3923099
  75.5112976  57.3860879   1.6510551  76.1620729  59.2674194   8.6712763
  76.8343782  59.0591556   8.0225412  75.3350515  59.0696280   8.2317995
  90.4109990  66.0078244   8.1888096  90.6045880  66.9124054   8.4347371
  90.3110608  65.5485663   9.0226681  82.0646301  55.8936135  10.6878424
  81.4174216  56.5926084  10.5942900  82.8347316  56.3272278  11.0554672
  85.4725099  66.1584987  13.7628977  85.3210605  65.9295538  12.8459061
  85.4629778  67.1155588  13.7760322  82.2410435  63.7316899   8.7475243
  83.1702495  63.8828059   8.5744211  81.8201465  63.8200920   7.8923890
  81.0398767  67.7567564   6.5173781  80.9009853  67.3886348   7.3899719
  80.2513363  68.2715203   6.3457739  81.6346919  72.8576660  -2.1400682
  81.8098675  72.3864704  -1.3255060  80.9479707  73.4842427  -1.9119422
  82.5903982  67.1349167   3.9062619  82.2553815  67.0949937   4.8020269
  82.0907928  66.4693882   3.4333029  76.5648226  62.5416797   9.4315200
  76.4268024  61.8097035  10.0326739  77.4753149  62.4525697   9.1499388
  85.5263174  64.4805201  -5.8200321  84.9092344  63.7552029  -5.9167269
  85.0579662  65.2414561  -6.1633247  79.1930527  62.2536756   8.9198880
  79.9030145  61.6129948   8.8785498  79.1499835  62.5049651   9.8425060
  87.1817305  69.1904109  11.8405459  87.1229851  68.5063329  11.1736042
  87.5836824  69.9323099  11.3886085  77.9059461  59.2401974  10.7394519
  77.3696818  58.7892712  11.3916116  77.3176169  59.3747883   9.9964984
  76.2008004  76.0066023   4.6339178  76.4404602  76.6384547   5.3118196
  75.3577201  75.6554063   4.9204537  77.3161720  58.6990625  -6.6979017
  76.4391186  58.5779426  -7.0616770  77.7919473  57.9076704  -6.9500129
  87.1834713  67.1543693  10.0719439  86.2961491  66.8169615  10.1945837
  87.7533264  66.4226724  10.3088204  68.8363860  63.4867785   3.3962490
  69.5234900  63.1729515   2.8083505  68.6811988  64.3909150   3.1229741
  73.6398582  58.3757982   7.8247514  73.5556771  57.7683651   7.0897924
  72.8181288  58.8667000   7.8257010  80.7135866  71.8145146   7.0380682
  80.6406037  72.6200117   7.5499986  80.2713259  72.0137111   6.2128703
  80.5025646  71.0516916   0.5483503  79.7193168  71.5938596   0.6421728
  81.2018391  71.5690895   0.9477745  83.8122296  56.8611545   3.1917709
  84.3090995  56.1081507   2.8718779  83.0409277  56.8975862   2.6260918
  91.6652053  62.5651911   4.8336000  91.6541929  63.4476626   4.4629933
  90.7969433  62.2123461   4.6390537  83.1734550  71.7131980   9.1938840
  83.8862522  72.3479444   9.1214742  82.6824578  71.8095846   8.3778842
  84.8952076  65.6183232   0.7656132  83.9608355  65.7384695   0.5960836
  85.0728745  64.7155699   0.5016142  80.3957264  59.0028928   2.9189393
  80.0255052  58.4499968   3.6070299  80.8916357  58.3987062   2.3664393
  88.2824628  61.4600552   1.3006166  88.7485080  62.2928543   1.2266469
  88.7332128  60.9945533   2.0051425  78.2246463  69.4626423  10.0144411
  78.9255923  70.0962906  10.1673806  77.7541578  69.8041155   9.2540051
  86.3500859  67.8044373  -1.7007682  86.6260703  67.6900967  -0.7913808
  85.4805358  67.4061858  -1.7395509  86.2541291  53.8281139   5.3397068
  85.3404370  54.0585365   5.5079275  86.6834392  53.9119583   6.1911100
  86.0247749  62.0171031   7.8396962  85.3719199  62.2646938   7.1849414
  86.4028129  61.2035169   7.5059439  82.9854923  72.0530724   1.9425132
  83.1677317  71.2352380   2.4052884  83.8087909  72.2698416   1.5050022
  83.3197088  70.9798909  -0.7959820  83.8484855  70.4691363  -1.4089657
  83.5825308  70.6641439   0.0685713  82.0735322  62.7590842  14.3262999
  81.3975959  62.6584971  14.9965374  82.8962956  62.6030055  14.7898996
  73.8214181  68.9962778   6.9475514  74.4067618  68.2506466   7.0803418
  73.6239020  69.3066735   7.8312178  76.6752836  72.0314025   1.9637956
  76.0063212  72.5160153   1.4801996  76.5365706  72.2783246   2.8781335
  68.4131836  61.5668378   5.6679957  68.4515935  61.0331969   6.4617075
  67.9072129  61.0403584   5.0490934  80.8158105  74.0657769   8.5620615
  81.3676413  74.2289391   9.3269700  81.1564298  74.6562207   7.8900640
  75.7922598  56.4132919   9.1642499  75.8563925  57.2747750   8.7519897
  75.7289718  55.8006920   8.4314858  75.2674871  58.4856051  12.8115534
  75.8946909  58.1033129  13.4253058  74.4102790  58.2670253  13.1771226
  85.6668979  68.8919027  14.4169269  86.2108883  69.5048985  13.9224224
  85.0855824  69.4498605  14.9336282  72.0440413  60.2932480  -1.2566112
  72.3393855  59.3843159  -1.3099058  71.1428449  60.2720220  -1.5785109
  83.9526492  72.0139745   5.5484297  83.8277632  71.2129484   5.0395242
  84.6105583  72.5085938   5.0598267  75.5734660  58.3688477   4.7261437
  74.8521246  58.9824445   4.5868910  76.3627916  58.9046242   4.6478083
  86.0161401  69.8148765   7.1763847  85.0691736  69.6954116   7.1042174
  86.3644174  68.9271263   7.2590108  78.3760974  55.7042904  11.0002089
  78.8995376  55.9505200  11.7628398  78.1573307  56.5362938  10.5805226
  73.7728255  57.9746578  -1.1326786  73.4440961  57.0943957  -1.3151680
  74.1267626  57.9194247  -0.2450397  83.0207834  69.6101481   3.3768199
  82.8732796  68.6818188   3.5575769  83.8461327  69.6321572   2.8925274
  76.8870078  58.2619548  -0.7651309  77.2266151  58.7905469  -1.4872700
  77.3342199  58.5999954   0.0107258  86.6241956  70.4330040   4.4633072
  87.5488503  70.2272901   4.3257523  86.4557259  70.1846441   5.3722413
  79.5813519  56.6456599   8.6851759  79.2410339  55.8464412   9.0872439
  78.8752525  56.9458309   8.1128593  80.2329991  53.7305911   7.1379082
  81.0556060  53.2566389   7.0157973  80.4768054  54.5096395   7.6377769
  78.8738225  56.7594170  -2.5658016  79.5946588  57.1375422  -3.0694299
  78.2503529  57.4783046  -2.4623038  83.0169348  57.4639318  -1.6299684
  83.2332963  58.3463956  -1.9310855  82.5363415  57.0725532  -2.3594042
  77.7568570  60.4225032   4.9471061  77.6113150  60.7365335   5.8395343
  77.2793773  61.0409932   4.3941960  79.6164952  57.4127580   4.9951951
  79.6026521  56.5168673   4.6584249  80.3337381  57.4198243   5.6290237
  81.4691083  57.8464920   7.0405078  81.2108861  58.7681991   7.0389408
  80.9376124  57.4495354   7.7305542  86.4137272  70.9515707  -0.1804837
  86.5874149  70.3862130  -0.9330984  86.9066163  71.7516602  -0.3625347
  72.2314232  62.9630376   7.8858722  71.6867700  63.7390184   8.0178997
  73.1093582  63.3101181   7.7277844  79.0201848  56.2941960   0.2639521
  79.1417760  55.3658606   0.4630408  78.7303891  56.3080646  -0.6482164
  81.8893039  53.9796870   3.4006241  81.9114736  54.0436203   2.4458220
  82.3061098  53.1401379   3.5946747  92.2676663  63.7152130   1.4385463
  92.7107809  62.9659455   1.0404586  91.3903173  63.7062266   1.0559195
  87.4012444  70.2682471  -3.0807938  88.0963349  70.8889164  -2.8620624
  87.7435595  69.4177823  -2.8055560  73.0180254  62.0900272  10.7788879
  72.2761990  62.2382908  11.3653509  72.6972998  62.3508538   9.9155628
  89.3003868  67.7182177  -1.5520608  89.8255192  68.0569450  -2.2771288
  89.2126220  66.7829192  -1.7357473  80.9623916  71.6316251  10.5769269
  81.2711043  71.3865397  11.4491969  81.7599398  71.8362889  10.0888139
  80.9844528  73.7854160   2.8074646  80.5449519  73.2930539   3.5007502
  81.7352645  73.2427128   2.5666721  73.4636867  69.9765701   2.8099274
  74.2894887  69.6769473   2.4297917  73.1130919  69.2073324   3.2589062
  78.4318400  69.3292169   4.8796947  77.8098410  68.6662874   4.5799175
  79.1023267  69.3553301   4.1970595  71.6645472  67.8952028   3.7688207
  70.8277381  67.4674202   3.5872209  71.6369118  68.0884471   4.7058998
  78.5042928  57.8073957  14.4729453  78.5531083  58.6836080  14.0907223
  79.0465442  57.2651350  13.9001097  88.9897774  68.3515081  13.7530590
  88.1993317  68.3339219  13.2135090  88.7531128  68.8903374  14.5079627
  89.1095649  65.2007547  11.0663319  89.1593654  65.0357554  12.0078842
  89.0009572  64.3334806  10.6761200  77.9931907  67.8796093  -1.6444592
  78.1420028  68.5631557  -2.2977919  78.7998351  67.8601183  -1.1295136
  86.3999411  61.1838475  12.3822626  87.3009274  61.0444940  12.0906623
  86.4747386  61.3492930  13.3220803  80.7342216  58.5605330  11.2275812
  79.8645526  58.8538896  10.9558401  80.9701697  59.1445775  11.9483076
  90.6113845  67.6204488  11.3105340  90.3198654  67.9834469  12.1468801
  89.9985977  66.9071497  11.1318673  91.8109528  65.1857368   3.8307911
  92.6456419  65.6247172   3.9945471  91.9468657  64.7096021   3.0116156
  88.8601034  62.7437103   9.7785398  89.3355155  62.9364749   8.9704250
  87.9366599  62.7996289   9.5328782  75.7484540  63.9061270  -0.6383523
  75.5030582  63.0023600  -0.4403313  75.9180455  63.9078421  -1.5804045
  83.4381250  54.7784947   8.7441232  83.9563194  55.5145974   8.4187721
  83.0836383  55.0848940   9.5787991  75.0180188  59.6389628  -3.1397362
  74.3249433  59.7133983  -3.7957326  74.7731940  58.8749972  -2.6175845
  83.6893844  51.1985229   4.2642129  83.9695598  50.5308418   4.8902555
  84.4744451  51.3914325   3.7516793  81.4927313  70.3744223  -4.1732845
  80.9201280  70.9934410  -4.6262373  82.0660107  70.9243585  -3.6392923
  87.5602703  59.6202863   8.0113704  88.5120126  59.7200961   8.0325928
  87.3906153  58.8281132   8.5211788  85.5817082  56.7058446   8.1973105
  84.9867014  56.9863459   7.5019594  85.2966779  57.1952347   8.9689846
  84.7124573  70.6581373  -3.0424262  85.6455246  70.5926935  -2.8391387
  84.6247785  71.4937640  -3.5009730  87.3412589  69.9747244  -6.0820315
  87.2626221  69.6407107  -5.1884557  88.1622256  70.4669011  -6.0828843
  90.0390781  62.8408983   7.1256004  90.0067101  61.9024984   7.3115688
  90.6491404  62.9193020   6.3921829  81.8774111  61.7105036  -6.8316792
  82.8233216  61.5811244  -6.7628374  81.4988356  60.9719698  -6.3547364
  90.1885269  59.6320026   7.1714287  89.6724318  58.8478483   6.9844216
  91.0725218  59.3038743   7.3360806  87.8495996  53.3761042   3.1310100
  87.6520817  53.0676130   4.0153432  88.4595702  54.1022681   3.2608029
  95.8567330  63.9024990   6.2662041  96.5870719  63.6410278   6.8269744
  95.2474276  63.1653712   6.3064108  93.9382627  62.0432852   6.8636492
  93.2115791  61.9088817   6.2552983  93.5229914  62.3509681   7.6693210
  81.7612804  65.7622782  14.6283865  82.6815813  65.9401381  14.8223911
  81.7262387  64.8178827  14.4763564  80.0617029  59.6355012  -6.8961907
  79.1548484  59.3388125  -6.8199193  80.3393010  59.3384830  -7.7627621
  70.9794969  60.9561376   3.5537139  70.6597753  60.1026684   3.2611513
  70.4328397  61.1709954   4.3095107  74.7574876  63.6723817   7.2706646
  74.9760886  64.6040924   7.2894680  75.1700650  63.3131791   8.0561450
  81.6779094  54.1791902  -0.7417666  80.8679823  53.8338987  -0.3662420
  82.3663511  53.8699446  -0.1530054  83.6069643  53.2569949   0.8806631
  84.1600681  53.6765402   1.5396654  83.8439729  52.3305697   0.9229587
  79.6302742  59.2457022  16.6609395  79.5299469  60.1951379  16.5921486
  79.4124284  58.9175261  15.7885465  78.8315813  56.4941947  -6.7549928
  79.6934977  56.8196846  -6.4954110  79.0166157  55.7073443  -7.2676862
  70.8483229  64.5764287   5.5230261  70.1546700  64.1618240   5.0100215
  71.5956220  64.6184824   4.9263680  86.9848450  55.3670474   0.3885295
  86.4047119  56.0255278   0.0063348  86.7184382  54.5447819  -0.0227287
  85.4352016  54.7675532   2.5906616  85.9351794  54.8792066   1.7820934
  86.0787624  54.4636584   3.2307424  79.4934012  62.6754161  15.4774456
  79.0101094  63.4754521  15.6838346  79.5794951  62.6862106  14.5241900
  72.7619971  64.5082541   3.3996276  72.7390660  64.6070228   2.4478159
  73.0720608  65.3547692   3.7213442  75.4207349  66.5658696   7.5142890
  76.3750603  66.5342638   7.4472822  75.2219873  66.1049320   8.3293116
  76.0106731  65.1359812  10.0813688  76.8299620  65.6303891  10.1048525
  76.2843539  64.2191780  10.0531255  85.7673328  57.5270564  -0.5558357
  84.8799183  57.8120215  -0.7738162  86.1827317  57.3664328  -1.4031080
  89.1187864  57.5517085   3.1595983  89.8948254  58.0413538   3.4320600
  88.3935998  57.9775139   3.6167852  91.5560422  58.2644705   4.2169923
  92.1504913  58.0240440   3.5063232  91.6287006  57.5451835   4.8443460
  73.7757578  72.1078315   4.5313088  73.6412046  71.3478716   3.9651086
  73.3589640  72.8319215   4.0641877  84.9116541  67.2915239  -6.4610337
  85.6152391  67.4965241  -5.8452681  84.1879190  67.8592001  -6.1961253
  85.7414351  63.0425100  -0.3408066  85.6849553  63.4993652  -1.1800434
  86.2942694  62.2815785  -0.5185224  89.5519157  58.8314832   0.4842053
  89.2956092  58.4311468   1.3150261  88.9272025  59.5458626   0.3592192
  93.8631495  61.5710905   2.9913345  93.3031053  61.6404095   3.7644907
  93.2574999  61.3951890   2.2712841  76.9326704  73.0047632   4.7431531
  76.8159088  73.9493065   4.6410221  76.1119150  72.7021194   5.1317330
  86.8203239  67.7297768  -4.4111877  87.6548842  67.2978967  -4.5934402
  86.6587581  67.5579782  -3.4834982  86.4749131  64.2329881  -3.0455537
  86.4197935  64.0674153  -3.9867093  85.8495186  64.9405914  -2.8893348
  71.2641646  59.4697946  10.7805885  71.9100509  58.9596900  11.2693110
  71.0558797  60.2066628  11.3549310  83.7895038  66.5378793  16.2798026
  84.6586198  66.7119446  15.9184660  83.3101789  67.3573210  16.1573755
  79.7845256  53.7337990  -3.4670219  79.7723926  54.6779830  -3.3101948
  80.6768678  53.5508136  -3.7610758  77.9581218  73.6575894   7.9587459
  78.8608465  73.6899505   8.2753954  77.7318588  72.7276345   7.9733795
  79.7134820  72.4106881   4.6197538  78.7630451  72.4108743   4.5061910
  80.0167306  71.6639615   4.1033572  83.5997376  50.3280767   0.7875718
  82.8329771  49.7739254   0.9332400  84.0108081  50.4002636   1.6489870
  75.6039137  56.6165563  14.8780899  76.4670598  56.2602368  15.0884224
  75.0304547  56.2779458  15.5656303  95.4487514  78.2467419   5.6843300
  96.0865924  78.1274167   4.9806640  95.3308357  79.1948263   5.7431252
  92.2577220  78.1994847   5.6204825  91.9195731  78.0835912   4.7325360
  93.1266988  77.7986012   5.6005831  88.1164036  80.0530324   1.6101716
  87.5528901  79.9620261   0.8418004  88.0016431  79.2330228   2.0904208
  92.7397003  79.3529699  11.5791030  92.7285644  78.9582497  10.7071534
  92.9017642  78.6195772  12.1724802  85.6628468  81.5481515   4.4485936
  86.4549759  81.2072340   4.0332236  85.9025118  81.6576490   5.3688090
  89.4604264  82.1366811  10.5270214  89.1694130  83.0412442  10.4116881
  90.0961248  82.1783339  11.2414284  90.3860471  79.5143659   7.1171574
  90.9824043  79.2899682   6.4028537  90.4435442  78.7728405   7.7197022
  95.0028782  75.9718873   2.7596508  95.7891871  75.5538296   2.4086925
  95.2667486  76.8764965   2.9278157 100.4037209  75.9094106   3.6629487
 101.1362381  75.3393323   3.8967316  99.6476565  75.5215707   4.1035992
  92.0213329  78.3321348   0.8592829  91.6571536  77.8051969   1.5705751
  92.8780445  77.9419817   0.6859315  97.9262630  69.6215680   8.1224095
  97.5945954  70.4911091   7.8985310  97.3308243  69.3051964   8.8018126
  91.6618816  73.3611248  -4.1445822  91.8293218  74.2291484  -3.7775351
  91.4715985  73.5238529  -5.0684533  94.4194149  81.8228226   7.5220008
  94.1194872  82.7253265   7.4135815  94.0745209  81.5560410   8.3741161
  87.8706631  78.2742023   3.5556713  86.9457127  78.1418237   3.7634404
  88.1191044  79.0536243   4.0526655  97.8191293  74.3410767   5.2017445
  96.9108170  74.2726175   4.9076206  97.7678889  74.8182712   6.0299271
  91.6408037  75.8168905  -3.1599155  91.5207662  76.2625956  -2.3213675
  90.9460625  76.1654223  -3.7185617  85.2315442  77.9175297   4.3900502
  85.3607823  78.1709776   5.3039913  84.5512893  78.5103005   4.0705157
  91.8932159  75.7600412  13.1452343  91.1165493  76.3194332  13.1355207
  92.5322722  76.2457195  13.6667213  99.6852939  72.5427205   6.9795319
  99.0427320  72.8359738   6.3335114  99.1807868  72.4280125   7.7848516
  90.1478531  78.5685866  12.7070310  90.8893215  79.1070910  12.4305133
  89.4415516  79.1952154  12.8641862  95.6233871  80.7115006  11.3042471
  96.0317227  80.2697417  10.5597104  94.9011132  80.1367634  11.5576664
  91.9764941  75.6487613   8.6776028  92.8226136  76.0727026   8.8210677
  91.9163578  74.9921237   9.3714591  95.9462685  81.2716197   5.0594760
  95.3171548  81.4361911   4.3570828  95.5588347  81.6857806   5.8305724
  95.1264386  73.3091981  10.3357202  94.8825318  74.0634042   9.7991477
  95.4024317  73.6877329  11.1704449  97.0802849  79.8530594   9.0134467
  97.2919744  80.4962353   8.3368848  97.0332597  79.0192910   8.5456397
  94.6829078  72.4648414   5.9171040  93.8213557  72.7629668   6.2087777
  94.7091512  72.6818813   4.9852072  91.4990647  81.0090605   2.3244845
  91.9628993  81.2878308   1.5349468  91.2347445  80.1074049   2.1417936
  88.3914728  80.5562086   5.2624608  88.9616085  80.9849355   4.6242093
  88.9822840  80.2744671   5.9608794  90.4359533  77.1313757  -0.8665590
  91.1383577  77.5834801  -0.3991663  90.1040162  76.4897576  -0.2385697
  88.8839895  75.7225514  13.5085620  88.2538555  76.4041795  13.7421017
  88.7775983  75.6108595  12.5638758  84.1784867  75.3897310   4.4351544
  83.3883921  75.6454838   3.9591655  84.6696115  76.2045648   4.5403584
  98.1948677  82.7302549   7.1856825  99.0166120  82.3282736   6.9039506
  98.1911080  82.6270783   8.1372941  86.1299613  75.7541889   1.3935021
  85.3330776  75.8660583   1.9118516  85.9025205  76.0928541   0.5275911
  91.9605280  82.2786592   9.3417535  92.0249713  82.7406999  10.1775707
  91.2516204  81.6483957   9.4699845  82.4622570  75.6427800   6.8666535
  82.7130609  76.5274810   7.1324111  82.9982119  75.4632402   6.0941627
  88.1620637  70.0246280  15.8710871  87.7687583  69.4712478  16.5458515
  88.9786778  70.3356858  16.2617388  85.1282695  81.4630138  -0.2175559
  85.6407216  82.2573388  -0.0669995  85.7805408  80.7656428  -0.2841958
  86.9377580  84.5795894   1.8647194  87.1144208  85.5013859   1.6768178
  87.7334413  84.2654313   2.2941574  91.0788598  71.4404159  13.4631127
  91.8198312  72.0411312  13.3835590  91.3106521  70.6981796  12.9049170
  86.2229936  76.6260526  11.7409357  86.1083452  75.7245783  12.0416456
  85.3674454  76.8724223  11.3894174  93.3021774  84.5678266  13.3396858
  92.8585628  83.7814645  13.0217762  93.9638988  84.7557417  12.6740748
  88.0608895  86.0974068   7.8657536  88.6116321  85.9691131   7.0934530
  87.2220371  86.3968957   7.5152429  95.4003012  84.8481066  11.3678259
  95.3821488  85.6689947  10.8758528  96.3222932  84.7235141  11.5928400
  91.8576066  82.3625196  12.2101767  92.3904403  81.6013484  11.9801075
  91.3290148  82.0698847  12.9525922  95.0245761  67.4685262   7.7395409
  94.6810031  68.3586903   7.6634520  95.3924724  67.2786919   6.8764994
  83.0931612  79.7918792   0.5584011  83.9306834  80.2015800   0.3417719
  83.2709880  78.8518234   0.5284205  92.5743155  72.3043574   1.3053082
  91.7184751  71.9150424   1.1258721  92.9870107  72.3835534   0.4452868
  94.1042302  69.8389917   5.7044642  93.6007097  69.8020052   4.8912448
  94.3972909  70.7482660   5.7641299  90.3485188  69.9228647   4.7110824
  91.2138184  69.7271455   4.3516713  90.4162697  69.6938998   5.6380181
  94.7782347  75.3320965  -1.9272375  94.4732483  75.6467114  -1.0762232
  95.7312789  75.4102385  -1.8845042  98.2021625  79.6860209   4.8387626
  97.5445300  80.3759470   4.9267754  99.0062024  80.0756641   5.1821612
  87.9547507  72.1530854   2.0827191  88.5291259  71.9306036   1.3500384
  88.5418489  72.2219549   2.8355792  97.0127084  78.0404581   2.8891567
  97.5258966  78.6734573   3.3913277  97.6628308  77.4405777   2.5234927
  88.2817094  74.1835315  -3.8976924  87.4454406  74.5210002  -3.5767649
  88.1421864  74.0484295  -4.8349787  90.2570174  69.0272103   0.8102260
  89.6034587  68.7121121   0.1858875  90.2150649  68.4047844   1.5362083
  93.4907915  75.5154037   5.1349908  92.5730476  75.7368984   4.9771596
  93.9068058  75.5900347   4.2761615  94.2742963  76.9145453   0.2652588
  95.0214782  77.4266850  -0.0440290  94.5434552  76.5929505   1.1256982
  96.7221800  73.9502569   2.2471377  95.9844557  73.4379955   2.5781620
  96.9748573  73.5102950   1.4354654  96.8233427  66.7278821   2.8413147
  97.1292304  65.8676184   2.5539062  97.5486032  67.3196441   2.6412141
  83.1157783  77.1309507   1.2294745  82.9182183  76.5378868   0.5045811
  82.5604447  76.8261718   1.9470683  91.0954507  77.0232614   3.3489338
  91.1503117  76.0706450   3.2731814  90.2845709  77.1792053   3.8330636
  89.0346867  75.6409674   1.1079717  88.2214732  75.9403844   1.5144909
  89.5305861  75.2465362   1.8254199  91.1855445  85.6367431   3.0413981
  91.1431623  85.8628277   2.1122513  92.1018143  85.4030805   3.1899782
  94.6321078  76.1051498   9.9394611  94.9870466  76.3322971  10.7989076
  95.2793210  76.4369875   9.3171866  88.5260941  73.2128029   6.7240952
  89.1660321  73.0716788   6.0263915  87.6938472  72.9262543   6.3479554
 100.3888195  81.2946461   5.6555211 100.8224702  81.2021750   6.5038265
 101.1019776  81.2703961   5.0175227  89.3021245  82.5130460   2.8375944
  90.0961844  82.0180780   2.6358519  88.5912938  81.9848323   2.4743650
  94.1216090  84.8948555   7.1888312  94.1753112  85.4639491   7.9566028
  93.2530871  85.0650440   6.8242349  85.6104009  76.6573541  -1.0864303
  84.6801597  76.5957997  -0.8694341  85.7061481  76.1349494  -1.8827662
  85.5289558  73.1828354   1.5013938  85.7896375  74.0973687   1.3923099
  86.3506730  72.7152797   1.6510551  87.0014483  74.5966111   8.6712763
  87.6737537  74.3883473   8.0225412  86.1744270  74.3988197   8.2317995
 101.2503745  81.3370162   8.1888096 101.4439635  82.2415972   8.4347371
 101.1504363  80.8777581   9.0226681  92.9040055  71.2228052  10.6878424
  92.2567970  71.9218002  10.5942900  93.6741071  71.6564196  11.0554672
  96.3118853  81.4876904  13.7628977  96.1604360  81.2587456  12.8459061
  96.3023533  82.4447506  13.7760322  93.0804190  79.0608817   8.7475243
  94.0096250  79.2119977   8.5744211  92.6595220  79.1492838   7.8923890
  91.8792521  83.0859482   6.5173781  91.7403607  82.7178266   7.3899719
  91.0907118  83.6007121   6.3457739  93.4297737  82.4641084   3.9062619
  93.0947569  82.4241854   4.8020269  92.9301682  81.7985800   3.4333029
  87.4041980  77.8708714   9.4315200  87.2661778  77.1388953  10.0326739
  88.3146904  77.7817614   9.1499388  90.0324281  77.5828674   8.9198880
  90.7423900  76.9421866   8.8785498  89.9893589  77.8341568   9.8425060
  98.0211060  84.5196027  11.8405459  97.9623606  83.8355247  11.1736042
  98.4230578  85.2615017  11.3886085  88.7453215  74.5693891  10.7394519
  88.2090572  74.1184630  11.3916116  88.1569924  74.7039800   9.9964984
  87.0401759  91.3357941   4.6339178  87.2798357  91.9676465   5.3118196
  86.1970955  90.9845981   4.9204537  98.0228467  82.4835611  10.0719439
  97.1355246  82.1461533  10.1945837  98.5927018  81.7518642  10.3088204
  79.6757614  78.8159703   3.3962490  80.3628654  78.5021433   2.8083505
  79.5205743  79.7201067   3.1229741  84.4792336  73.7049899   7.8247514
  84.3950525  73.0975569   7.0897924  83.6575043  74.1958917   7.8257010
  91.5529621  87.1437063   7.0380682  91.4799792  87.9492035   7.5499986
  91.1107014  87.3429029   6.2128703  94.6516050  72.1903463   3.1917709
  95.1484750  71.4373425   2.8718779  93.8803032  72.2267779   2.6260918
 102.5045808  77.8943828   4.8336000 102.4935684  78.7768544   4.4629933
 101.6363187  77.5415379   4.6390537  94.0128304  87.0423897   9.1938840
  94.7256276  87.6771362   9.1214742  93.5218333  87.1387763   8.3778842
  95.7345831  80.9475150   0.7656132  94.8002110  81.0676612   0.5960836
  95.9122499  80.0447617   0.5016142  91.2351019  74.3320846   2.9189393
  90.8648807  73.7791886   3.6070299  91.7310111  73.7278979   2.3664393
  99.1218382  76.7892469   1.3006166  99.5878834  77.6220461   1.2266469
  99.5725883  76.3237451   2.0051425  89.0640218  84.7918341  10.0144411
  89.7649677  85.4254824  10.1673806  88.5935333  85.1333072   9.2540051
  97.0935045  69.1573056   5.3397068  96.1798125  69.3877283   5.5079275
  97.5228146  69.2411500   6.1911100  96.8641504  77.3462948   7.8396962
  96.2112954  77.5938856   7.1849414  97.2421883  76.5327086   7.5059439
  92.9129077  78.0882759  14.3262999  92.2369714  77.9876889  14.9965374
  93.7356710  77.9321973  14.7898996  84.6607936  84.3254696   6.9475514
  85.2461372  83.5798384   7.0803418  84.4632774  84.6358652   7.8312178
  87.5146591  87.3605943   1.9637956  86.8456966  87.8452071   1.4801996
  87.3759461  87.6075164   2.8781335  79.2525590  76.8960296   5.6679957
  79.2909690  76.3623887   6.4617075  78.7465883  76.3695501   5.0490934
  91.6551859  89.3949687   8.5620615  92.2070167  89.5581308   9.3269700
  91.9958053  89.9854125   7.8900640  86.6316353  71.7424836   9.1642499
  86.6957679  72.6039667   8.7519897  86.5683473  71.1298838   8.4314858
  86.1068625  73.8147969  12.8115534  86.7340664  73.4325046  13.4253058
  85.2496544  73.5962171  13.1771226  96.5062734  84.2210944  14.4169269
  97.0502638  84.8340902  13.9224224  95.9249579  84.7790523  14.9336282
  82.8834168  75.6224398  -1.2566112  83.1787609  74.7135077  -1.3099058
  81.9822204  75.6012138  -1.5785109  94.7920247  87.3431662   5.5484297
  94.6671386  86.5421402   5.0395242  95.4499338  87.8377856   5.0598267
  86.4128415  73.6980395   4.7261437  85.6915001  74.3116362   4.5868910
  87.2021671  74.2338160   4.6478083  96.8555155  85.1440682   7.1763847
  95.9085491  85.0246033   7.1042174  97.2037928  84.2563180   7.2590108
  89.2154728  71.0334821  11.0002089  89.7389130  71.2797118  11.7628398
  88.9967062  71.8654856  10.5805226  84.6122010  73.3038496  -1.1326786
  84.2834716  72.4235875  -1.3151680  84.9661380  73.2486164  -0.2450397
  93.8601588  84.9393399   3.3768199  93.7126551  84.0110106   3.5575769
  94.6855082  84.9613489   2.8925274  87.7263833  73.5911466  -0.7651309
  88.0659905  74.1197387  -1.4872700  88.1735953  73.9291872   0.0107258
  97.4635710  85.7621957   4.4633072  98.3882258  85.5564819   4.3257523
  97.2951014  85.5138358   5.3722413  90.4207273  71.9748516   8.6851759
  90.0804094  71.1756329   9.0872439  89.7146280  72.2750227   8.1128593
  91.0723745  69.0597829   7.1379082  91.8949815  68.5858307   7.0157973
  91.3161809  69.8388313   7.6377769  89.7131980  72.0886087  -2.5658016
  90.4340342  72.4667340  -3.0694299  89.0897284  72.8074964  -2.4623038
  93.8563103  72.7931236  -1.6299684  94.0726717  73.6755874  -1.9310855
  93.3757170  72.4017450  -2.3594042  88.5962324  75.7516949   4.9471061
  88.4506905  76.0657252   5.8395343  88.1187528  76.3701850   4.3941960
  90.4558707  72.7419497   4.9951951  90.4420276  71.8460591   4.6584249
  91.1731135  72.7490161   5.6290237  92.3084838  73.1756838   7.0405078
  92.0502615  74.0973908   7.0389408  91.7769878  72.7787272   7.7305542
  83.0707986  78.2922294   7.8858722  82.5261454  79.0682102   8.0178997
  83.9487336  78.6393098   7.7277844  89.8595603  71.6233878   0.2639521
  89.9811514  70.6950524   0.4630408  89.5697645  71.6372564  -0.6482164
  92.7286793  69.3088788   3.4006241  92.7508490  69.3728121   2.4458220
  93.1454852  68.4693297   3.5946747  83.8574008  77.4192190  10.7788879
  83.1155744  77.5674825  11.3653509  83.5366752  77.6800456   9.9155628
  91.8017671  86.9608168  10.5769269  92.1104797  86.7157315  11.4491969
  92.5993153  87.1654807  10.0888139  84.3030622  85.3057619   2.8099274
  85.1288642  85.0061391   2.4297917  83.9524674  84.5365241   3.2589062
  89.2712155  84.6584087   4.8796947  88.6492164  83.9954792   4.5799175
  89.9417022  84.6845219   4.1970595  82.5039227  83.2243945   3.7688207
  81.6671135  82.7966120   3.5872209  82.4762872  83.4176389   4.7058998
  89.3436682  73.1365875  14.4729453  89.3924838  74.0127998  14.0907223
  89.8859197  72.5943268  13.9001097  99.8291528  83.6806998  13.7530590
  99.0387072  83.6631137  13.2135090  99.5924883  84.2195292  14.5079627
  99.9489403  80.5299465  11.0663319  99.9987408  80.3649472  12.0078842
  99.8403327  79.6626724  10.6761200  97.2393166  76.5130393  12.3822626
  98.1403028  76.3736858  12.0906623  97.3141140  76.6784848  13.3220803
  91.5735971  73.8897247  11.2275812  90.7039280  74.1830813  10.9558401
  91.8095451  74.4737692  11.9483076 101.4507600  82.9496406  11.3105340
 101.1592408  83.3126387  12.1468801 100.8379731  82.2363414  11.1318673
 102.6503282  80.5149286   3.8307911 103.4850174  80.9539090   3.9945471
 102.7862411  80.0387939   3.0116156  99.6994788  78.0729021   9.7785398
 100.1748910  78.2656667   8.9704250  98.7760354  78.1288207   9.5328782
  86.5878295  79.2353188  -0.6383523  86.3424337  78.3315518  -0.4403313
  86.7574209  79.2370338  -1.5804045  94.2775005  70.1076864   8.7441232
  94.7956949  70.8437891   8.4187721  93.9230137  70.4140858   9.5787991
  85.8573942  74.9681546  -3.1397362  85.1643187  75.0425901  -3.7957326
  85.6125694  74.2041889  -2.6175845  94.5287599  66.5277147   4.2642129
  94.8089353  65.8600336   4.8902555  95.3138206  66.7206242   3.7516793
  98.3996457  74.9494781   8.0113704  99.3513880  75.0492879   8.0325928
  98.2299908  74.1573049   8.5211788  96.4210837  72.0350364   8.1973105
  95.8260769  72.3155377   7.5019594  96.1360533  72.5244265   8.9689846
 100.8784535  78.1700901   7.1256004 100.8460855  77.2316901   7.3115688
 101.4885159  78.2484937   6.3921829 101.0279023  74.9611944   7.1714287
 100.5118072  74.1770401   6.9844216 101.9118972  74.6330661   7.3360806
  98.6889750  68.7052960   3.1310100  98.4914572  68.3968048   4.0153432
  99.2989456  69.4314598   3.2608029 106.6961085  79.2316907   6.2662041
 107.4264473  78.9702196   6.8269744 106.0868030  78.4945629   6.3064108
 104.7776382  77.3724770   6.8636492 104.0509546  77.2380735   6.2552983
 104.3623669  77.6801599   7.6693210  92.6006558  81.0914700  14.6283865
  93.5209568  81.2693299  14.8223911  92.5656141  80.1470745  14.4763564
  81.8188723  76.2853293   3.5537139  81.4991508  75.4318602   3.2611513
  81.2722152  76.5001871   4.3095107  85.5968631  79.0015734   7.2706646
  85.8154641  79.9332842   7.2894680  86.0094405  78.6423709   8.0561450
  92.5172849  69.5083820  -0.7417666  91.7073577  69.1630905  -0.3662420
  93.2057266  69.1991363  -0.1530054  94.4463397  68.5861866   0.8806631
  94.9994436  69.0057320   1.5396654  94.6833483  67.6597615   0.9229587
  90.4696496  74.5748940  16.6609395  90.3693223  75.5243297  16.5921486
  90.2518038  74.2467179  15.7885465  89.6709568  71.8233865  -6.7549928
  90.5328732  72.1488763  -6.4954110  89.8559912  71.0365361  -7.2676862
  81.6876983  79.9056205   5.5230261  80.9940455  79.4910158   5.0100215
  82.4349974  79.9476741   4.9263680  97.8242204  70.6962392   0.3885295
  97.2440873  71.3547196   0.0063348  97.5578137  69.8739736  -0.0227287
  96.2745770  70.0967449   2.5906616  96.7745549  70.2083984   1.7820934
  96.9181378  69.7928502   3.2307424  90.3327766  78.0046079  15.4774456
  89.8494848  78.8046439  15.6838346  90.4188705  78.0154024  14.5241900
  83.6013726  79.8374459   3.3996276  83.5784414  79.9362146   2.4478159
  83.9114362  80.6839609   3.7213442  86.2601104  81.8950614   7.5142890
  87.2144357  81.8634556   7.4472822  86.0613627  81.4341237   8.3293116
  86.8500486  80.4651730  10.0813688  87.6693375  80.9595808  10.1048525
  87.1237294  79.5483698  10.0531255  96.6067082  72.8562482  -0.5558357
  95.7192937  73.1412133  -0.7738162  97.0221071  72.6956245  -1.4031080
  99.9581618  72.8809003   3.1595983 100.7342008  73.3705455   3.4320600
  99.2329752  73.3067057   3.6167852 102.3954177  73.5936622   4.2169923
 102.9898668  73.3532358   3.5063232 102.4680761  72.8743753   4.8443460
  84.6151333  87.4370233   4.5313088  84.4805801  86.6770634   3.9651086
  84.1983395  88.1611133   4.0641877 100.3912912  74.1606750   0.4842053
 100.1349846  73.7603385   1.3150261  99.7665780  74.8750544   0.3592192
 104.7025250  76.9002823   2.9913345 104.1424808  76.9696012   3.7644907
 104.0968753  76.7243808   2.2712841  87.7720458  88.3339550   4.7431531
  87.6552843  89.2784983   4.6410221  86.9512905  88.0313112   5.1317330
  82.1035400  74.7989864  10.7805885  82.7494264  74.2888818  11.2693110
  81.8952551  75.5358545  11.3549310  94.6288792  81.8670711  16.2798026
  95.4979952  82.0411363  15.9184660  94.1495544  82.6865128  16.1573755
  90.6239011  69.0629908  -3.4670219  90.6117680  70.0071748  -3.3101948
  91.5162433  68.8800054  -3.7610758  88.7974973  88.9867812   7.9587459
  89.7002219  89.0191422   8.2753954  88.5712343  88.0568263   7.9733795
  90.5528575  87.7398799   4.6197538  89.6024206  87.7400660   4.5061910
  90.8561061  86.9931533   4.1033572  94.4391130  65.6572685   0.7875718
  93.6723526  65.1031172   0.9332400  94.8501835  65.7294554   1.6489870
  86.4432891  71.9457481  14.8780899  87.3064353  71.5894285  15.0884224
  85.8698302  71.6071375  15.5656303 102.7325913  91.0892330  13.1452343
 101.9559247  91.6486250  13.1355207 103.3716476  91.5749113  13.6667213
 100.9872285  93.8977783  12.7070310 101.7286970  94.4362827  12.4305133
 100.2809271  94.5244072  12.8641862 105.9658141  88.6383899  10.3357202
 105.7219072  89.3925959   9.7991477 106.2418071  89.0169246  11.1704449
  99.7233649  91.0517431  13.5085620  99.0932310  91.7333712  13.7421017
  99.6169737  90.9400513  12.5638758  93.3016325  90.9719718   6.8666535
  93.5524363  91.8566728   7.1324111  93.8375873  90.7924319   6.0941627
  99.0014392  85.3538197  15.8710871  98.6081338  84.8004396  16.5458515
  99.8180532  85.6648776  16.2617388 101.9182353  86.7696076  13.4631127
 102.6592066  87.3703229  13.3835590 102.1500276  86.0273714  12.9049170
  97.0623691  91.9552444  11.7409357  96.9477206  91.0537701  12.0416456
  96.2068209  92.2016140  11.3894174 105.8639516  82.7977179   7.7395409
 105.5203785  83.6878821   7.6634520 106.2318478  82.6078837   6.8764994
  97.8408238  89.9258029   8.6712763  98.5131291  89.7175391   8.0225412
  97.0138024  89.7280115   8.2317995 103.7433810  86.5519970  10.6878424
 103.0961725  87.2509920  10.5942900 104.5134825  86.9856114  11.0554672
  98.2435735  93.2000632   9.4315200  98.1055533  92.4680871  10.0326739
  99.1540658  93.1109532   9.1499388  99.5846970  89.8985809  10.7394519
  99.0484327  89.4476548  11.3916116  98.9963678  90.0331718   9.9964984
  95.3186091  89.0341817   7.8247514  95.2344280  88.4267486   7.0897924
  94.4968797  89.5250835   7.8257010 103.7522831  93.4174677  14.3262999
 103.0763468  93.3168806  14.9965374 104.5750465  93.2613891  14.7898996
  90.0919345  92.2252214   5.6679957  90.1303444  91.6915804   6.4617075
  89.5859638  91.6987419   5.0490934  97.4710107  87.0716754   9.1642499
  97.5351434  87.9331585   8.7519897  97.4077227  86.4590756   8.4314858
  96.9462380  89.1439887  12.8115534  97.5734418  88.7616964  13.4253058
  96.0890299  88.9254089  13.1771226 100.0548483  86.3626739  11.0002089
 100.5782885  86.6089035  11.7628398  99.8360816  87.1946774  10.5805226
 101.2601028  87.3040434   8.6851759 100.9197848  86.5048247   9.0872439
 100.5540034  87.6042145   8.1128593 101.9117500  84.3889746   7.1379082
 102.7343569  83.9150225   7.0157973 102.1555563  85.1680230   7.6377769
  93.9101741  93.6214211   7.8858722  93.3655209  94.3974019   8.0178997
  94.7881091  93.9685016   7.7277844  94.6967763  92.7484108  10.7788879
  93.9549499  92.8966743  11.3653509  94.3760507  93.0092373   9.9155628
 100.1830437  88.4657793  14.4729453 100.2318592  89.3419915  14.0907223
 100.7252951  87.9235186  13.9001097 102.4129725  89.2189165  11.2275812
 101.5433035  89.5122731  10.9558401 102.6489206  89.8029610  11.9483076
 105.1168759  85.4368782   8.7441232 105.6350703  86.1729809   8.4187721
 104.7623892  85.7432775   9.5787991 103.4400313  96.4206617  14.6283865
 104.3603322  96.5985216  14.8223911 103.4049896  95.4762663  14.4763564
 101.3090251  89.9040858  16.6609395 101.2086978  90.8535215  16.5921486
 101.0911793  89.5759097  15.7885465 101.1721521  93.3337997  15.4774456
 100.6888603  94.1338357  15.6838346 101.2582460  93.3445941  14.5241900
  92.9429155  90.1281781  10.7805885  93.5888018  89.6180735  11.2693110
  92.7346306  90.8650463  11.3549310 105.4682547  97.1962629  16.2798026
 106.3373706  97.3703281  15.9184660 104.9889298  98.0157046  16.1573755
  97.2826646  87.2749398  14.8780899  98.1458107  86.9186203  15.0884224
  96.7092056  86.9363293  15.5656303  81.9003250  41.0299904  -1.6963663
  81.8891890  40.6352702  -2.5683159  82.0623889  40.2965977  -1.1029891
  78.6210511  43.8137016  -2.7484479  78.3300377  44.7182647  -2.8637813
  79.2567495  43.8553543  -2.0340409  81.0538405  37.4370617  -0.1302351
  80.2771740  37.9964537  -0.1399486  81.6928969  37.9227400   0.3912519
  79.3084778  40.2456070  -0.5684384  80.0499462  40.7841114  -0.8449560
  78.6021763  40.8722359  -0.4112832  84.7840117  42.3885211  -1.9712222
  85.1923473  41.9467621  -2.7157590  84.0617379  41.8137838  -1.7178029
  87.3554923  44.4072754  -6.0897869  88.1772367  44.0052941  -6.3715187
  87.3517326  44.3040988  -5.1381753  82.4628021  46.2448471   0.0642164
  82.0191875  45.4584850  -0.2536931  83.1245235  46.4327622  -0.6013945
  84.5609259  46.5251271  -1.9076434  84.5427734  47.3460152  -2.3996165
  85.4829179  46.4005346  -1.6826293  81.0182313  44.0395401  -1.0652926
  81.5510650  43.2783689  -1.2953618  80.4896394  43.7469052  -0.3228772
  90.4109991  43.0140367  -5.0866597  90.6045881  43.9186177  -4.8407322
  90.3110609  42.5547786  -4.2528012  85.4725100  43.1647109   0.4874284
  85.3210606  42.9357661  -0.4295633  85.4629779  44.1217711   0.5005629
  87.1817307  46.1966232  -1.4349234  87.1229853  45.5125452  -2.1018651
  87.5836825  46.9385222  -1.8868608  87.1834714  44.1605816  -3.2035255
  86.2961493  43.8231738  -3.0808856  87.7533265  43.4288847  -2.9666489
  83.1734551  48.7194102  -4.0815853  83.8862523  49.3541567  -4.1539951
  82.6824579  48.8157968  -4.8975851  78.2246464  46.4688546  -3.2610282
  78.9255924  47.1025029  -3.1080888  77.7541579  46.8103277  -4.0214643
  82.0735323  39.7652964   1.0508305  81.3975960  39.6647093   1.7210681
  82.8962957  39.6092178   1.5144303  80.8158106  51.0719892  -4.7134079
  81.3676414  51.2351513  -3.9484993  81.1564300  51.6624329  -5.3854054
  85.6668981  45.8981149   1.1414576  86.2108884  46.5111107   0.6469531
  85.0855825  46.4560728   1.6581589  86.0161402  46.8210887  -6.0990846
  85.0691737  46.7016238  -6.1712520  86.3644175  45.9333385  -6.0164585
  80.9623918  48.6378373  -2.6985424  81.2711044  48.3927520  -1.8262725
  81.7599400  48.8425012  -3.1866554  88.9897775  45.3577203   0.4775897
  88.1993319  45.3401342  -0.0619604  88.7531129  45.8965497   1.2324934
  89.1095650  42.2069670  -2.2091374  89.1593655  42.0419677  -1.2675852
  89.0009573  41.3396929  -2.5993494  86.3999412  38.1900598  -0.8932068
  87.3009275  38.0507062  -1.1848070  86.4747387  38.3555052   0.0466110
  90.6113847  44.6266611  -1.9649353  90.3198655  44.9896592  -1.1285892
  89.9985978  43.9133619  -2.1436021  88.8601035  39.7499226  -3.4969295
  89.3355157  39.9426872  -4.3050444  87.9366600  39.8058412  -3.7425911
  81.7612805  42.7684905   1.3529171  82.6815815  42.9463504   1.5469218
  81.7262388  41.8240950   1.2008871  79.6302743  36.2519145   3.3854701
  79.5299470  37.2013502   3.3166793  79.4124285  35.9237384   2.5130772
  79.4934013  39.6816284   2.2019763  79.0101095  40.4816644   2.4083652
  79.5794952  39.6924229   1.2487207  83.7895039  43.5440916   3.0043332
  84.6586199  43.7181568   2.6429967  83.3101791  44.3635333   2.8819062
  77.9581219  50.6638017  -5.3167234  78.8608466  50.6961627  -5.0000739
  77.7318589  49.7338468  -5.3020898  95.4487515  55.2529542  -7.5911393
  96.0865925  55.1336289  -8.2948053  95.3308358  56.2010386  -7.5323441
  92.2577221  55.2056970  -7.6549868  91.9195733  55.0898035  -8.5429334
  93.1266989  54.8048135  -7.6748862  88.1164037  57.0592446 -11.6652977
  87.5528902  56.9682383 -12.4336690  88.0016432  56.2392351 -11.1850485
  92.7397004  56.3591822  -1.6963663  92.7285645  55.9644620  -2.5683159
  92.9017644  55.6257894  -1.1029891  85.6628469  58.5543638  -8.8268757
  86.4549761  58.2134463  -9.2422458  85.9025119  58.6638613  -7.9066604
  89.4604265  59.1428934  -2.7484479  89.1694131  60.0474564  -2.8637813
  90.0961250  59.1845461  -2.0340409  90.3860472  56.5205782  -6.1583119
  90.9824044  56.2961804  -6.8726156  90.4435444  55.7790528  -5.5557671
  95.0028783  52.9780996 -10.5158185  95.7891873  52.5600419 -10.8667768
  95.2667488  53.8827088 -10.3476537  92.0213330  55.3383470 -12.4161864
  91.6571537  54.8114091 -11.7048943  92.8780446  54.9481939 -12.5895379
  97.9262631  46.6277803  -5.1530598  97.5945956  47.4973214  -5.3769383
  97.3308244  46.3114087  -4.4736568  94.4194150  58.8290349  -5.7534685
  94.1194873  59.7315388  -5.8618878  94.0745210  58.5622532  -4.9013532
  87.8706632  55.2804146  -9.7197981  86.9457128  55.1480360  -9.5120289
  88.1191045  56.0598365  -9.2228038  97.8191294  51.3472889  -8.0737248
  96.9108172  51.2788298  -8.3678487  97.7678890  51.8244834  -7.2455422
  85.2315443  54.9237419  -8.8854192  85.3607824  55.1771898  -7.9714780
  84.5512894  55.5165127  -9.2049537  91.8932160  52.7662535  -0.1302351
  91.1165494  53.3256455  -0.1399486  92.5322723  53.2519318   0.3912519
  99.6852941  49.5489328  -6.2959374  99.0427321  49.8421861  -6.9419579
  99.1807869  49.4342248  -5.4906177  90.1478532  55.5747988  -0.5684384
  90.8893217  56.1133032  -0.8449560  89.4415518  56.2014277  -0.4112832
  95.6233872  57.7177129  -1.9712222  96.0317228  57.2759539  -2.7157590
  94.9011133  57.1429756  -1.7178029  91.9764942  52.6549735  -4.5978665
  92.8226137  53.0789149  -4.4544016  91.9163580  51.9983360  -3.9040102
  95.9462687  58.2778319  -8.2159933  95.3171549  58.4424033  -8.9183865
  95.5588349  58.6919929  -7.4448969  95.1264387  50.3154104  -2.9397492
  94.8825319  51.0696164  -3.4763216  95.4024318  50.6939451  -2.1050245
  97.0802850  56.8592716  -4.2620226  97.2919745  57.5024476  -4.9385845
  97.0332598  56.0255033  -4.7298296  94.6829079  49.4710537  -7.3583654
  93.8213558  49.7691790  -7.0666916  94.7091514  49.6880936  -8.2902621
  91.4990648  58.0152727 -10.9509848  91.9628994  58.2940430 -11.7405226
  91.2347447  57.1136172 -11.1336757  88.3914729  57.5624209  -8.0130085
  88.9616087  57.9911477  -8.6512600  88.9822841  57.2806794  -7.3145899
  88.8839896  52.7287636   0.2330926  88.2538557  53.4103917   0.4666323
  88.7775984  52.6170718  -0.7115935  84.1784868  52.3959432  -8.8403149
  83.3883922  52.6516961  -9.3163039  84.6696116  53.2107770  -8.7351109
  98.1948678  59.7364672  -6.0897869  99.0166122  59.3344859  -6.3715187
  98.1911081  59.6332906  -5.1381753  91.9605281  59.2848715  -3.9337158
  92.0249714  59.7469122  -3.0978986  91.2516205  58.6546080  -3.8054848
  82.4622571  52.6489923  -6.4088159  82.7130610  53.5336933  -6.1430583
  82.9982120  52.4694524  -7.1813067  88.1620639  47.0308402   2.5956177
  87.7687584  46.4774601   3.2703822  88.9786779  47.3418981   2.9862695
  85.1282696  58.4692260 -13.4930253  85.6407217  59.2635511 -13.3424688
  85.7805409  57.7718551 -13.5596651  86.9377581  61.5858017 -11.4107500
  87.1144210  62.5075981 -11.5986516  87.7334415  61.2716436 -10.9813120
  91.0788600  48.4466281   0.1876434  91.8198313  49.0473434   0.1080896
  91.3106523  47.7043919  -0.3705523  86.2229938  53.6322649  -1.5345336
  86.1083453  52.7307906  -1.2338237  85.3674455  53.8786345  -1.8860520
  93.3021775  61.5740389   0.0642164  92.8585630  60.7876767  -0.2536931
  93.9638989  61.7619539  -0.6013945  88.0608897  63.1036190  -5.4097157
  88.6116322  62.9753254  -6.1820163  87.2220373  63.4031079  -5.7602264
  95.4003014  61.8543189  -1.9076434  95.3821489  62.6752070  -2.3996165
  96.3222934  61.7297264  -1.6826293  91.8576068  59.3687318  -1.0652926
  92.3904404  58.6075606  -1.2953618  91.3290149  59.0760970  -0.3228772
  95.0245763  44.4747384  -5.5359284  94.6810032  45.3649026  -5.6120174
  95.3924725  44.2849042  -6.3989699  94.1042303  46.8452039  -7.5710051
  93.6007099  46.8082175  -8.3842246  94.3972910  47.7544782  -7.5113394
  90.3485189  46.9290769  -8.5643869  91.2138186  46.7333578  -8.9237980
  90.4162698  46.7001121  -7.6374513  98.2021626  56.6922331  -8.4367068
  97.5445301  57.3821593  -8.3486939  99.0062026  57.0818763  -8.0933081
  97.0127085  55.0466704 -10.3863126  97.5258967  55.6796696  -9.8841416
  97.6628309  54.4467899 -10.7519766  93.4907916  52.5216159  -8.1404786
  92.5730477  52.7431106  -8.2983097  93.9068060  52.5962470  -8.9993078
  94.2742964  53.9207575 -13.0102105  95.0214783  54.4328972 -13.3194983
  94.5434553  53.5991628 -12.1497712  91.0954508  54.0294736  -9.9265356
  91.1503118  53.0768573 -10.0022879  90.2845710  54.1854176  -9.4424057
  89.0346868  52.6471796 -12.1674977  88.2214734  52.9465967 -11.7609785
  89.5305862  52.2527485 -11.4500494  91.1855446  62.6429553 -10.2340712
  91.1431625  62.8690399 -11.1632180  92.1018145  62.4092928 -10.0854911
  94.6321080  53.1113621  -3.3360083  94.9870467  53.3385094  -2.4765617
  95.2793211  53.4431997  -3.9582828  88.5260943  50.2190152  -6.5513742
  89.1660322  50.0778911  -7.2490778  87.6938473  49.9324665  -6.9275140
 100.3888196  58.3008584  -7.6199482 100.8224703  58.2083873  -6.7716428
 101.1019777  58.2766084  -8.2579466  89.3021247  59.5192582 -10.4378749
  90.0961845  59.0242902 -10.6396174  88.5912939  58.9910445 -10.8011044
  94.1216091  61.9010678  -6.0866382  94.1753113  62.4701614  -5.3188666
  93.2530872  62.0712563  -6.4512345  87.0014484  51.6028234  -4.6041930
  87.6737538  51.3945596  -5.2529282  86.1744271  51.4050320  -5.0436698
 101.2503746  58.3432284  -5.0866597 101.4439636  59.2478095  -4.8407322
 101.1504364  57.8839703  -4.2528012  92.9040056  48.2290175  -2.5876270
  92.2567972  48.9280124  -2.6811793  93.6741072  48.6626319  -2.2200021
  96.3118854  58.4939027   0.4874284  96.1604361  58.2649579  -0.4295633
  96.3023534  59.4509628   0.5005629  93.0804191  56.0670940  -4.5279450
  94.0096251  56.2182099  -4.7010483  92.6595221  56.1554961  -5.3830803
  91.8792523  60.0921604  -6.7580912  91.7403608  59.7240389  -5.8854974
  91.0907119  60.6069244  -6.9296954  93.4297738  59.4703207  -9.3692074
  93.0947570  59.4303977  -8.4734425  92.9301683  58.8047923  -9.8421664
  87.4041982  54.8770837  -3.8439493  87.2661780  54.1451076  -3.2427954
  88.3146905  54.7879737  -4.1255306  90.0324282  54.5890796  -4.3555814
  90.7423901  53.9483988  -4.3969195  89.9893591  54.8403691  -3.4329633
  98.0211061  61.5258150  -1.4349234  97.9623607  60.8417370  -2.1018651
  98.4230579  62.2677140  -1.8868608  88.7453216  51.5756014  -2.5360174
  88.2090573  51.1246753  -1.8838578  88.1569925  51.7101923  -3.2789710
  87.0401760  68.3420063  -8.6415516  87.2798358  68.9738588  -7.9636497
  86.1970956  67.9908103  -8.3550156  98.0228468  59.4897733  -3.2035255
  97.1355247  59.1523655  -3.0808856  98.5927019  58.7580765  -2.9666489
  79.6757615  55.8221825  -9.8792203  80.3628655  55.5083555 -10.4671188
  79.5205744  56.7263190 -10.1524952  84.4792338  50.7112022  -5.4507180
  84.3950526  50.1037691  -6.1856770  83.6575044  51.2021040  -5.4497683
  91.5529622  64.1499186  -6.2374012  91.4799793  64.9554157  -5.7254707
  91.1107015  64.3491152  -7.0625990  94.6516051  49.1965585 -10.0836985
  95.1484751  48.4435548 -10.4035914  93.8803033  49.2329902 -10.6493775
 102.5045809  54.9005951  -8.4418693 102.4935685  55.7830666  -8.8124760
 101.6363188  54.5477502  -8.6364156  94.0128305  64.0486020  -4.0815853
  94.7256277  64.6833485  -4.1539951  93.5218334  64.1449886  -4.8975851
  95.7345832  57.9537273 -12.5098561  94.8002111  58.0738735 -12.6793857
  95.9122501  57.0509739 -12.7738551  91.2351020  51.3382968 -10.3565300
  90.8648808  50.7854009  -9.6684394  91.7310113  50.7341102 -10.9090300
  89.0640219  61.7980463  -3.2610282  89.7649678  62.4316946  -3.1080888
  88.5935334  62.1395195  -4.0214643  97.0935046  46.1635179  -7.9357626
  96.1798126  46.3939406  -7.7675419  97.5228148  46.2473623  -7.0843593
  96.8641505  54.3525071  -5.4357732  96.2112955  54.6000978  -6.0905279
  97.2421885  53.5389209  -5.7695254  92.9129078  55.0944882   1.0508305
  92.2369715  54.9939011   1.7210681  93.7356712  54.9384096   1.5144303
  84.6607937  61.3316818  -6.3279179  85.2461374  60.5860506  -6.1951275
  84.4632775  61.6420775  -5.4442515  87.5146592  64.3668066 -11.3116737
  86.8456967  64.8514193 -11.7952697  87.3759462  64.6137286 -10.3973358
  79.2525592  53.9022419  -7.6074736  79.2909691  53.3686009  -6.8137618
  78.7465884  53.3757624  -8.2263759  91.6551861  66.4011809  -4.7134079
  92.2070169  66.5643431  -3.9484993  91.9958054  66.9916247  -5.3854054
  86.6316354  48.7486959  -4.1112194  86.6957680  49.6101790  -4.5234796
  86.5683474  48.1360961  -4.8439835  86.1068626  50.8210092  -0.4639160
  86.7340665  50.4387169   0.1498365  85.2496545  50.6024294  -0.0983467
  96.5062735  61.2273067   1.1414576  97.0502639  61.8403025   0.6469531
  95.9249580  61.7852645   1.6581589  94.7920248  64.3493785  -7.7270396
  94.6671387  63.5483525  -8.2359451  95.4499339  64.8439978  -8.2156427
  86.4128416  50.7042517  -8.5493256  85.6915002  51.3178485  -8.6885783
  87.2021672  51.2400282  -8.6276610  96.8555156  62.1502805  -6.0990846
  95.9085492  62.0308156  -6.1712520  97.2037929  61.2625303  -6.0164585
  89.2154730  48.0396944  -2.2752604  89.7389132  48.2859240  -1.5126295
  88.9967063  48.8716979  -2.6949467  93.8601590  61.9455521  -9.8986494
  93.7126552  61.0172229  -9.7178924  94.6855083  61.9675612 -10.3829419
  97.4635711  62.7684080  -8.8121621  98.3882259  62.5626941  -8.9497170
  97.2951015  62.5200481  -7.9032280  90.4207275  48.9810639  -4.5902934
  90.0804095  48.1818452  -4.1882254  89.7146281  49.2812350  -5.1626101
  91.0723747  46.0659951  -6.1375611  91.8949816  45.5920430  -6.2596721
  91.3161810  46.8450435  -5.6376925  88.5962325  52.7579072  -8.3283632
  88.4506906  53.0719375  -7.4359351  88.1187529  53.3763972  -8.8812734
  90.4558708  49.7481620  -8.2802743  90.4420277  48.8522713  -8.6170445
  91.1731136  49.7552284  -7.6464457  92.3084839  50.1818960  -6.2349615
  92.0502617  51.1036031  -6.2365285  91.7769879  49.7849395  -5.5449151
  83.0707987  55.2984416  -5.3895971  82.5261456  56.0744224  -5.2575697
  83.9487337  55.6455221  -5.5476850  83.8574009  54.4254313  -2.4965814
  83.1155745  54.5736948  -1.9101184  83.5366754  54.6862578  -3.3599065
  91.8017672  63.9670291  -2.6985424  92.1104798  63.7219438  -1.8262725
  92.5993154  64.1716929  -3.1866554  84.3030623  62.3119741 -10.4655420
  85.1288643  62.0123513 -10.8456776  83.9524675  61.5427364 -10.0165631
  89.2712156  61.6646210  -8.3957746  88.6492165  61.0016915  -8.6955518
  89.9417023  61.6907341  -9.0784098  82.5039228  60.2306068  -9.5066486
  81.6671136  59.8028242  -9.6882485  82.4762874  60.4238511  -8.5695695
  89.3436684  50.1427998   1.1974760  89.3924839  51.0190120   0.8152530
  89.8859198  49.6005391   0.6246403  99.8291529  60.6869121   0.4775897
  99.0387073  60.6693260  -0.0619604  99.5924884  61.2257415   1.2324934
  99.9489404  57.5361587  -2.2091374  99.9987409  57.3711595  -1.2675852
  99.8403328  56.6688846  -2.5993494  97.2393167  53.5192515  -0.8932068
  98.1403030  53.3798980  -1.1848070  97.3141141  53.6846970   0.0466110
  91.5735972  50.8959370  -2.0478881  90.7039282  51.1892936  -2.3196293
  91.8095452  51.4799815  -1.3271618 101.4507601  59.9558529  -1.9649353
 101.1592410  60.3188509  -1.1285892 100.8379733  59.2425537  -2.1436021
  99.6994789  55.0791143  -3.4969295 100.1748911  55.2718790  -4.3050444
  98.7760355  55.1350329  -3.7425911  94.2775006  47.1138987  -4.5313461
  94.7956950  47.8500014  -4.8566972  93.9230139  47.4202980  -3.6966702
  98.3996458  51.9556903  -5.2640989  99.3513881  52.0555001  -5.2428765
  98.2299909  51.1635172  -4.7542905  96.4210838  49.0412487  -5.0781588
  95.8260770  49.3217499  -5.7735100  96.1360535  49.5306388  -4.3064847
 100.8784536  55.1763023  -6.1498690 100.8460856  54.2379024  -5.9639006
 101.4885160  55.2547060  -6.8832865 101.0279025  51.9674067  -6.1040406
 100.5118073  51.1832523  -6.2910478 101.9118973  51.6392783  -5.9393887
 104.7776383  54.3786893  -6.4118202 104.0509547  54.2442858  -7.0201710
 104.3623670  54.6863721  -5.6061484  92.6006560  58.0976822   1.3529171
  93.5209569  58.2755421   1.5469218  92.5656143  57.1532868   1.2008871
  85.5968632  56.0077857  -6.0048047  85.8154642  56.9394965  -5.9860014
  86.0094406  55.6485831  -5.2193244  90.4696498  51.5811063   3.3854701
  90.3693224  52.5305420   3.3166793  90.2518040  51.2529302   2.5130772
  81.6876985  56.9118327  -7.7524432  80.9940456  56.4972280  -8.2654478
  82.4349976  56.9538864  -8.3491013  90.3327768  55.0108202   2.2019763
  89.8494849  55.8108562   2.4083652  90.4188707  55.0216146   1.2487207
  83.6013727  56.8436581  -9.8758418  83.5784415  56.9424268 -10.8276534
  83.9114364  57.6901732  -9.5541251  86.2601105  58.9012736  -5.7611803
  87.2144359  58.8696679  -5.8281872  86.0613629  58.4403360  -4.9461577
  86.8500487  57.4713852  -3.1941005  87.6693376  57.9657931  -3.1706168
  87.1237295  56.5545820  -3.2223438  84.6151334  64.4432356  -8.7441605
  84.4805802  63.6832757  -9.3103607  84.1983396  65.1673256  -9.2112816
  87.7720460  65.3401673  -8.5323163  87.6552844  66.2847105  -8.6344472
  86.9512906  65.0375234  -8.1437363  82.1035401  51.8051986  -2.4948808
  82.7494265  51.2950940  -2.0061583  81.8952553  52.5420668  -1.9205383
  94.6288794  58.8732834   3.0043332  95.4979953  59.0473486   2.6429967
  94.1495545  59.6927250   2.8819062  88.7974974  65.9929935  -5.3167234
  89.7002221  66.0253545  -5.0000739  88.5712344  65.0630386  -5.3020898
  90.5528576  64.7460921  -8.6557156  89.6024207  64.7462783  -8.7692783
  90.8561062  63.9993656  -9.1721121  86.4432892  48.9519603   1.6026206
  87.3064354  48.5956408   1.8129530  85.8698303  48.6133498   2.2901610
 102.7325914  68.0954452  -0.1302351 101.9559248  68.6548373  -0.1399486
 103.3716477  68.5811235   0.3912519 100.9872287  70.9039906  -0.5684384
 101.7286971  71.4424950  -0.8449560 100.2809272  71.5306195  -0.4112832
 105.9658142  65.6446021  -2.9397492 105.7219074  66.3988082  -3.4763216
 106.2418072  66.0231369  -2.1050245  99.7233650  68.0579554   0.2330926
  99.0932311  68.7395835   0.4666323  99.6169738  67.9462636  -0.7115935
  93.3016326  67.9781841  -6.4088159  93.5524364  68.8628850  -6.1430583
  93.8375874  67.7986442  -7.1813067  99.0014393  62.3600320   2.5956177
  98.6081339  61.8066518   3.2703822  99.8180534  62.6710898   2.9862695
 101.9182354  63.7758199   0.1876434 102.6592068  64.3765352   0.1080896
 102.1500277  63.0335837  -0.3705523  97.0623692  68.9614566  -1.5345336
  96.9477207  68.0599823  -1.2338237  96.2068210  69.2078263  -1.8860520
 105.8639517  59.8039302  -5.5359284 105.5203787  60.6940944  -5.6120174
 106.2318480  59.6140960  -6.3989699  97.8408239  66.9320152  -4.6041930
  98.5131292  66.7237514  -5.2529282  97.0138026  66.7342238  -5.0436698
 103.7433811  63.5582092  -2.5876270 103.0961726  64.2572042  -2.6811793
 104.5134826  63.9918236  -2.2200021  98.2435736  70.2062755  -3.8439493
  98.1055534  69.4742993  -3.2427954  99.1540660  70.1171655  -4.1255306
  99.5846971  66.9047932  -2.5360174  99.0484328  66.4538670  -1.8838578
  98.9963679  67.0393841  -3.2789710  95.3186092  66.0403939  -5.4507180
  95.2344281  65.4329609  -6.1856770  94.4968799  66.5312958  -5.4497683
 103.7522832  70.4236800   1.0508305 103.0763469  70.3230929   1.7210681
 104.5750466  70.2676013   1.5144303  90.0919346  69.2314336  -7.6074736
  90.1303446  68.6977927  -6.8137618  89.5859639  68.7049542  -8.2263759
  97.4710108  64.0778877  -4.1112194  97.5351435  64.9393708  -4.5234796
  97.4077229  63.4652878  -4.8439835  96.9462381  66.1502009  -0.4639160
  97.5734420  65.7679087   0.1498365  96.0890300  65.9316211  -0.0983467
 100.0548484  63.3688861  -2.2752604 100.5782886  63.6151158  -1.5126295
  99.8360817  64.2008896  -2.6949467 101.2601029  64.3102557  -4.5902934
 100.9197850  63.5110370  -4.1882254 100.5540036  64.6104267  -5.1626101
 101.9117501  61.3951869  -6.1375611 102.7343570  60.9212347  -6.2596721
 102.1555565  62.1742353  -5.6376925  93.9101742  70.6276334  -5.3895971
  93.3655210  71.4036142  -5.2575697  94.7881092  70.9747139  -5.5476850
  94.6967764  69.7546230  -2.4965814  93.9549500  69.9028866  -1.9101184
  94.3760508  70.0154496  -3.3599065 100.1830438  65.4719915   1.1974760
 100.2318594  66.3482038   0.8152530 100.7252952  64.9297308   0.6246403
 102.4129727  66.2251288  -2.0478881 101.5433036  66.5184854  -2.3196293
 102.6489207  66.8091733  -1.3271618 105.1168760  62.4430905  -4.5313461
 105.6350704  63.1791932  -4.8566972 104.7623893  62.7494898  -3.6966702
 103.4400314  73.4268740   1.3529171 104.3603324  73.6047339   1.5469218
 103.4049897  72.4824785   1.2008871 101.3090252  66.9102980   3.3854701
 101.2086979  67.8597337   3.3166793 101.0911794  66.5821219   2.5130772
 101.1721522  70.3400119   2.2019763 100.6888604  71.1400479   2.4083652
 101.2582461  70.3508064   1.2487207  92.9429156  67.1343904  -2.4948808
  93.5888020  66.6242858  -2.0061583  92.7346307  67.8712585  -1.9205383
 105.4682548  74.2024751   3.0043332 106.3373708  74.3765404   2.6429967
 104.9889300  75.0219168   2.8819062  97.2826647  64.2811521   1.6026206
  98.1458108  63.9248326   1.8129530  96.7092058  63.9425416   2.2901610
   2.1309141 118.5302963  86.6323476   1.4883522 118.8235497  85.9863271
   1.6264070 118.4155884  87.4376673   3.4735226 120.9487702  86.8242444
   2.9574274 120.1646159  86.6372373   4.3575174 120.6206419  86.9888963
   1.1345952 114.6928718  82.7838257   0.9370774 114.3843806  83.6681589
   1.7445658 115.4190357  82.9136187   2.4037820 118.8684761  82.8124140
   3.1798210 119.3581214  83.0848757   1.6785954 119.2942816  83.2696009
   4.8410379 119.5812381  83.8698080   5.4354870 119.3408117  83.1591389
   4.9136963 118.8619511  84.4971617   2.8369114 120.1482508  80.1370210
   2.5806048 119.7479144  80.9678418   2.2121982 120.8626302  80.0120349
   2.8493413  98.9031987  70.0402951   3.5818584  98.3331204  70.2740780
   2.0932768  98.5153588  70.4809456   2.1309143  95.5365086  73.3568783
   1.4883523  95.8297619  72.7108578   1.6264071  95.4218006  74.1621980
   2.2708120 105.2008515  68.7912588   1.5859159 105.5807417  68.2409621
   2.3551970 105.8103842  69.5244535   0.6404880 105.7240430  73.5630288
   1.4622324 105.3220617  73.2812970   0.6367283 105.6208664  74.5146404
   8.7310873 102.0679178  69.9115260   7.9774581 101.4986576  69.7559264
   8.8658414 102.0341843  70.8585895   2.4086522 103.2064108  64.5594481
   1.6315964 102.8675268  64.1149643   3.0878003 103.2116732  63.8849446
   2.8075019 102.2207815  67.0217403   2.6692917 102.4109411  66.0938592
   2.4511237 102.9827198  67.4785454   2.8344398 104.2884342  72.0328675
   3.2680905 104.1959631  72.8811729   3.5475979 104.2641842  71.3948691
   3.6959948 104.3308043  74.5661560   3.8895838 105.2353853  74.8120835
   3.5960566 103.8715462  75.4000145   4.9502011 100.8881709  71.2109464
   4.9391887 101.7706425  70.8403397   4.0819390 100.5353260  71.0164001
   1.5674586  99.7830350  67.6779630   2.0335038 100.6158342  67.6039933
   2.0182086  99.3175332  68.3824889   5.5526621 102.0381929  67.8158927
   5.9957767 101.2889254  67.4178050   4.6753131 102.0292065  67.4332659
   0.6862402 108.5912270  63.2965525   1.3813307 109.2118963  63.5152840
   1.0285552 107.7407621  63.5717903   2.5853825 106.0411976  64.8252856
   3.1105149 106.3799248  64.1002176   2.4976178 105.1058991  64.6415991
   2.2747731 106.6744879  80.1304054   1.4843275 106.6569018  79.5908554
   2.0381086 107.2133173  80.8853091   2.3945606 103.5237346  77.4436783
   2.4443611 103.3587353  78.3852305   2.2859530 102.6564605  77.0534663
   3.8963803 105.9434287  77.6878804   3.6048612 106.3064268  78.5242265
   3.2835935 105.2301295  77.5092136   5.0959486 103.5087167  70.2081374
   5.9306377 103.9476971  70.3718935   5.2318614 103.0325820  69.3889620
   2.1450992 101.0666902  76.1558862   2.6205113 101.2594548  75.3477714
   1.2216557 101.1226088  75.9102246   0.8452661  97.9432662  74.3887168
   1.7970083  98.0430760  74.4099392   0.6756111  97.1510930  74.8985252
   0.6262547 108.2977042  60.2953149   0.5476179 107.9636906  61.1888907
   1.4472214 108.7898810  60.2944621   3.3240738 101.1638782  73.5029467
   3.2917058 100.2254782  73.6889151   3.9341362 101.2422818  72.7695292
   3.4735227  97.9549825  73.5487751   2.9574275  97.1708282  73.3617679
   4.3575175  97.6268542  73.7134270   1.1345954  91.6990841  69.5083563
   0.9370775  91.3905929  70.3926895   1.7445659  92.4252479  69.6381493
   9.1417288 102.2254788  72.6435504   9.8720677 101.9640076  73.2043208
   8.5324234 101.4883510  72.6837572   7.2232585 100.3662651  73.2409955
   6.4965749 100.2318616  72.6326447   6.8079872 100.6739480  74.0466673
   2.4037822  95.8746884  69.5369446   3.1798212  96.3643336  69.8094063
   1.6785956  96.3004938  69.9941316   4.8410380  96.5874503  70.5943387
   5.4354871  96.3470239  69.8836695   4.9136964  95.8681634  71.2216923
   2.8369115  97.1544631  66.8615517   2.5806049  96.7541266  67.6923725
   2.2121983  97.8688425  66.7365656   7.1481453  99.8940704  69.3686808
   6.5881011  99.9633893  70.1418370   6.5424956  99.7181689  68.6486304
   8.7337471 116.5697218  72.0616764   9.3715881 116.4503965  71.3580104
   8.6158314 117.5178062  72.1204716   5.5427178 116.5224646  71.9978289
   5.2045689 116.4065711  71.1098824   6.4116946 116.1215811  71.9779295
   1.4013993 118.3760122  67.9875180   0.8378859 118.2850059  67.2191467
   1.2866388 117.5560027  68.4677672   6.0246961 117.6759498  77.9564494
   6.0135601 117.2812296  77.0844998   6.1867600 116.9425570  78.5498266
   0.9069179 119.1320227  63.6976779   1.6800055 118.5849214  63.5589655
   1.2594578 119.9964477  63.9091240   3.6710429 117.8373458  73.4945038
   4.2674001 117.6129480  72.7802001   3.7285400 117.0958204  74.0970486
   3.2435457 115.2912893  61.3295229   3.4960978 114.7694415  60.5678692
   2.3060016 115.1279039  61.4321912   8.2878740 114.2948672  69.1369972
   9.0741829 113.8768095  68.7860389   8.5517444 115.1994764  69.3051620
   8.4588817 119.7321522  63.8358629   7.8234650 119.8056149  64.5479533
   8.1286224 120.3215121  63.1577708  13.6887167 114.2323905  70.0402951
  14.4212339 113.6623122  70.2740780  12.9326523 113.8445505  70.4809456
   2.9631746 117.1940999  63.5319604   2.8468004 116.5185903  64.2000688
   3.0734006 116.7073373  62.7151757   5.3063287 116.6551146  67.2366293
   4.9421494 116.1281767  67.9479214   6.1630403 116.2649616  67.0632778
  11.2112587 107.9445479  74.4997559  10.8795912 108.8140890  74.2758774
  10.6158201 107.6281763  75.1791590   4.9468774 111.6841046  62.2327641
   5.1143176 112.5521283  62.5998113   4.7565943 111.8468328  61.3088931
   7.7044107 120.1458025  73.8993472   7.4044830 121.0483064  73.7909279
   7.3595166 119.8790208  74.7514625  11.1041251 112.6640565  71.5790909
  10.1958128 112.5955974  71.2849670  11.0528846 113.1412510  72.4072735
   4.9257995 114.1398704  63.2174308   4.8057620 114.5855754  64.0559789
   4.2310583 114.4884021  62.6587846   5.1782116 114.0830211  79.5225806
   4.4015451 114.6424131  79.5128671   5.8172680 114.5686994  80.0440677
  12.9702897 110.8657004  73.3568783  12.3277277 111.1589537  72.7108578
  12.4657826 110.7509924  74.1621980  10.6243061 114.6120177  64.0454642
  11.5360917 114.8447564  63.8702340  10.1152708 115.1957221  63.4829721
   3.4328489 116.8915664  79.0843773   4.1743173 117.4300708  78.8078597
   2.7265474 117.5181953  79.2415325   8.9083828 119.0344805  77.6815935
   9.3167184 118.5927215  76.9370567   8.1861090 118.4597432  77.9350128
   5.2614898 113.9717411  75.0549492   6.1076094 114.3956825  75.1984141
   5.2013536 113.3151036  75.7488055   9.2312643 119.5945995  71.4368224
   8.6021506 119.7591709  70.7344292   8.8438305 120.0087605  72.2079188
  13.1101875 120.5300433  68.7912588  12.4252913 120.9099335  68.2409621
  13.1945724 121.1395760  69.5244535   8.4114344 111.6321780  76.7130666
   8.1675276 112.3863840  76.1764941   8.6874274 112.0107127  77.5477913
  10.3652807 118.1760392  75.3907931  10.5769702 118.8192152  74.7142312
  10.3182555 117.3422709  74.9229861   7.9679036 110.7878213  72.2944503
   7.1063515 111.0859466  72.5861241   7.9941470 111.0048612  71.3625536
   4.7840605 119.3320403  68.7018309   5.2478950 119.6108106  67.9122931
   4.5197403 118.4303848  68.5191400   1.6764686 118.8791885  71.6398072
   2.2466043 119.3079153  71.0015557   2.2672798 118.5974470  72.3382258
   3.7209491 115.4543556  65.5107874   4.4233534 115.9064599  65.9781800
   3.3890119 114.8127375  66.1387767   2.1689853 114.0455312  79.8859083
   1.5388513 114.7271593  80.1194480   2.0625940 113.9338394  78.9412222
  11.4798635 121.0532348  73.5630288  12.3016078 120.6512535  73.2812970
  11.4761037 120.9500582  74.5146404   5.2455238 120.6016391  75.7190999
   5.3099670 121.0636798  76.5549171   4.5366162 119.9713756  75.8473309
  19.5704628 117.3971096  69.9115260  18.8168336 116.8278494  69.7559264
  19.7052169 117.3633761  70.8585895   1.4470595 108.3476078  82.2484334
   1.0537541 107.7942277  82.9231979   2.2636736 108.6586657  82.6390852
   4.3638556 109.7633957  79.8404591   5.1048270 110.3641110  79.7609054
   4.5956479 109.0211595  79.2822634   5.1426024 120.6854994  78.5875231
   5.6754361 119.9243282  78.3574539   4.6140105 120.3928646  79.3299385
   8.3095719 105.7915060  74.1168873   7.9659989 106.6816702  74.0407983
   8.6774682 105.6016718  73.2538458   8.2746002 115.7823671  62.6241308
   7.7592625 116.5528276  62.8629695   8.0023310 115.1088808  63.2474369
   5.8593113 110.6273372  67.6826546   5.0034709 110.2380223  67.5032185
   6.2720065 110.7065333  66.8226332   7.3892260 108.1619715  72.0818106
   6.8857055 108.1249851  71.2685911   7.6822866 109.0712458  72.1414763
   3.6335145 108.2458445  71.0884288   4.4988142 108.0501254  70.7290177
   3.7012654 108.0168797  72.0153644  13.2480276 118.5356026  64.5594481
  12.4709719 118.1967186  64.1149643  13.9271757 118.5408649  63.8849446
   8.0632305 113.6550763  64.4501089   7.7582441 113.9696913  65.3011232
   9.0162747 113.7332183  64.4928422   6.5078737 119.8140987  66.0994043
   5.9800099 119.0793746  65.7867280   6.0066240 120.5915663  65.8534011
  11.4871583 118.0090007  71.2161089  10.8295257 118.6989269  71.3041218
  12.2911982 118.3986439  71.5595076   1.2397465 110.4760653  68.4600655
   1.8141216 110.2535835  67.7273847   1.8268447 110.5449348  69.2129256
  10.2977042 116.3634380  69.2665031  10.8108923 116.9964372  69.7686741
  10.9478266 115.7635575  68.9008391   1.5667052 112.5065114  62.4796540
   0.7304364 112.8439801  62.8005815   1.4271821 112.3714094  61.5423677
   3.5420132 107.3501902  67.1875724   2.8884545 107.0350919  66.5632339
   3.5000606 106.7277642  67.9135547   4.6531337 117.6321197  59.1029016
   3.7458399 117.4010451  59.3020165   5.1502369 116.8358816  59.2902998
   6.7757873 113.8383836  71.5123372   5.8580434 114.0598783  71.3545060
   7.1918016 113.9130146  70.6535079   7.5592920 115.2375251  66.6426052
   8.3064739 115.7496648  66.3333174   7.8284510 114.9159304  67.5030445
   5.8319571 117.7333792  63.6253006   4.9230790 117.4492825  63.7225476
   5.8614654 118.1532870  62.7656313  11.0638838 121.3440381  67.3944174
  10.6101165 120.5031291  67.4509364  10.4332805 121.9801780  67.7318954
  10.0071758 112.2732367  68.6244841   9.2694514 111.7609754  68.9555084
  10.2598531 111.8332749  67.8128118   9.5071777 123.1816878  68.3293992
   9.7994752 123.7421935  67.6106357  10.0170398 123.4745439  69.0847151
  10.1083385 105.0508619  69.2186610  10.4142262 104.1905983  68.9312525
  10.8335990 105.6426240  69.0185604   4.3804465 115.3462413  69.7262801
   4.4353074 114.3936249  69.6505278   3.5695667 115.5021852  70.2104100
   5.5295658 119.2742536  60.9641085   5.0915088 118.5578395  60.5046722
   6.2706099 119.5018650  60.4026176   2.3196825 113.9639472  67.4853180
   1.5064690 114.2633643  67.8918372   2.8155819 113.5695161  68.2027663
   7.9171036 114.4281297  76.3168074   8.2720424 114.6552770  77.1762540
   8.5643167 114.7599674  75.6945330  13.6468773 117.5499733  67.0217403
  13.5086672 117.7401329  66.0938592  13.2904992 118.3119115  67.4785454
   1.8110899 111.5357828  73.1014415   2.4510279 111.3946587  72.4037379
   0.9788430 111.2492341  72.7253017  13.6738153 119.6176260  72.0328675
  14.1074659 119.5251549  72.8811729  14.3869733 119.5933760  71.3948691
   2.5871203 120.8360258  69.2149408   3.3811802 120.3410578  69.0131983
   1.8762896 120.3078121  68.8517113  14.5353702 119.6599960  74.5661560
  14.7289592 120.5645771  74.8120835  14.4354320 119.2007379  75.4000145
   6.1890013 109.5457851  77.0651888   5.5417928 110.2447801  76.9716364
   6.9591028 109.9793995  77.4328136   9.5968811 119.8106703  80.1402441
   9.4454317 119.5817255  79.2232524   9.5873490 120.7677304  80.1533786
   6.3654147 117.3838616  75.1248707   7.2946207 117.5349775  74.9517675
   5.9445177 117.4722637  74.2697354   6.7147694 120.7870883  70.2836083
   6.3797527 120.7471653  71.1793733   6.2151640 120.1215599  69.8106493
   0.6891938 116.1938513  75.8088664   0.5511736 115.4618752  76.4100203
   1.5996862 116.1047413  75.5272852   9.6506886 118.1326917  60.5573142
   9.0336057 117.4073745  60.4606195   9.1823374 118.8936278  60.2140217
   3.3174239 115.9058472  75.2972343   4.0273857 115.2651664  75.2558962
   3.2743547 116.1571367  76.2198524  11.3061018 122.8425826  78.2178923
  11.2473564 122.1585046  77.5509506  11.7080536 123.5844816  77.7659549
   2.0303173 112.8923690  77.1167983   1.4940530 112.4414429  77.7689579
   1.4419881 113.0269599  76.3738447   1.4405432 112.3512342  59.6794447
   0.5634898 112.2301142  59.3156693   1.9163185 111.5598420  59.4273335
  11.3078425 120.8065410  76.4492902  10.4205204 120.4691331  76.5719301
  11.8776976 120.0748441  76.6861668   7.9366008 110.5133261  69.5691172
   8.4334708 109.7603224  69.2492243   7.1652990 110.5497578  69.0034382
  15.7895765 116.2173627  71.2109464  15.7785642 117.0998342  70.8403397
  14.9213145 115.8645178  71.0164001   9.0195789 119.2704949  67.1429596
   8.0852067 119.3906411  66.9734300   9.1972457 118.3677415  66.8789606
   4.5200977 112.6550644  69.2962857   4.1498764 112.1021685  69.9843763
   5.0160069 112.0508778  68.7437857  12.4068340 115.1122268  67.6779630
  12.8728792 115.9450259  67.6039933  12.8575841 114.6467249  68.3824889
  10.4744571 121.4566089  64.6765782  10.7504415 121.3422684  65.5859656
   9.6049070 121.0583574  64.6377955  10.3785003 107.4802855  71.7170531
   9.4648083 107.7107082  71.8852738  10.8078104 107.5641299  72.5684564
  10.1491461 115.6692747  74.2170425   9.4962912 115.9168654  73.5622878
  10.5271841 114.8556885  73.8832903   6.1979034 116.4112558  80.7036462
   5.5219671 116.3106687  81.3738838   7.0206668 116.2551772  81.1672460
   9.7912692 122.5440743  80.7942733  10.3352596 123.1570701  80.2997688
   9.2099536 123.1020321  81.3109746  10.1405113 123.4670481  73.5537311
   9.1935448 123.3475832  73.4815637  10.4887886 122.5792979  73.6363572
   2.5004686 109.3564620  77.3775553   3.0239088 109.6026916  78.1401862
   2.2817020 110.1884655  76.9578690   1.0113790 111.9141264  65.6122155
   1.3509863 112.4427185  64.8900763   1.4585911 112.2521670  66.3880722
  10.7485668 124.0851756  70.8406536  11.6732215 123.8794617  70.7030987
  10.5800971 123.8368157  71.7495877   3.7057231 110.2978315  75.0625223
   3.3654052 109.4986128  75.4645903   2.9996238 110.5980026  74.4902056
   4.3573703 107.3827627  73.5152546   5.1799772 106.9088106  73.3931436
   4.6011767 108.1618111  74.0151232   2.9981938 110.4115886  63.8115448
   3.7190300 110.7897139  63.3079165   2.3747242 111.1304763  63.9150426
   7.1413060 111.1161035  64.7473780   7.3576675 111.9985673  64.4462608
   6.6607128 110.7247248  64.0179422   1.8812282 114.0746748  71.3244525
   1.7356863 114.3887051  72.2168806   1.4037485 114.6931648  70.7715423
   3.7408665 111.0649296  71.3725414   3.7270234 110.1690389  71.0357712
   4.4581093 111.0719960  72.0063700   5.5934795 111.4986636  73.4178542
   5.3352573 112.4203707  73.4162872   5.0619836 111.1017071  74.1079006
   3.1445561 109.9463676  66.6412984   3.2661472 109.0180322  66.8403872
   2.8547603 109.9602362  65.7291300   6.0136751 107.6318587  69.7779704
   6.0358448 107.6957920  68.8231684   6.4304810 106.7923095  69.9720210
  16.3920375 117.3673846  67.8158927  16.8351521 116.6181171  67.4178050
  15.5146886 117.3583983  67.4332659  11.5256157 123.9204188  63.2965525
  12.2207061 124.5410880  63.5152840  11.8679307 123.0699539  63.5717903
  13.4247580 121.3703893  64.8252856  13.9498904 121.7091166  64.1002176
  13.3369932 120.4350909  64.6415991   2.6286640 111.4595674  80.8502917
   2.6774796 112.3357796  80.4680687   3.1709154 110.9173067  80.2774560
  13.1141486 122.0036797  80.1304054  12.3237030 121.9860936  79.5908554
  12.8774840 122.5425091  80.8853091  13.2339361 118.8529263  77.4436783
  13.2837366 118.6879271  78.3852305  13.1253284 117.9856522  77.0534663
  10.5243123 114.8360191  78.7596089  11.4252986 114.6966656  78.4680087
  10.5991098 115.0014646  79.6994267   4.8585929 112.2127046  77.6049276
   3.9889238 112.5060612  77.3331864   5.0945409 112.7967491  78.3256539
  14.7357558 121.2726205  77.6878804  14.4442366 121.6356185  78.5242265
  14.1229689 120.5593213  77.5092136  15.9353240 118.8379085  70.2081374
  16.7700131 119.2768889  70.3718935  16.0712369 118.3617738  69.3889620
  12.9844746 116.3958819  76.1558862  13.4598868 116.5886466  75.3477714
  12.0610311 116.4518005  75.9102246   7.5624963 108.4306663  75.1214696
   8.0806906 109.1667690  74.7961185   7.2080095 108.7370656  75.9561455
   7.8137557 104.8506946  70.6415593   8.0939310 104.1830135  71.2676019
   8.5988164 105.0436041  70.1290257  11.6846415 113.2724580  74.3887168
  12.6363838 113.3722677  74.4099392  11.5149865 112.4802848  74.8985252
   9.7060794 110.3580163  74.5746569   9.1110727 110.6385175  73.8793057
   9.4210491 110.8474064  75.3463310  11.4656302 123.6268960  60.2953149
  11.3869933 123.2928823  61.1888907  12.2865968 124.1190728  60.2944621
  14.1634493 116.4930699  73.5029467  14.1310813 115.5546700  73.6889151
  14.7735116 116.5714736  72.7695292   6.0017824 115.3626752  59.5456671
   6.9476928 115.2332960  59.6145090   5.6232069 114.6241414  60.0226100
  14.3128981 113.2841743  73.5487751  13.7968030 112.5000199  73.3617679
  15.1968930 112.9560459  73.7134270  11.9739708 107.0282758  69.5083563
  11.7764529 106.7197846  70.3926895  12.5839414 107.7544397  69.6381493
  19.9811043 117.5546706  72.6435504  20.7114431 117.2931994  73.2043208
  19.3717988 116.8175428  72.6837572  18.0626340 115.6954569  73.2409955
  17.3359503 115.5610534  72.6326447  17.6473627 116.0031397  74.0466673
   5.8856516 119.4144498  81.0057328   6.8059526 119.5923097  81.1997375
   5.8506099 118.4700544  80.8537028   4.1860741 113.2876729  59.4811557
   3.2792196 112.9909841  59.5574270   4.4636722 112.9906547  58.6145843
   5.8022807 107.8313618  65.6355798   4.9923535 107.4860703  66.0111044
   6.4907223 107.5221162  66.2243410   7.7313355 106.9091665  67.2580095
   8.2844393 107.3287119  67.9170118   7.9683441 105.9827413  67.3003051
   3.7546454 112.8978739  83.0382859   3.6543181 113.8473096  82.9694950
   3.5367996 112.5696978  82.1658929   2.9559525 110.1463664  59.6223536
   3.8178689 110.4718562  59.8819353   3.1409870 109.3595160  59.1096602
  11.1092162 109.0192190  66.7658759  10.5290831 109.6776994  66.3836811
  10.8428095 108.1969535  66.3546176   9.5595728 108.4197248  68.9680079
  10.0595507 108.5313782  68.1594398  10.2031336 108.1158301  69.6080888
   3.6177724 116.3275878  81.8547920   3.1344806 117.1276238  82.0611809
   3.7038663 116.3383822  80.9015364   9.8917040 111.1792281  65.8215107
   9.0042895 111.4641931  65.6035302  10.3071029 111.0186044  64.9742384
  13.2431576 111.2038802  69.5369446  14.0191966 111.6935254  69.8094063
  12.5179710 111.6296856  69.9941316  15.6804135 111.9166421  70.5943387
  16.2748626 111.6762157  69.8836695  15.7530718 111.1973551  71.2216923
   9.0360253 120.9436955  59.9163127   9.7396104 121.1486958  60.5320783
   8.3122902 121.5113717  60.1812211   9.8658064 116.6946817  66.0365397
   9.8093265 117.1515368  65.1973030  10.4186406 115.9337501  65.8588240
  13.6762870 112.4836548  66.8615517  13.4199804 112.0833184  67.6923725
  13.0515738 113.1980342  66.7365656  17.9875207 115.2232622  69.3686808
  17.4274765 115.2925811  70.1418370  17.3818711 115.0473606  68.6486304
  10.9446951 121.3819484  61.9661587  11.7792555 120.9500683  61.7839062
  10.7831294 121.2101498  62.8938482  10.5992843 117.8851598  63.3317927
  10.5441647 117.7195869  62.3906371   9.9738898 118.5927631  63.4880116
   7.9138750 120.1900510  82.6571489   8.7829910 120.3641162  82.2958124
   7.4345502 121.0094926  82.5347219   3.9088968 107.3859707  62.9103245
   3.8967638 108.3301547  63.0671516   4.8012390 107.2029852  62.6162706
   7.7241088 103.9802483  67.1649182   6.9573484 103.4260970  67.3105864
   8.1351793 104.0524352  68.0263333  22.0506342 123.2737397  74.4997559
  21.7189667 124.1432808  74.2758774  21.4551955 122.9573681  75.1791590
  23.8096652 126.1948921  73.3568783  23.1671032 126.4881454  72.7108578
  23.3051580 126.0801842  74.1621980  18.8072790 126.1170130  72.2944503
  17.9457269 126.4151384  72.5861241  18.8335225 126.3340529  71.3625536
  12.2864350 123.6767996  82.2484334  11.8931295 123.1234194  82.9231979
  13.1030490 123.9878574  82.6390852  15.2032311 125.0925875  79.8404591
  15.9442024 125.6933028  79.7609054  15.4350234 124.3503513  79.2822634
  19.1489474 121.1206978  74.1168873  18.8053743 122.0108620  74.0407983
  19.5168436 120.9308636  73.2538458  16.6986867 125.9565290  67.6826546
  15.8428464 125.5672140  67.5032185  17.1113819 126.0357251  66.8226332
  18.2286014 123.4911633  72.0818106  17.7250810 123.4541768  71.2685911
  18.5216621 124.4004376  72.1414763  14.4728900 123.5750363  71.0884288
  15.3381897 123.3793171  70.7290177  14.5406409 123.3460715  72.0153644
  14.3813887 122.6793820  67.1875724  13.7278299 122.3642837  66.5632339
  14.3394361 122.0569560  67.9135547  20.8465512 127.6024285  68.6244841
  20.1088269 127.0901671  68.9555084  21.0992286 127.1624667  67.8128118
  20.9477139 120.3800537  69.2186610  21.2536016 119.5197901  68.9312525
  21.6729744 120.9718157  69.0185604  17.0283768 124.8749769  77.0651888
  16.3811683 125.5739718  76.9716364  17.7984783 125.3085912  77.4328136
  18.7759763 125.8425179  69.5691172  19.2728462 125.0895141  69.2492243
  18.0046744 125.8789496  69.0034382  21.2178757 122.8094773  71.7170531
  20.3041837 123.0398999  71.8852738  21.6471859 122.8933217  72.5684564
  15.1967458 122.7119545  73.5152546  16.0193527 122.2380023  73.3931436
  15.4405521 123.4910029  74.0151232  16.8530506 122.9610504  69.7779704
  16.8752202 123.0249837  68.8231684  17.2698565 122.1215013  69.9720210
  18.4018717 123.7598581  75.1214696  18.9200661 124.4959608  74.7961185
  18.0473850 124.0662574  75.9561455  18.6531311 120.1798863  70.6415593
  18.9333065 119.5122052  71.2676019  19.4381918 120.3727959  70.1290257
  20.5454549 125.6872080  74.5746569  19.9504481 125.9677093  73.8793057
  20.2604246 126.1765981  75.3463310  25.1522736 128.6133660  73.5487751
  24.6361784 127.8292117  73.3617679  26.0362684 128.2852377  73.7134270
  22.8133463 122.3574676  69.5083563  22.6158284 122.0489764  70.3926895
  23.4233168 123.0836315  69.6381493  16.6416561 123.1605536  65.6355798
  15.8317289 122.8152621  66.0111044  17.3300978 122.8513080  66.2243410
  18.5707109 122.2383583  67.2580095  19.1238148 122.6579036  67.9170118
  18.8077196 121.3119331  67.3003051  21.9485916 124.3484108  66.7658759
  21.3684585 125.0068912  66.3836811  21.6821849 123.5261453  66.3546176
  20.3989483 123.7489166  68.9680079  20.8989261 123.8605700  68.1594398
  21.0425091 123.4450218  69.6080888  20.7310794 126.5084198  65.8215107
  19.8436649 126.7933849  65.6035302  21.1464784 126.3477962  64.9742384
  24.0825331 126.5330719  69.5369446  24.8585721 127.0227172  69.8094063
  23.3573465 126.9588773  69.9941316  26.5197889 127.2458339  70.5943387
  27.1142380 127.0054074  69.8836695  26.5924473 126.5265469  71.2216923
  24.5156624 127.8128466  66.8615517  24.2593558 127.4125102  67.6923725
  23.8909492 128.5272260  66.7365656  14.7482723 122.7151624  62.9103245
  14.7361393 123.6593464  63.0671516  15.6406145 122.5321770  62.6162706
  18.5634842 119.3094401  67.1649182  17.7967238 118.7552888  67.3105864
  18.9745547 119.3816270  68.0263333   2.8493414  75.9094110  56.7648257
   3.5818586  75.3393327  56.9986087   2.0932769  75.5215710  57.2054763
   2.1309144  72.5427209  60.0814090   1.4883524  72.8359742  59.4353884
   1.6264072  72.4280129  60.8867286   2.2708122  82.2070638  55.5157894
   1.5859160  82.5869539  54.9654928   2.3551971  82.8165965  56.2489842
   0.6404881  82.7302553  60.2875595   1.4622325  82.3282740  60.0058277
   0.6367284  82.6270787  61.2391711   8.7310874  79.0741301  56.6360567
   7.9774583  78.5048699  56.4804571   8.8658416  79.0403965  57.5831201
   2.4086523  80.2126231  51.2839788   1.6315966  79.8737390  50.8394950
   3.0878004  80.2178854  50.6094753   2.8075020  79.2269938  53.7462710
   2.6692918  79.4171534  52.8183899   2.4511239  79.9889320  54.2030761
   2.8344400  81.2946465  58.7573981   3.2680906  81.2021754  59.6057035
   3.5475980  81.2703965  58.1193997   3.6959949  81.3370165  61.2906867
   3.8895839  82.2415976  61.5366142   3.5960567  80.8777584  62.1245452
   4.9502012  77.8943832  57.9354771   4.9391888  78.7768547  57.5648704
   4.0819392  77.5415383  57.7409308   1.5674587  76.7892473  54.4024937
   2.0335039  77.6220464  54.3285239   2.0182087  76.3237454  55.1070195
   5.5526622  79.0444051  54.5404234   5.9957768  78.2951376  54.1423357
   4.6753132  79.0354188  54.1577965   0.6862403  85.5974393  50.0210832
   1.3813308  86.2181085  50.2398147   1.0285554  84.7469744  50.2963210
   2.5853827  83.0474098  51.5498163   3.1105151  83.3861371  50.8247483
   2.4976179  82.1121114  51.3661297   2.2747733  83.6807002  66.8549361
   1.4843276  83.6631141  66.3153860   2.0381087  84.2195296  67.6098397
   2.3945608  80.5299468  64.1682089   2.4443613  80.3649476  65.1097612
   2.2859531  79.6626727  63.7779970   3.8963805  82.9496410  64.4124111
   3.6048613  83.3126390  65.2487572   3.2835936  82.2363418  64.2337443
   5.0959487  80.5149290  56.9326681   5.9306378  80.9539094  57.0964241
   5.2318616  80.0387943  56.1134927   2.1450993  78.0729024  62.8804169
   2.6205114  78.2656671  62.0723020   1.2216558  78.1288210  62.6347553
   0.8452662  74.9494784  61.1132474   1.7970085  75.0492882  61.1344698
   0.6756112  74.1573053  61.6230559   0.6262548  85.3039165  47.0198455
   0.5476180  84.9699028  47.9134213   1.4472215  85.7960933  47.0189928
   3.3240740  78.1700904  60.2274774   3.2917060  77.2316905  60.4134458
   3.9341363  78.2484941  59.4940599   3.4735228  74.9611948  60.2733057
   2.9574277  74.1770404  60.0862986   4.3575177  74.6330664  60.4379577
   1.1345955  68.7052963  56.2328870   0.9370776  68.3968051  57.1172202
   1.7445661  69.4314602  56.3626800   9.1417289  79.2316911  59.3680811
   9.8720678  78.9702199  59.9288514   8.5324235  78.4945633  59.4082879
   7.2232587  77.3724774  59.9655262   6.4965750  77.2380738  59.3571754
   6.8079873  77.6801602  60.7711980   2.4037823  72.8809007  56.2614753
   3.1798213  73.3705459  56.5339370   1.6785957  73.3067061  56.7186623
   4.8410381  73.5936626  57.3188694   5.4354872  73.3532362  56.6082002
   4.9136965  72.8743756  57.9462230   2.8369116  74.1606753  53.5860823
   2.5806051  73.7603389  54.4169031   2.2121984  74.8750547  53.4610963
   7.1481454  76.9002827  56.0932115   6.5881012  76.9696016  56.8663677
   6.5424958  76.7243811  55.3731611   8.7337473  93.5759341  58.7862071
   9.3715883  93.4566088  58.0825411   8.6158316  94.5240184  58.8450023
   5.5427179  93.5286769  58.7223595   5.2045690  93.4127833  57.8344130
   6.4116947  93.1277934  58.7024601   1.4013995  95.3822245  54.7120486
   0.8378860  95.2912182  53.9436774   1.2866390  94.5622150  55.1922979
   6.0246962  94.6821620  64.6809801   6.0135603  94.2874419  63.8090304
   6.1867601  93.9487693  65.2743572   6.9813553  99.0493213  50.0234951
   6.3301533  99.6347293  49.6368965   7.7757916  99.5799408  50.0829989
   0.9069181  96.1382350  50.4222085   1.6800057  95.5911337  50.2834961
   1.2594579  97.0026599  50.6336547   2.7454223  97.4658732  63.6288985
   2.4544089  98.3704363  63.5135651   3.3811207  97.5075260  64.3433054
   3.6710430  94.8435581  60.2190344   4.2674002  94.6191603  59.5047307
   3.7285401  94.1020326  60.8215792   3.2435458  92.2975016  48.0540535
   3.4960979  91.7756537  47.2923998   2.3060017  92.1341161  48.1567219
   8.2878741  91.3010794  55.8615279   9.0741830  90.8830218  55.5105696
   8.5517445  92.2056887  56.0296927   8.4588819  96.7383645  50.5603935
   7.8234651  96.8118271  51.2724840   8.1286225  97.3277244  49.8823015
  13.6887168  91.2386028  56.7648257  14.4212340  90.6685244  56.9986087
  12.9326524  90.8507628  57.2054763   2.9631747  94.2003122  50.2564910
   2.8468005  93.5248025  50.9245995   3.0734007  93.7135496  49.4397063
   5.3063288  93.6613269  53.9611600   4.9421495  93.1343890  54.6724521
   6.1630404  93.2711738  53.7878085  11.2112589  84.9507602  61.2242866
  10.8795913  85.8203013  61.0004081  10.6158202  84.6343886  61.9036896
   4.9468775  88.6903169  48.9572948   5.1143177  89.5583405  49.3243419
   4.7565944  88.8530450  48.0334237   7.7044108  97.1520148  60.6238778
   7.4044831  98.0545186  60.5154586   7.3595168  96.8852331  61.4759931
  11.1041252  89.6702688  58.3036216  10.1958129  89.6018096  58.0094977
  11.0528848  90.1474633  59.1318041   4.9257996  91.1460826  49.9419615
   4.8057621  91.5917877  50.7805095   4.2310584  91.4946144  49.3833153
   2.6864888 103.9164468  53.5909746   2.6088918 104.8672293  53.6698227
   2.0826532 103.5710341  54.2484672   5.1782118  91.0892333  66.2471113
   4.4015452  91.6486254  66.2373978   5.8172681  91.5749116  66.7685983
  12.9702898  87.8719126  60.0814090  12.3277279  88.1651659  59.4353884
  12.4657827  87.7572047  60.8867286  10.6243062  91.6182299  50.7699949
  11.5360918  91.8509686  50.5947647  10.1152709  92.2019344  50.2075028
   3.4328490  93.8977787  65.8089080   4.1743174  94.4362831  65.5323904
   2.7265476  94.5244076  65.9660632   8.9083830  96.0406927  64.4061242
   9.3167186  95.5989338  63.6615874   8.1861091  95.4659555  64.6595434
   5.2614900  90.9779534  61.7794799   6.1076095  91.4018948  61.9229448
   5.2013537  90.3213158  62.4733362   9.2312644  96.6008118  58.1613530
   8.6021507  96.7653832  57.4589598   8.8438306  97.0149727  58.9324494
  13.1101876  97.5362556  55.5157894  12.4252914  97.9161457  54.9654928
  13.1945726  98.1457882  56.2489842   8.4114345  88.6383902  63.4375972
   8.1675277  89.3925963  62.9010248   8.6874276  89.0169250  64.2723219
  10.3652808  95.1822515  62.1153238  10.5769703  95.8254275  61.4387619
  10.3182556  94.3484831  61.6475168   7.9679037  87.7940335  59.0189810
   7.1063516  88.0921589  59.3106547   7.9941471  88.0110734  58.0870843
   4.7840606  96.3382526  55.4263616   5.2478952  96.6170229  54.6368238
   4.5197404  95.4365971  55.2436706   1.6764687  95.8854008  58.3643379
   2.2466044  96.3141276  57.7260863   2.2672799  95.6036592  59.0627564
   3.7209492  92.4605678  52.2353181   4.4233536  92.9126722  52.7027107
   3.3890121  91.8189497  52.8633074   2.1689854  91.0517435  66.6104390
   1.5388514  91.7333716  66.8439787   2.0625942  90.9400517  65.6657528
  11.4798636  98.0594470  60.2875595  12.3016080  97.6574657  60.0058277
  11.4761039  97.9562704  61.2391711   5.2455239  97.6078513  62.4436306
   5.3099672  98.0698921  63.2794477   4.5366163  96.9775878  62.5718615
  19.5704629  94.4033219  56.6360567  18.8168337  93.8340617  56.4804571
  19.7052170  94.3695883  57.5831201   4.9603257  99.2746621  52.3115286
   4.8248932 100.1198157  52.7400134   5.5013069  99.4765899  51.5481220
   1.4470597  85.3538201  68.9729641   1.0537542  84.8004399  69.6477285
   2.2636737  85.6648779  69.3636159   4.3638558  86.7696080  66.5649898
   5.1048271  87.3703233  66.4854360   4.5956480  86.0273718  66.0067940
   6.5871733  99.8970187  66.4415628   6.1435587  99.1106566  66.1236532
   7.2488947 100.0849338  65.7759519   1.3458854 101.4265989  60.9676307
   1.8966280 101.2983052  60.1953300   0.5070330 101.7260878  60.6171199
   8.6852971 100.1772987  64.4697029   8.6671447 100.9981868  63.9777298
   9.6072891 100.0527063  64.6947170   5.1426025  97.6917117  65.3120538
   5.6754362  96.9305405  65.0819846   4.6140107  97.3990769  66.0544692
   8.3095720  82.7977183  60.8414179   7.9659990  83.6878825  60.7653290
   8.6774683  82.6078841  59.9783764   8.2746003  92.7885794  49.3486614
   7.7592627  93.5590399  49.5875002   8.0023312  92.1150930  49.9719676
   5.8593114  87.6335495  54.4071853   5.0034711  87.2442345  54.2277492
   6.2720066  87.7127456  53.5471638   7.3892261  85.1681838  58.8063413
   6.8857056  85.1311973  57.9931218   7.6822868  86.0774581  58.8660069
   3.6335147  85.2520568  57.8129594   4.4988143  85.0563376  57.4535484
   3.7012656  85.0230920  58.7398951  13.2480277  95.5418149  51.2839788
  12.4709720  95.2029308  50.8394950  13.9271758  95.5470772  50.6094753
   8.0632306  90.6612886  51.1746396   7.7582442  90.9759035  52.0256539
   9.0162748  90.7394306  51.2173729   6.5078738  96.8203109  52.8239350
   5.9800100  96.0855869  52.5112587   6.0066241  97.5977786  52.5779318
  11.4871584  95.0152130  57.9406396  10.8295259  95.7051391  58.0286525
  12.2911983  95.4048562  58.2840382   1.2397466  87.4822776  55.1845961
   1.8141218  87.2597957  54.4519154   1.8268448  87.5511470  55.9374562
  10.2977043  93.3696503  55.9910338  10.8108925  94.0026494  56.4932047
  10.9478267  92.7697698  55.6253698   1.5667053  89.5127237  49.2041846
   0.7304365  89.8501923  49.5251121   1.4271823  89.3776216  48.2668983
   3.5420134  84.3564025  53.9121031   2.8884546  84.0413042  53.2877645
   3.5000608  83.7339765  54.6380854   4.6531338  94.6383320  45.8274323
   3.7458400  94.4072573  46.0265472   5.1502370  93.8420939  46.0148304
   7.5599417 103.3480827  48.7471009   6.8861116 103.6512524  49.3555967
   7.9465239 104.1509907  48.3976466   6.7757874  90.8445958  58.2368678
   5.8580435  91.0660905  58.0790366   7.1918017  90.9192269  57.3780386
   7.5592922  92.2437374  53.3671358   8.3064741  92.7558771  53.0578481
   7.8284511  91.9221427  54.2275752   5.8319572  94.7395915  50.3498313
   4.9230791  94.4554947  50.4470783   5.8614656  95.1594993  49.4901620
  11.0638839  98.3502504  54.1189480  10.6101166  97.5093414  54.1754671
  10.4332806  98.9863902  54.4564260  10.0071759  89.2794490  55.3490148
   9.2694516  88.7671876  55.6800390  10.2598532  88.8394872  54.5373425
   9.5071778 100.1879001  55.0539298   9.7994753 100.7484058  54.3351664
  10.0170399 100.4807562  55.8092458  10.1083386  82.0570742  55.9431917
  10.4142263  81.1968105  55.6557832  10.8335991  82.6488362  55.7430911
   4.3804466  92.3524535  56.4508108   4.4353076  91.3998372  56.3750585
   3.5695668  92.5083974  56.9349407   5.5295660  96.2804658  47.6886391
   5.0915090  95.5640517  47.2292029   6.2706100  96.5080773  47.1271483
   2.3196826  90.9701595  54.2098487   1.5064691  91.2695765  54.6163679
   2.8155820  90.5757284  54.9272969   4.4705404 100.9659352  56.1432752
   4.4281582 101.1920198  55.2141284   5.3868103 100.7322726  56.2918553
   7.9171037  91.4343419  63.0413381   8.2720425  91.6614892  63.9007847
   8.5643169  91.7661796  62.4190636  13.6468774  94.5561855  53.7462710
  13.5086673  94.7463451  52.8183899  13.2904993  95.3181238  54.2030761
   1.8110901  88.5419950  59.8259722   2.4510280  88.4008709  59.1282685
   0.9788431  88.2554464  59.4498324  13.6738154  96.6238382  58.7573981
  14.1074661  96.5313671  59.6057035  14.3869735  96.5995883  58.1193997
   2.5871204  97.8422381  55.9394714   3.3811803  97.3472701  55.7377289
   1.8762897  97.3140244  55.5762420   7.4066049 100.2240476  60.2907082
   7.4603071 100.7931413  61.0584798   6.5380830 100.3942361  59.9261119
  14.5353704  96.6662083  61.2906867  14.7289594  97.5707893  61.5366142
  14.4354322  96.2069502  62.1245452   6.1890014  86.5519973  63.7897194
   5.5417929  87.2509923  63.6961671   6.9591030  86.9856117  64.1573442
   9.5968812  96.8168826  66.8647747   9.4454319  96.5879377  65.9477831
   9.5873492  97.7739427  66.8779092   6.3654149  94.3900738  61.8494014
   7.2946209  94.5411898  61.6762981   5.9445179  94.4784759  60.9942660
   5.1642480  98.4151403  59.6192551   5.0253566  98.0470187  60.4918490
   4.3757077  98.9299042  59.4476509   5.7590632 103.5160499  50.9618088
   5.9342388 103.0448542  51.7763711   5.0723420 104.1426265  51.1899349
   6.7147696  97.7933005  57.0081389   6.3797528  97.7533775  57.9039039
   6.2151641  97.1277721  56.5351800   0.6891940  93.2000636  62.5333970
   0.5511737  92.4680874  63.1345509   1.5996863  93.1109536  62.2518158
   9.6506887  95.1389040  47.2818449   9.0336058  94.4135868  47.1851502
   9.1823376  95.8998400  46.9385523   3.3174240  92.9120595  62.0217650
   4.0273859  92.2713787  61.9804269   3.2743548  93.1633490  62.9443831
  11.3061019  99.8487948  64.9424229  11.2473565  99.1647168  64.2754812
  11.7080537 100.5906938  64.4904855   2.0303174  89.8985813  63.8413290
   1.4940531  89.4476551  64.4934886   1.4419883  90.0331722  63.0983754
   1.4405433  89.3574464  46.4039753   0.5634899  89.2363265  46.0402000
   1.9163186  88.5660542  46.1518642  11.3078426  97.8127532  63.1738209
  10.4205205  97.4753454  63.2964608  11.8776977  97.0810563  63.4106974
   4.8379580 102.4728984  60.1399452   4.7649751 103.2783956  60.6518757
   4.3956973 102.6720950  59.3147474   4.6269359 101.7100754  53.6502274
   3.8436881 102.2522435  53.7440498   5.3262104 102.2274734  54.0496515
   7.9366009  87.5195384  56.2936479   8.4334709  86.7665346  55.9737549
   7.1652991  87.5559701  55.7279688  15.7895767  93.2235749  57.9354771
  15.7785643  94.1060465  57.5648704  14.9213146  92.8707300  57.7409308
   7.2978263 102.3715818  62.2957611   8.0106235 103.0063283  62.2233512
   6.8068292 102.4679684  61.4797613   9.0195790  96.2767071  53.8674903
   8.0852069  96.3968534  53.6979607   9.1972458  95.3739538  53.6034912
   4.5200978  89.6612767  56.0208164   4.1498766  89.1083807  56.7089069
   5.0160070  89.0570900  55.4683164  12.4068341  92.1184390  54.4024937
  12.8728794  92.9512382  54.3285239  12.8575842  91.6529372  55.1070195
   2.3490177 100.1210262  63.1163182   3.0499636 100.7546745  63.2692576
   1.8785292 100.4624994  62.3558821  10.4744572  98.4628212  51.4011089
  10.7504416  98.3484806  52.3104963   9.6049071  98.0645697  51.3623262
  10.3785004  84.4864977  58.4415838   9.4648084  84.7169204  58.6098045
  10.8078106  84.5703422  59.2929870  10.1491463  92.6754869  60.9415732
   9.4962913  92.9230777  60.2868185  10.5271842  91.8619008  60.6078209
   7.1098636 102.7114563  55.0443902   7.2921031 101.8936219  55.5071655
   7.9331622 102.9282255  54.6068792   7.4440802 101.6382748  52.3058951
   7.9728568 101.1275202  51.6929113   7.7069022 101.3225278  53.1704484
   6.1979036  93.4174680  67.4281769   5.5219673  93.3168810  68.0984144
   7.0206669  93.2613894  67.8917766   4.9401818 104.7241608  61.6639385
   5.4920126 104.8873229  62.4288470   5.2808012 105.3146046  60.9919410
   9.7912693  99.5502865  67.5188040  10.3352597 100.1632824  67.0242994
   9.2099538 100.1082444  68.0355053   8.0770206 102.6723583  58.6503067
   7.9521345 101.8713323  58.1414013   8.7349297 103.1669777  58.1617037
  10.1405114 100.4732604  60.2782617   9.1935450 100.3537955  60.2060944
  10.4887887  99.5855102  60.3608879   2.5004688  86.3626742  64.1020859
   3.0239089  86.6089039  64.8647169   2.2817021  87.1946777  63.6823997
   7.1451547 100.2685320  56.4786970   6.9976510  99.3402027  56.6594540
   7.9705041 100.2905410  55.9944045   1.0113792  88.9203387  52.3367462
   1.3509864  89.4489308  51.6146070   1.4585912  89.2583793  53.1126028
  10.7485669 101.0913878  57.5651842  11.6732217 100.8856740  57.4276293
  10.5800973 100.8430280  58.4741184   3.7057233  87.3040438  61.7870530
   3.3654053  86.5048251  62.1891210   2.9996239  87.6042148  61.2147363
   4.3573704  84.3889750  60.2397853   5.1799774  83.9150228  60.1176743
   4.6011768  85.1680234  60.7396539   2.9981939  87.4178008  50.5360754
   3.7190301  87.7959261  50.0324471   2.3747243  88.1366885  50.6395732
   7.1413062  88.1223157  51.4719087   7.3576676  89.0047795  51.1707915
   6.6607129  87.7309371  50.7424729   1.8812283  91.0808871  58.0489831
   1.7356864  91.3949174  58.9414113   1.4037487  91.6993771  57.4960730
   3.7408666  88.0711419  58.0970721   3.7270235  87.1752512  57.7603019
   4.4581094  88.0782082  58.7309007   5.5934797  88.5048759  60.1423848
   5.3352575  89.4265829  60.1408179   5.0619837  88.1079193  60.8324313
  10.5380985 101.6099546  52.9213934  10.7117863 101.0445968  52.1687786
  11.0309877 102.4100441  52.7393424   3.1445562  86.9525799  53.3658291
   3.2661473  86.0242445  53.5649179   2.8547604  86.9664485  52.4536607
   6.0136752  84.6380709  56.5025011   6.0358449  84.7020042  55.5476990
   6.4304811  83.7985218  56.6965517  16.3920377  94.3735969  54.5404234
  16.8351523  93.6243294  54.1423357  15.5146887  94.3646105  54.1577965
  11.5256158 100.9266310  50.0210832  12.2207063 101.5473003  50.2398147
  11.8679308 100.0761662  50.2963210  13.4247581  98.3766016  51.5498163
  13.9498905  98.7153289  50.8247483  13.3369934  97.4413031  51.3661297
   5.0867630 102.2900090  63.6788039   5.3954756 102.0449236  64.5510739
   5.8843112 102.4946728  63.1906910   5.1088242 104.4437999  55.9093416
   4.6693232 103.9514378  56.6026273   5.8596359 103.9010967  55.6685491
   2.5562114  99.9876008  57.9815718   1.9342123  99.3246713  57.6817946
   3.2266981 100.0137140  57.2989365   2.6286641  88.4657796  67.5748224
   2.6774797  89.3419919  67.1925993   3.1709156  87.9235189  67.0019867
  13.1141487  99.0098920  66.8549361  12.3237031  98.9923058  66.3153860
  12.8774842  99.5487213  67.6098397  13.2339362  95.8591386  64.1682089
  13.2837367  95.6941393  65.1097612  13.1253286  94.9918645  63.7779970
   2.1175621  98.5379932  51.4574178   2.2663741  99.2215396  50.8040851
   2.9242064  98.5185022  51.9723634  10.5243125  91.8422314  65.4841396
  11.4252987  91.7028779  65.1925394  10.5991099  92.0076769  66.4239573
   4.8585930  89.2189169  64.3294582   3.9889239  89.5122735  64.0577171
   5.0945410  89.8029614  65.0501846  14.7357559  98.2788327  64.4124111
  14.4442367  98.6418308  65.2487572  14.1229690  97.5655336  64.2337443
  15.9353241  95.8441207  56.9326681  16.7700133  96.2831011  57.0964241
  16.0712370  95.3679860  56.1134927  12.9844747  93.4020942  62.8804169
  13.4598869  93.5948588  62.0723020  12.0610313  93.4580128  62.6347553
   7.5624964  85.4368786  61.8460003   8.0806908  86.1729813  61.5206491
   7.2080097  85.7432779  62.6806762   7.8137558  81.8569068  57.3660899
   8.0939312  81.1892257  57.9921326   8.5988165  82.0498164  56.8535563
   5.6171026 101.0328062  48.9285926   5.0444994 101.6518249  48.4756398
   6.1903820 101.5827424  49.4625848  11.6846416  90.2786702  61.1132474
  12.6363839  90.3784800  61.1344698  11.5149867  89.4864971  61.6230559
   9.7060796  87.3642285  61.2991875   9.1110728  87.6447298  60.6038364
   9.4210492  87.8536186  62.0708616   8.8368286 101.3165212  50.0594508
   9.7698959 101.2510774  50.2627383   8.7491499 102.1521479  49.6009041
  11.4656303 100.6331082  47.0198455  11.3869934 100.2990946  47.9134213
  12.2865970 101.1252850  47.0189928  14.1634494  93.4992822  60.2274774
  14.1310814  92.5608823  60.4134458  14.7735118  93.5776859  59.4940599
   6.0017825  92.3688875  46.2701978   6.9476930  92.2395083  46.3390396
   5.6232070  91.6303537  46.7471406  14.3128983  90.2903865  60.2733057
  13.7968031  89.5062322  60.0862986  15.1968931  89.9622582  60.4379577
  11.9739709  84.0344881  56.2328870  11.7764531  83.7259969  57.1172202
  12.5839415  84.7606520  56.3626800  19.9811044  94.5608829  59.3680811
  20.7114432  94.2994117  59.9288514  19.3717989  93.8237551  59.4082879
  18.0626341  92.7016691  59.9655262  17.3359505  92.5672656  59.3571754
  17.6473628  93.0093520  60.7711980   5.8856517  96.4206621  67.7302635
   6.8059527  96.5985220  67.9242682   5.8506100  95.4762666  67.5782334
   4.1860742  90.2938851  46.2056863   3.2792197  89.9971964  46.2819577
   4.4636723  89.9968669  45.3391150   5.8022808  84.8375741  52.3601105
   4.9923536  84.4922826  52.7356351   6.4907225  84.5283285  52.9488716
   7.7313356  83.9153788  53.9825401   8.2844395  84.3349241  54.6415424
   7.9683442  82.9889536  54.0248357   3.7546455  89.9040861  69.7628165
   3.6543182  90.8535218  69.6940256   3.5367997  89.5759100  68.8904235
   2.9559527  87.1525786  46.3468843   3.8178691  87.4780685  46.6064660
   3.1409871  86.3657282  45.8341908  11.1092163  86.0254313  53.4904066
  10.5290832  86.6839117  53.1082118  10.8428096  85.2031657  53.0791483
   9.5595730  85.4259371  55.6925386  10.0595508  85.5375905  54.8839705
  10.2031337  85.1220423  56.3326194   3.6177725  93.3338000  68.5793227
   3.1344807  94.1338360  68.7857116   3.7038664  93.3445945  67.6260671
   9.8917041  88.1854403  52.5460414   9.0042896  88.4704054  52.3280609
  10.3071030  88.0248167  51.6987691  13.2431577  88.2100924  56.2614753
  14.0191967  88.6997377  56.5339370  12.5179711  88.6358978  56.7186623
  15.6804136  88.9228543  57.3188694  16.2748627  88.6824279  56.6082002
  15.7530720  88.2035674  57.9462230   9.0360255  97.9499078  46.6408434
   9.7396105  98.1549080  47.2566089   8.3122903  98.5175840  46.9057517
   9.8658065  93.7008939  52.7610704   9.8093266  94.1577491  51.9218336
  10.4186407  92.9399624  52.5833547  13.6762871  89.4898671  53.5860823
  13.4199805  89.0895307  54.4169031  13.0515739  90.2042465  53.4610963
  17.9875209  92.2294744  56.0932115  17.4274767  92.2987934  56.8663677
  17.3818712  92.0535729  55.3731611  10.9446952  98.3881607  48.6906894
  11.7792556  97.9562806  48.5084369  10.7831295  98.2163621  49.6183788
  10.5992844  94.8913720  50.0563233  10.5441648  94.7257992  49.1151677
   9.9738900  95.5989753  50.2125423   7.9138751  97.1962632  69.3816796
   8.7829911  97.3703285  69.0203431   7.4345503  98.0157049  69.2592525
   3.9088970  84.3921829  49.6348552   3.8967640  85.3363669  49.7916822
   4.8012392  84.2091975  49.3408013   2.0824932 104.3159733  61.0606230
   2.9852178 104.3483344  61.3772725   1.8562302 103.3860184  61.0752565
   3.8378534 103.0690720  57.7216308   2.8874165 103.0692581  57.6080680
   4.1411020 102.3223454  57.2052343   7.7241089  80.9864606  53.8894488
   6.9573485  80.4323093  54.0351171   8.1351794  81.0586475  54.7508640
  19.5731227 108.9051258  58.7862071  20.2109637 108.7858006  58.0825411
  19.4552070 109.8532102  58.8450023  16.3820933 108.8578686  58.7223595
  16.0439445 108.7419751  57.8344130  17.2510702 108.4569851  58.7024601
  12.2407749 110.7114163  54.7120486  11.6772614 110.6204100  53.9436774
  12.1260144 109.8914067  55.1922979  16.8640716 110.0113538  64.6809801
  16.8529357 109.6166336  63.8090304  17.0261356 109.2779611  65.2743572
   9.7872181 112.2065354  57.5504707  10.5793473 111.8656179  57.1351006
  10.0268831 112.3160329  58.4706860  17.8207308 114.3785130  50.0234951
  17.1695288 114.9639211  49.6368965  18.6151671 114.9091325  50.0829989
  11.7462935 111.4674268  50.4222085  12.5193811 110.9203255  50.2834961
  12.0988334 112.3318517  50.6336547  13.5847978 112.7950650  63.6288985
  13.2937844 113.6996281  63.5135651  14.2204962 112.8367177  64.3433054
  14.5104184 110.1727498  60.2190344  15.1067757 109.9483521  59.5047307
  14.5679156 109.4312244  60.8215792  14.0829213 107.6266934  48.0540535
  14.3354734 107.1048455  47.2923998  13.1453772 107.4633079  48.1567219
  19.1272496 106.6302712  55.8615279  19.9135585 106.2122135  55.5105696
  19.3911200 107.5348804  56.0296927  19.2982573 112.0675562  50.5603935
  18.6628406 112.1410189  51.2724840  18.9679979 112.6569161  49.8823015
  24.5280923 106.5677945  56.7648257  25.2606095 105.9977162  56.9986087
  23.7720278 106.1799546  57.2054763  13.8025502 109.5295040  50.2564910
  13.6861760 108.8539943  50.9245995  13.9127761 109.0427414  49.4397063
  16.1457042 108.9905187  53.9611600  15.7815250 108.4635808  54.6724521
  17.0024158 108.6003656  53.7878085  22.0506343 100.2799519  61.2242866
  21.7189668 101.1494930  61.0004081  21.4551957  99.9635803  61.9036896
  15.7862529 104.0195086  48.9572948  15.9536932 104.8875323  49.3243419
  15.5959699 104.1822368  48.0334237  18.5437863 112.4812065  60.6238778
  18.2438586 113.3837104  60.5154586  18.1988922 112.2144249  61.4759931
  11.9950344 108.9325862  56.6575483  11.0700841 108.8002076  56.8653175
  12.2434757 109.7120081  57.1545425  21.9435006 104.9994606  58.3036216
  21.0351884 104.9310014  58.0094977  21.8922602 105.4766550  59.1318041
  15.7651750 106.4752744  49.9419615  15.6451376 106.9209795  50.7805095
  15.0704339 106.8238062  49.3833153   9.3559155 108.5759136  57.4919272
   9.4851536 108.8293615  58.4058684   8.6756606 109.1686844  57.1723927
  13.5258642 119.2456386  53.5909746  13.4482672 120.1964211  53.6698227
  12.9220286 118.9002258  54.2484672  16.0175872 106.4184251  66.2471113
  15.2409206 106.9778171  66.2373978  16.6566435 106.9041034  66.7685983
  23.8096653 103.2011044  60.0814090  23.1671033 103.4943577  59.4353884
  23.3051581 103.0863964  60.8867286  21.4636817 106.9474217  50.7699949
  22.3754673 107.1801604  50.5947647  20.9546464 107.5311261  50.2075028
  14.2722245 109.2269704  65.8089080  15.0136929 109.7654748  65.5323904
  13.5659230 109.8535993  65.9660632  19.7477584 111.3698845  64.4061242
  20.1560940 110.9281255  63.6615874  19.0254846 110.7951472  64.6595434
  16.1008654 106.3071452  61.7794799  16.9469849 106.7310865  61.9229448
  16.0407292 105.6505076  62.4733362  20.0706399 111.9300036  58.1613530
  19.4415261 112.0945750  57.4589598  19.6832061 112.3441645  58.9324494
  23.9495631 112.8654473  55.5157894  23.2646669 113.2453375  54.9654928
  24.0339480 113.4749800  56.2489842  19.2508100 103.9675820  63.4375972
  19.0069031 104.7217881  62.9010248  19.5268030 104.3461168  64.2723219
  21.2046562 110.5114432  62.1153238  21.4163458 111.1546192  61.4387619
  21.1576311 109.6776749  61.6475168  18.8072791 103.1232253  59.0189810
  17.9457270 103.4213507  59.3106547  18.8335226 103.3402652  58.0870843
  15.6234361 111.6674444  55.4263616  16.0872706 111.9462147  54.6368238
  15.3591159 110.7657888  55.2436706  12.5158442 111.2145925  58.3643379
  13.0859799 111.6433194  57.7260863  13.1066554 110.9328510  59.0627564
  14.5603247 107.7897596  52.2353181  15.2627290 108.2418640  52.7027107
  14.2283875 107.1481415  52.8633074  13.0083608 106.3809353  66.6104390
  12.3782269 107.0625634  66.8439787  12.9019696 106.2692434  65.6657528
   8.3028581 106.0481149  57.5370314   7.5127635 106.3038677  57.0610425
   8.7939828 106.8629487  57.6422355  22.3192390 113.3886388  60.2875595
  23.1409834 112.9866575  60.0058277  22.3154793 113.2854622  61.2391711
  10.2543326 106.4125728  54.4953791   9.4574489 106.5244422  55.0137287
  10.0268918 106.7512380  53.6294681  16.0848994 112.9370431  62.4436306
  16.1493426 113.3990838  63.2794477  15.3759918 112.3067796  62.5718615
   6.5866284 106.3011639  59.9685305   6.8374322 107.1858649  60.2342881
   7.1225832 106.1216241  59.1960397  30.4098383 109.7325136  56.6360567
  29.6562092 109.1632534  56.4804571  30.5445925 109.6987801  57.5831201
  15.7997011 114.6038539  52.3115286  15.6642686 115.4490074  52.7400134
  16.3406824 114.8057816  51.5481220  12.2864351 100.6830119  68.9729641
  11.8931297 100.1296317  69.6477285  13.1030491 100.9940697  69.3636159
   9.2526409 112.1213977  52.8843211   9.7650929 112.9157227  53.0348776
   9.9049122 111.4240267  52.8176812  11.0621293 115.2379733  54.9665964
  11.2387922 116.1597698  54.7786948  11.8578127 114.9238152  55.3960344
  15.2032312 102.0987998  66.5649898  15.9442025 102.6995151  66.4854360
  15.4350235 101.3565635  66.0067940  10.3473650 107.2844365  64.8428127
  10.2327165 106.3829622  65.1435226   9.4918168 107.5308062  64.4912944
  17.4265488 115.2262105  66.4415628  16.9829342 114.4398484  66.1236532
  18.0882701 115.4141256  65.7759519  12.1852609 116.7557907  60.9676307
  12.7360034 116.6274970  60.1953300  11.3464085 117.0552796  60.6171199
  19.5246726 115.5064905  64.4697029  19.5065201 116.3273786  63.9777298
  20.4466646 115.3818980  64.6947170  15.9819780 113.0209035  65.3120538
  16.5148117 112.2597323  65.0819846  15.4533861 112.7282686  66.0544692
  19.1489475  98.1269101  60.8414179  18.8053744  99.0170742  60.7653290
  19.5168438  97.9370758  59.9783764   7.2175326 110.4502631  53.6602782
   8.0550548 110.8599639  53.4436489   7.3953593 109.5102073  53.6302975
  19.1139758 108.1177712  49.3486614  18.5986381 108.8882316  49.5875002
  18.8417066 107.4442848  49.9719676  16.6986869 102.9627412  54.4071853
  15.8428465 102.5734263  54.2277492  17.1113820 103.0419373  53.5471638
  18.2286015 100.4973756  58.8063413  17.7250811 100.4603891  57.9931218
  18.5216622 101.4066498  58.8660069  14.4728901 100.5812485  57.8129594
  15.3381898 100.3855294  57.4535484  14.5406410 100.3522837  58.7398951
  24.0874032 110.8710066  51.2839788  23.3103475 110.5321226  50.8394950
  24.7665513 110.8762689  50.6094753  18.9026061 105.9904804  51.1746396
  18.5976196 106.3050953  52.0256539  19.8556503 106.0686224  51.2173729
  17.3472493 112.1495027  52.8239350  16.8193854 111.4147787  52.5112587
  16.8459995 112.9269703  52.5779318  22.3265339 110.3444048  57.9406396
  21.6689013 111.0343309  58.0286525  23.1305738 110.7340479  58.2840382
  12.0791220 102.8114693  55.1845961  12.6534972 102.5889875  54.4519154
  12.6662203 102.8803388  55.9374562  21.1370798 108.6988420  55.9910338
  21.6502679 109.3318412  56.4932047  21.7872021 108.0989616  55.6253698
  12.4060807 104.8419154  49.2041846  11.5698120 105.1793841  49.5251121
  12.2665577 104.7068134  48.2668983  14.3813888  99.6855942  53.9121031
  13.7278300  99.3704959  53.2877645  14.3394362  99.0631683  54.6380854
  15.4925093 109.9675237  45.8274323  14.5852155 109.7364491  46.0265472
  15.9896125 109.1712857  46.0148304  18.3993172 118.6772745  48.7471009
  17.7254871 118.9804441  49.3555967  18.7858994 119.4801825  48.3976466
  17.6151628 106.1737876  58.2368678  16.6974190 106.3952823  58.0790366
  18.0311772 106.2484186  57.3780386  18.3986676 107.5729291  53.3671358
  19.1458495 108.0850689  53.0578481  18.6678266 107.2513344  54.2275752
  16.6713326 110.0687832  50.3498313  15.7624546 109.7846865  50.4470783
  16.7008410 110.4886911  49.4901620  21.9032594 113.6794422  54.1189480
  21.4494921 112.8385332  54.1754671  21.2726560 114.3155820  54.4564260
  20.8465513 104.6086408  55.3490148  20.1088270 104.0963794  55.6800390
  21.0992287 104.1686789  54.5373425  20.3465533 115.5170918  55.0539298
  20.6388507 116.0775975  54.3351664  20.8564154 115.8099479  55.8092458
  20.9477141  97.3862660  55.9431917  21.2536017  96.5260023  55.6557832
  21.6729745  97.9780280  55.7430911   7.2401497 107.7893346  54.3313515
   7.0425896 107.1962707  53.6064582   6.6848161 107.4845557  55.0489454
  15.2198220 107.6816453  56.4508108  15.2746830 106.7290289  56.3750585
  14.4089422 107.8375892  56.9349407  16.3689414 111.6096576  47.6886391
  15.9308844 110.8932435  47.2292029  17.1099855 111.8372691  47.1271483
  13.1590580 106.2993513  54.2098487  12.3458446 106.5987683  54.6163679
  13.6549574 105.9049201  54.9272969  15.3099158 116.2951269  56.1432752
  15.2675337 116.5212116  55.2141284  16.2261857 116.0614644  56.2918553
  18.7564792 106.7635337  63.0413381  19.1114180 106.9906810  63.9007847
  19.4036923 107.0953714  62.4190636  24.4862529 109.8853773  53.7462710
  24.3480427 110.0755369  52.8183899  24.1298748 110.6473156  54.2030761
  12.6504655 103.8711868  59.8259722  13.2904034 103.7300627  59.1282685
  11.8182186 103.5846381  59.4498324  24.5131908 111.9530300  58.7573981
  24.9468415 111.8605589  59.6057035  25.2263489 111.9287800  58.1193997
  13.4264959 113.1714298  55.9394714  14.2205557 112.6764619  55.7377289
  12.7156651 112.6432162  55.5762420  18.2459803 115.5532394  60.2907082
  18.2996826 116.1223330  61.0584798  17.3774585 115.7234279  59.9261119
   9.7347722 107.3157380  52.0154467   8.8045310 107.2541836  52.2324429
   9.8305194 106.7933333  51.2191108   9.6533271 103.8412193  54.6032709
   9.9140089 104.7557526  54.4941869  10.4750444 103.3736636  54.7529322
  11.1258197 105.2549950  61.7731533  11.7981250 105.0467312  61.1244182
  10.2987983 105.0572036  61.3336766  25.3747458 111.9954001  61.2906867
  25.5683348 112.8999811  61.5366142  25.2748076 111.5361420  62.1245452
  17.0283769 101.8811891  63.7897194  16.3811684 102.5801841  63.6961671
  17.7984784 102.3148035  64.1573442  20.4362567 112.1460743  66.8647747
  20.2848073 111.9171295  65.9477831  20.4267246 113.1031345  66.8779092
  17.2047903 109.7192656  61.8494014  18.1339963 109.8703816  61.6762981
  16.7838933 109.8076677  60.9942660  16.0036235 113.7443320  59.6192551
  15.8647321 113.3762105  60.4918490  15.2150831 114.2590960  59.4476509
  16.5984387 118.8452417  50.9618088  16.7736143 118.3740460  51.7763711
  15.9117175 119.4718183  51.1899349  17.5541450 113.1224923  57.0081389
  17.2191283 113.0825693  57.9039039  17.0545396 112.4569639  56.5351800
  11.5285694 108.5292553  62.5333970  11.3905492 107.7972792  63.1345509
  12.4390617 108.4401453  62.2518158  20.4900642 110.4680958  47.2818449
  19.8729812 109.7427786  47.1851502  20.0217130 111.2290318  46.9385523
  14.1567995 108.2412513  62.0217650  14.8667613 107.6005705  61.9804269
  14.1137303 108.4925407  62.9443831  22.1454773 115.1779866  64.9424229
  22.0867320 114.4939086  64.2754812  22.5474292 115.9198856  64.4904855
  12.8696929 105.2277730  63.8413290  12.3334286 104.7768469  64.4934886
  12.2813637 105.3623639  63.0983754  11.1645472 121.9941780  57.7357948
  11.4042070 122.6260304  58.4136967  10.3214669 121.6429820  58.0223307
  12.2799188 104.6866382  46.4039753  11.4028654 104.5655183  46.0402000
  12.7556941 103.8952460  46.1518642  22.1472181 113.1419450  63.1738209
  21.2598959 112.8045372  63.2964608  22.7170732 112.4102481  63.4106974
   3.8001328 109.4743542  56.4981260   4.4872368 109.1605272  55.9102276
   3.6449456 110.3784906  56.2248512   8.6036050 104.3633738  60.9266284
   8.5194239 103.7559408  60.1916694   7.7818756 104.8542756  60.9275780
  15.6773334 117.8020902  60.1399452  15.6043506 118.6075874  60.6518757
  15.2350727 118.0012868  59.3147474  15.4663114 117.0392672  53.6502274
  14.6830636 117.5814352  53.7440498  16.1655859 117.5566652  54.0496515
  18.7759764 102.8487302  56.2936479  19.2728463 102.0957264  55.9737549
  18.0046745 102.8851618  55.7279688  26.6289521 108.5527667  57.9354771
  26.6179397 109.4352383  57.5648704  25.7606901 108.1999218  57.7409308
  18.1372018 117.7007736  62.2957611  18.8499990 118.3355201  62.2233512
  17.6462046 117.7971602  61.4797613  19.8589544 111.6058989  53.8674903
  18.9245823 111.7260451  53.6979607  20.0366213 110.7031456  53.6034912
  15.3594733 104.9904685  56.0208164  14.9892520 104.4375725  56.7089069
  15.8553825 104.3862818  55.4683164  23.2462096 107.4476308  54.4024937
  23.7122548 108.2804300  54.3285239  23.6969596 106.9821290  55.1070195
  13.1883931 115.4502180  63.1163182  13.8893391 116.0838663  63.2692576
  12.7179046 115.7916911  62.3558821  21.3138327 113.7920129  51.4011089
  21.5898171 113.6776724  52.3104963  20.4442826 113.3937614  51.3623262
  21.2178759  99.8156895  58.4415838  20.3041838 100.0461122  58.6098045
  21.6471860  99.8995339  59.2929870  20.9885217 108.0046787  60.9415732
  20.3356667 108.2522695  60.2868185  21.3665597 107.1910925  60.6078209
  17.9492391 118.0406480  55.0443902  18.1314785 117.2228136  55.5071655
  18.7725377 118.2574173  54.6068792  18.2834556 116.9674665  52.3058951
  18.8122323 116.4567120  51.6929113  18.5462776 116.6517196  53.1704484
  17.0372790 108.7466598  67.4281769  16.3613427 108.6460727  68.0984144
  17.8600424 108.5905812  67.8917766   8.7851649 114.9838535  60.0494284
   9.3705086 114.2382223  60.1822189   8.5876488 115.2942491  60.9330948
  11.6390304 118.0189782  55.0656727  10.9700680 118.5035910  54.5820767
  11.5003174 118.2659003  55.9800105   3.3769304 107.5544135  58.7698727
   3.4153403 107.0207726  59.5635846   2.8709597 107.0279340  58.1509705
  15.7795573 120.0533526  61.6639385  16.3313881 120.2165147  62.4288470
  16.1201766 120.6437963  60.9919410  10.7560066 102.4008675  62.2661270
  10.8201393 103.2623506  61.8538667  10.6927186 101.7882677  61.5333628
  10.2312339 104.4731808  65.9134304  10.8584378 104.0908885  66.5271828
   9.3740258 104.2546010  66.2789997  20.6306447 114.8794783  67.5188040
  21.1746351 115.4924741  67.0242994  20.0493292 115.4374362  68.0355053
   7.0077881 106.2808237  51.8452659   7.3031323 105.3718915  51.7919713
   6.1065917 106.2595976  51.5233661  18.9163960 118.0015501  58.6503067
  18.7915100 117.2005241  58.1414013  19.5743051 118.4961694  58.1617037
  10.5372128 104.3564234  57.8280207   9.8158714 104.9700201  57.6887681
  11.3265384 104.8921998  57.7496853  20.9798869 115.8024521  60.2782617
  20.0329204 115.6829872  60.2060944  21.3281642 114.9147019  60.3608879
  13.3398442 101.6918660  64.1020859  13.8632844 101.9380957  64.8647169
  13.1210775 102.5238695  63.6823997   8.7365723 103.9622335  51.9691984
   8.4078429 103.0819714  51.7867090   9.0905094 103.9070003  52.8568373
  17.9845302 115.5977237  56.4786970  17.8370264 114.6693945  56.6594540
  18.8098795 115.6197328  55.9944045  11.8507546 104.2495305  52.3367462
  12.1903619 104.7781226  51.6146070  12.2979667 104.5875711  53.1126028
  21.5879424 116.4205796  57.5651842  22.5125971 116.2148657  57.4276293
  21.4194727 116.1722197  58.4741184  14.5450987 102.6332355  61.7870530
  14.2047807 101.8340168  62.1891210  13.8389993 102.9334066  61.2147363
  15.1967459  99.7181668  60.2397853  16.0193528  99.2442146  60.1176743
  15.4405522 100.4972151  60.7396539  13.8375693 102.7469926  50.5360754
  14.5584056 103.1251179  50.0324471  13.2140997 103.4658803  50.6395732
  17.9806816 103.4515075  51.4719087  18.1970431 104.3339713  51.1707915
  17.5000883 103.0601288  50.7424729  12.7206038 106.4100788  58.0489831
  12.5750618 106.7241091  58.9414113  12.2431241 107.0285689  57.4960730
  14.5802420 103.4003336  58.0970721  14.5663989 102.5044430  57.7603019
  15.2974849 103.4074000  58.7309007  16.4328551 103.8340676  60.1423848
  16.1746329 104.7557747  60.1408179  15.9013592 103.4371111  60.8324313
  21.3774740 116.9391464  52.9213934  21.5511618 116.3737886  52.1687786
  21.8703631 117.7392358  52.7393424   7.1951700 108.9506133  60.9877493
   6.6505168 109.7265941  61.1197767   8.0731050 109.2976937  60.8296614
  13.9839316 102.2817717  53.3658291  14.1055228 101.3534363  53.5649179
  13.6941359 102.2956403  52.4536607  16.8530507  99.9672627  56.5025011
  16.8752204 100.0311960  55.5476990  17.2698566  99.1277136  56.6965517
  27.2314131 109.7027887  54.5404234  27.6745277 108.9535212  54.1423357
  26.3540641 109.6938023  54.1577965  22.3649912 116.2558228  50.0210832
  23.0600817 116.8764921  50.2398147  22.7073063 115.4053579  50.2963210
   7.9817722 108.0776029  63.8807649   7.2399458 108.2258664  64.4672280
   7.6610466 108.3384295  63.0174399  24.2641336 113.7057934  51.5498163
  24.7892660 114.0445206  50.8247483  24.1763688 112.7704949  51.3661297
  15.9261384 117.6192007  63.6788039  16.2348511 117.3741154  64.5510739
  16.7236866 117.8238646  63.1906910  15.9481996 119.7729917  55.9093416
  15.5086987 119.2806296  56.6026273  16.6990113 119.2302884  55.6685491
   8.4274335 115.9641458  55.9118044   9.2532355 115.6645230  55.5316688
   8.0768387 115.1949080  56.3607833  13.3955868 115.3167926  57.9815718
  12.7735878 114.6538631  57.6817946  14.0660735 115.3429058  57.2989365
   6.6282940 113.8827784  56.8706978   5.7914849 113.4549958  56.6890979
   6.6006586 114.0760227  57.8077769  13.4680396 103.7949714  67.5748224
  13.5168551 104.6711837  67.1925993  14.0102910 103.2527107  67.0019867
  23.9535242 114.3390837  66.8549361  23.1630785 114.3214976  66.3153860
  23.7168596 114.8779131  67.6098397  24.0733117 111.1883304  64.1682089
  24.1231122 111.0233311  65.1097612  23.9647040 110.3210563  63.7779970
  12.9569375 113.8671849  51.4574178  13.1057496 114.5507314  50.8040851
  13.7635819 113.8476939  51.9723634  21.3636879 107.1714232  65.4841396
  22.2646742 107.0320696  65.1925394  21.4384854 107.3368686  66.4239573
  15.6979684 104.5481086  64.3294582  14.8282994 104.8414652  64.0577171
  15.9339165 105.1321531  65.0501846  25.5751314 113.6080245  64.4124111
  25.2836122 113.9710226  65.2487572  24.9623445 112.8947253  64.2337443
  26.7746996 111.1733125  56.9326681  27.6093887 111.6122929  57.0964241
  26.9106125 110.6971778  56.1134927  23.8238502 108.7312860  62.8804169
  24.2992623 108.9240506  62.0723020  22.9004067 108.7872046  62.6347553
  10.7122008 109.8937027  52.4635247  10.4668050 108.9899357  52.6615457
  10.8817923 109.8954177  51.5214725  18.4018718 100.7660703  61.8460003
  18.9200662 101.5021730  61.5206491  18.0473851 101.0724697  62.6806762
   9.9817656 105.6265384  49.9621409   9.2886901 105.7009739  49.3061445
   9.7369408 104.8625728  50.4842926  18.6531312  97.1860986  57.3660899
  18.9333066  96.5184175  57.9921326  19.4381919  97.3790081  56.8535563
  16.4564781 116.3619980  48.9285926  15.8838748 116.9810167  48.4756398
  17.0297575 116.9119341  49.4625848  22.5240171 105.6078620  61.1132474
  23.4757594 105.7076717  61.1344698  22.3543621 104.8156888  61.6230559
  20.5454550 102.6934203  61.2991875  19.9504482 102.9739216  60.6038364
  20.2604247 103.1828104  62.0708616  19.6762041 116.6457130  50.0594508
  20.6092714 116.5802692  50.2627383  19.5885254 117.4813397  49.6009041
  22.3050057 115.9623000  47.0198455  22.2263689 115.6282864  47.9134213
  23.1259724 116.4544768  47.0189928  25.0028249 108.8284739  60.2274774
  24.9704569 107.8900740  60.4134458  25.6128872 108.9068776  59.4940599
  16.8411579 107.6980792  46.2701978  17.7870684 107.5687001  46.3390396
  16.4625824 106.9595454  46.7471406  25.1522737 105.6195783  60.2733057
  24.6361786 104.8354240  60.0862986  26.0362686 105.2914500  60.4379577
  22.8133464  99.3636798  56.2328870  22.6158285  99.0551887  57.1172202
  23.4233170 100.0898437  56.3626800  30.8204798 109.8900746  59.3680811
  31.5508187 109.6286034  59.9288514  30.2111744 109.1529468  59.4082879
  28.9020096 108.0308609  59.9655262  28.1753259 107.8964574  59.3571754
  28.4867382 108.3385438  60.7711980  16.7250272 111.7498539  67.7302635
  17.6453281 111.9277138  67.9242682  16.6899855 110.8054584  67.5782334
  15.0254497 105.6230769  46.2056863  14.1185952 105.3263882  46.2819577
  15.3030478 105.3260587  45.3391150   5.9432437 106.9437132  56.6555910
   5.6235221 106.0902440  56.3630284   5.3965865 107.1585710  57.4113877
   9.7212344 109.6599573  60.3725416   9.9398354 110.5916681  60.3913450
  10.1338118 109.3007548  61.1580220  16.6416562 100.1667659  52.3601105
  15.8317291  99.8214744  52.7356351  17.3300979  99.8575202  52.9488716
  18.5707111  99.2445705  53.9825401  19.1238149  99.6641159  54.6415424
  18.8077197  98.3181453  54.0248357  14.5940210 105.2332779  69.7628165
  14.4936937 106.1827136  69.6940256  14.3761752 104.9051018  68.8904235
  13.7953281 102.4817704  46.3468843  14.6572445 102.8072602  46.6064660
  13.9803625 101.6949200  45.8341908   5.8120697 110.5640044  58.6249031
   5.1184168 110.1493997  58.1118986   6.5593688 110.6060580  58.0282450
  21.9485918 101.3546231  53.4904066  21.3684587 102.0131035  53.1082118
  21.6821850 100.5323575  53.0791483  20.3989484 100.7551288  55.6925386
  20.8989262 100.8667823  54.8839705  21.0425092 100.4512341  56.3326194
  14.4571480 108.6629918  68.5793227  13.9738562 109.4630278  68.7857116
  14.5432419 108.6737863  67.6260671   7.7257439 110.4958298  56.5015046
   7.7028128 110.5945985  55.5496929   8.0358076 111.3423448  56.8232212
  10.3844817 112.5534453  60.6161661  11.3388071 112.5218395  60.5491592
  10.1857341 112.0925076  61.4311887  10.9744199 111.1235569  63.1832458
  11.7937088 111.6179647  63.2067296  11.2481007 110.2067537  63.1550026
  20.7310796 103.5146321  52.5460414  19.8436651 103.7995972  52.3280609
  21.1464785 103.3540084  51.6987691  24.0825332 103.5392842  56.2614753
  24.8585722 104.0289294  56.5339370  23.3573466 103.9650896  56.7186623
  26.5197890 104.2520461  57.3188694  27.1142381 104.0116197  56.6082002
  26.5924474 103.5327592  57.9462230   8.7395046 118.0954072  57.6331859
   8.6049514 117.3354473  57.0669857   8.3227108 118.8194972  57.1660647
  19.8754009 113.2790996  46.6408434  20.5789859 113.4840998  47.2566089
  19.1516658 113.8467757  46.9057517  20.7051819 109.0300857  52.7610704
  20.6487021 109.4869408  51.9218336  21.2580162 108.2691541  52.5833547
  24.5156625 104.8190589  53.5860823  24.2593560 104.4187224  54.4169031
  23.8909493 105.5334383  53.4610963  28.8268963 107.5586662  56.0932115
  28.2668521 107.6279851  56.8663677  28.2212467 107.3827647  55.3731611
  11.8964172 118.9923389  57.8450301  11.7796556 119.9368822  57.7428991
  11.0756618 118.6896951  58.2336100  21.7840707 113.7173525  48.6906894
  22.6186310 113.2854723  48.5084369  21.6225049 113.5455538  49.6183788
  21.4386599 110.2205638  50.0563233  21.3835403 110.0549910  49.1151677
  20.8132654 110.9281671  50.2125423   6.2279114 105.4573702  63.8824655
   6.8737977 104.9472656  64.3711881   6.0196265 106.1942384  64.4568081
  18.7532506 112.5254550  69.3816796  19.6223666 112.6995202  69.0203431
  18.2739257 113.3448967  69.2592525  14.7482724  99.7213747  49.6348552
  14.7361394 100.6655587  49.7916822  15.6406146  99.5383892  49.3408013
  12.9218686 119.6451651  61.0606230  13.8245933 119.6775261  61.3772725
  12.6956056 118.7152102  61.0752565  14.6772288 118.3982637  57.7216308
  13.7267919 118.3984499  57.6080680  14.9804774 117.6515372  57.2052343
  18.5634844  96.3156524  53.8894488  17.7967239  95.7615010  54.0351171
  18.9745549  96.3878392  54.7508640  10.5676605 102.6041320  67.9799670
  11.4308066 102.2478124  68.1902994   9.9942015 102.2655214  68.6675074
  30.4124982 124.2343176  58.7862071  31.0503392 124.1149923  58.0825411
  30.2945825 125.1824020  58.8450023  27.2214688 124.1870604  58.7223595
  26.8833199 124.0711669  57.8344130  28.0904456 123.7861769  58.7024601
  23.0801504 126.0406080  54.7120486  22.5166369 125.9496017  53.9436774
  22.9653899 125.2205985  55.1922979  27.7034471 125.3405456  64.6809801
  27.6923112 124.9458254  63.8090304  27.8655110 124.6071528  65.2743572
  20.6265936 127.5357272  57.5504707  21.4187227 127.1948097  57.1351006
  20.8662586 127.6452247  58.4706860  22.5856689 126.7966185  50.4222085
  23.3587565 126.2495172  50.2834961  22.9382088 127.6610435  50.6336547
  25.3497939 125.5019416  60.2190344  25.9461511 125.2775438  59.5047307
  25.4072910 124.7604162  60.8215792  24.9222967 122.9558851  48.0540535
  25.1748488 122.4340373  47.2923998  23.9847526 122.7924997  48.1567219
  29.9666250 121.9594630  55.8615279  30.7529339 121.5414053  55.5105696
  30.2304954 122.8640722  56.0296927  30.1376327 127.3967480  50.5603935
  29.5022160 127.4702107  51.2724840  29.8073734 127.9861079  49.8823015
  35.3674677 121.8969863  56.7648257  36.0999849 121.3269080  56.9986087
  34.6114033 121.5091463  57.2054763  24.6419256 124.8586957  50.2564910
  24.5255514 124.1831861  50.9245995  24.7521516 124.3719331  49.4397063
  26.9850797 124.3197104  53.9611600  26.6209004 123.7927725  54.6724521
  27.8417913 123.9295573  53.7878085  32.8900098 115.6091437  61.2242866
  32.5583422 116.4786848  61.0004081  32.2945711 115.2927721  61.9036896
  26.6256284 119.3487004  48.9572948  26.7930686 120.2167241  49.3243419
  26.4353453 119.5114286  48.0334237  29.3831617 127.8103983  60.6238778
  29.0832340 128.7129022  60.5154586  29.0382677 127.5436166  61.4759931
  22.8344099 124.2617780  56.6575483  21.9094595 124.1293994  56.8653175
  23.0828512 125.0411999  57.1545425  32.7828761 120.3286523  58.3036216
  31.8745638 120.2601932  58.0094977  32.7316357 120.8058468  59.1318041
  26.6045505 121.8044662  49.9419615  26.4845130 122.2501712  50.7805095
  25.9098093 122.1529979  49.3833153  20.1952910 123.9051053  57.4919272
  20.3245291 124.1585532  58.4058684  19.5150361 124.4978761  57.1723927
  26.8569627 121.7476169  66.2471113  26.0802961 122.3070089  66.2373978
  27.4960190 122.2332952  66.7685983  34.6490407 118.5302962  60.0814090
  34.0064788 118.8235495  59.4353884  34.1445336 118.4155882  60.8867286
  32.3030571 122.2766135  50.7699949  33.2148427 122.5093522  50.5947647
  31.7940218 122.8603179  50.2075028  25.1115999 124.5561622  65.8089080
  25.8530683 125.0946666  65.5323904  24.4052984 125.1827911  65.9660632
  30.5871339 126.6990763  64.4061242  30.9954695 126.2573173  63.6615874
  29.8648600 126.1243390  64.6595434  26.9402409 121.6363369  61.7794799
  27.7863604 122.0602783  61.9229448  26.8801046 120.9796994  62.4733362
  30.9100153 127.2591953  58.1613530  30.2809016 127.4237667  57.4589598
  30.5225815 127.6733563  58.9324494  34.7889385 128.1946391  55.5157894
  34.1040423 128.5745292  54.9654928  34.8733235 128.8041718  56.2489842
  30.0901854 119.2967738  63.4375972  29.8462786 120.0509798  62.9010248
  30.3661785 119.6753085  64.2723219  32.0440317 125.8406350  62.1153238
  32.2557212 126.4838110  61.4387619  31.9970065 125.0068667  61.6475168
  29.6466546 118.4524171  59.0189810  28.7851025 118.7505424  59.3106547
  29.6728980 118.6694570  58.0870843  26.4628115 126.9966361  55.4263616
  26.9266461 127.2754064  54.6368238  26.1984913 126.0949806  55.2436706
  23.3552196 126.5437843  58.3643379  23.9253553 126.9725111  57.7260863
  23.9460308 126.2620428  59.0627564  25.3997001 123.1189514  52.2353181
  26.1021045 123.5710557  52.7027107  25.0677630 122.4773333  52.8633074
  23.8477363 121.7101270  66.6104390  23.2176023 122.3917551  66.8439787
  23.7413451 121.5984352  65.6657528  19.1422335 121.3773066  57.5370314
  18.3521389 121.6330595  57.0610425  19.6333583 122.1921404  57.6422355
  33.1586145 128.7178306  60.2875595  33.9803588 128.3158493  60.0058277
  33.1548548 128.6146540  61.2391711  21.0937081 121.7417646  54.4953791
  20.2968244 121.8536340  55.0137287  20.8662673 122.0804298  53.6294681
  26.9242748 128.2662349  62.4436306  26.9887181 128.7282756  63.2794477
  26.2153672 127.6359714  62.5718615  17.4260038 121.6303557  59.9685305
  17.6768077 122.5150567  60.2342881  17.9619587 121.4508158  59.1960397
  41.2492138 125.0617054  56.6360567  40.4955846 124.4924452  56.4804571
  41.3839679 125.0279719  57.5831201  23.1258105 116.0122036  68.9729641
  22.7325051 115.4588235  69.6477285  23.9424246 116.3232615  69.3636159
  26.0426066 117.4279915  66.5649898  26.7835780 118.0287068  66.4854360
  26.2743989 116.6857553  66.0067940  21.1867404 122.6136283  64.8428127
  21.0720920 121.7121540  65.1435226  20.3311922 122.8599979  64.4912944
  26.8213534 128.3500952  65.3120538  27.3541871 127.5889240  65.0819846
  26.2927616 128.0574604  66.0544692  29.9883229 113.4561018  60.8414179
  29.6447499 114.3462660  60.7653290  30.3562192 113.2662676  59.9783764
  18.0569080 125.7794549  53.6602782  18.8944302 126.1891557  53.4436489
  18.2347348 124.8393991  53.6302975  29.9533512 123.4469629  49.3486614
  29.4380136 124.2174234  49.5875002  29.6810821 122.7734765  49.9719676
  27.5380623 118.2919330  54.4071853  26.6822220 117.9026180  54.2277492
  27.9507575 118.3711291  53.5471638  29.0679770 115.8265673  58.8063413
  28.5644565 115.7895809  57.9931218  29.3610377 116.7358416  58.8660069
  25.3122656 115.9104403  57.8129594  26.1775652 115.7147212  57.4535484
  25.3800165 115.6814755  58.7398951  34.9267786 126.2001984  51.2839788
  34.1497229 125.8613143  50.8394950  35.6059267 126.2054607  50.6094753
  29.7419815 121.3196721  51.1746396  29.4369951 121.6342871  52.0256539
  30.6950257 121.3978141  51.2173729  28.1866247 127.4786945  52.8239350
  27.6587609 126.7439704  52.5112587  27.6853750 128.2561621  52.5779318
  33.1659093 125.6735965  57.9406396  32.5082768 126.3635227  58.0286525
  33.9699492 126.0632397  58.2840382  22.9184975 118.1406611  55.1845961
  23.4928727 117.9181793  54.4519154  23.5055957 118.2095306  55.9374562
  31.9764552 124.0280338  55.9910338  32.4896434 124.6610330  56.4932047
  32.6265776 123.4281533  55.6253698  23.2454562 120.1711072  49.2041846
  22.4091874 120.5085759  49.5251121  23.1059332 120.0360052  48.2668983
  25.2207642 115.0147860  53.9121031  24.5672055 114.6996877  53.2877645
  25.1788117 114.3923600  54.6380854  26.3318847 125.2967155  45.8274323
  25.4245909 125.0656408  46.0265472  26.8289879 124.5004774  46.0148304
  28.4545383 121.5029793  58.2368678  27.5367944 121.7244740  58.0790366
  28.8705526 121.5776104  57.3780386  29.2380431 122.9021209  53.3671358
  29.9852250 123.4142606  53.0578481  29.5072020 122.5805262  54.2275752
  27.5107081 125.3979750  50.3498313  26.6018300 125.1138783  50.4470783
  27.5402165 125.8178828  49.4901620  32.7426348 129.0086339  54.1189480
  32.2888675 128.1677249  54.1754671  32.1120315 129.6447738  54.4564260
  31.6859268 119.9378325  55.3490148  30.9482025 119.4255712  55.6800390
  31.9386041 119.4978707  54.5373425  31.1859287 130.8462836  55.0539298
  31.4782262 131.4067893  54.3351664  31.6957908 131.1391397  55.8092458
  31.7870895 112.7154577  55.9431917  32.0929772 111.8551941  55.6557832
  32.5123500 113.3072198  55.7430911  18.0795251 123.1185264  54.3313515
  17.8819651 122.5254625  53.6064582  17.5241915 122.8137474  55.0489454
  26.0591975 123.0108370  56.4508108  26.1140585 122.0582207  56.3750585
  25.2483177 123.1667810  56.9349407  27.2083169 126.9388494  47.6886391
  26.7702599 126.2224352  47.2292029  27.9493609 127.1664608  47.1271483
  23.9984335 121.6285430  54.2098487  23.1852200 121.9279601  54.6163679
  24.4943329 121.2341119  54.9272969  29.5958546 122.0927255  63.0413381
  29.9507934 122.3198728  63.9007847  30.2430678 122.4245631  62.4190636
  35.3256283 125.2145691  53.7462710  35.1874182 125.4047287  52.8183899
  34.9692502 125.9765073  54.2030761  23.4898410 119.2003786  59.8259722
  24.1297789 119.0592545  59.1282685  22.6575940 118.9138299  59.4498324
  35.3525663 127.2822218  58.7573981  35.7862170 127.1897507  59.6057035
  36.0657244 127.2579718  58.1193997  24.2658713 128.5006216  55.9394714
  25.0599312 128.0056536  55.7377289  23.5550406 127.9724079  55.5762420
  20.5741477 122.6449298  52.0154467  19.6439065 122.5833753  52.2324429
  20.6698949 122.1225251  51.2191108  20.4927026 119.1704111  54.6032709
  20.7533843 120.0849444  54.4941869  21.3144198 118.7028553  54.7529322
  21.9651951 120.5841868  61.7731533  22.6375005 120.3759230  61.1244182
  21.1381738 120.3863954  61.3336766  36.2141213 127.3245918  61.2906867
  36.4077103 128.2291729  61.5366142  36.1141831 126.8653337  62.1245452
  27.8677523 117.2103809  63.7897194  27.2205438 117.9093758  63.6961671
  28.6378539 117.6439953  64.1573442  31.2756321 127.4752661  66.8647747
  31.1241828 127.2463213  65.9477831  31.2661001 128.4323262  66.8779092
  28.0441658 125.0484574  61.8494014  28.9733718 125.1995733  61.6762981
  27.6232688 125.1368595  60.9942660  28.3935205 128.4516841  57.0081389
  28.0585037 128.4117611  57.9039039  27.8939150 127.7861557  56.5351800
  22.3679449 123.8584471  62.5333970  22.2299246 123.1264710  63.1345509
  23.2784372 123.7693371  62.2518158  31.3294396 125.7972875  47.2818449
  30.7123567 125.0719703  47.1851502  30.8610885 126.5582235  46.9385523
  24.9961749 123.5704430  62.0217650  25.7061368 122.9297622  61.9804269
  24.9531057 123.8217325  62.9443831  32.9848528 130.5071784  64.9424229
  32.9261074 129.8231004  64.2754812  33.3868046 131.2490774  64.4904855
  23.7090683 120.5569648  63.8413290  23.1728040 120.1060387  64.4934886
  23.1207392 120.6915557  63.0983754  23.1192942 120.0158299  46.4039753
  22.2422408 119.8947100  46.0402000  23.5950695 119.2244378  46.1518642
  32.9865935 128.4711367  63.1738209  32.0992714 128.1337289  63.2964608
  33.5564486 127.7394399  63.4106974  19.4429804 119.6925656  60.9266284
  19.3587993 119.0851325  60.1916694  18.6212511 120.1834674  60.9275780
  29.6153518 118.1779219  56.2936479  30.1122218 117.4249182  55.9737549
  28.8440500 118.2143536  55.7279688  37.4683276 123.8819585  57.9354771
  37.4573152 124.7644300  57.5648704  36.6000655 123.5291136  57.7409308
  30.6983299 126.9350907  53.8674903  29.7639578 127.0552369  53.6979607
  30.8759967 126.0323373  53.6034912  26.1988487 120.3196602  56.0208164
  25.8286275 119.7667643  56.7089069  26.6947579 119.7154736  55.4683164
  34.0855850 122.7768226  54.4024937  34.5516303 123.6096217  54.3285239
  34.5363351 122.3113207  55.1070195  32.1532081 129.1212047  51.4011089
  32.4291925 129.0068642  52.3104963  31.2836580 128.7229532  51.3623262
  32.0572513 115.1448813  58.4415838  31.1435593 115.3753040  58.6098045
  32.4865615 115.2287257  59.2929870  31.8278972 123.3338705  60.9415732
  31.1750422 123.5814612  60.2868185  32.2059351 122.5202843  60.6078209
  27.8766545 124.0758516  67.4281769  27.2007182 123.9752645  68.0984144
  28.6994178 123.9197730  67.8917766  14.2163058 122.8836053  58.7698727
  14.2547158 122.3499643  59.5635846  13.7103351 122.3571258  58.1509705
  21.5953821 117.7300593  62.2661270  21.6595147 118.5915424  61.8538667
  21.5320941 117.1174595  61.5333628  21.0706093 119.8023726  65.9134304
  21.6978132 119.4200803  66.5271828  20.2134012 119.5837928  66.2789997
  31.4700202 130.2086701  67.5188040  32.0140106 130.8216659  67.0242994
  30.8887047 130.7666279  68.0355053  17.8471636 121.6100155  51.8452659
  18.1425077 120.7010833  51.7919713  16.9459672 121.5887894  51.5233661
  21.3765883 119.6856151  57.8280207  20.6552469 120.2992119  57.6887681
  22.1659139 120.2213916  57.7496853  31.8192623 131.1316439  60.2782617
  30.8722959 131.0121790  60.2060944  32.1675396 130.2438937  60.3608879
  24.1792196 117.0210578  64.1020859  24.7026598 117.2672874  64.8647169
  23.9604530 117.8530613  63.6823997  19.5759478 119.2914252  51.9691984
  19.2472184 118.4111631  51.7867090  19.9298848 119.2361921  52.8568373
  22.6901301 119.5787222  52.3367462  23.0297373 120.1073143  51.6146070
  23.1373421 119.9167628  53.1126028  32.4273178 131.7497714  57.5651842
  33.3519726 131.5440575  57.4276293  32.2588482 131.5014115  58.4741184
  25.3844742 117.9624273  61.7870530  25.0441562 117.1632086  62.1891210
  24.6783748 118.2625984  61.2147363  26.0361213 115.0473585  60.2397853
  26.8587283 114.5734064  60.1176743  26.2799277 115.8264069  60.7396539
  24.6769448 118.0761844  50.5360754  25.3977810 118.4543097  50.0324471
  24.0534752 118.7950721  50.6395732  28.8200571 118.7806993  51.4719087
  29.0364185 119.6631631  51.1707915  28.3394638 118.3893206  50.7424729
  23.5599792 121.7392706  58.0489831  23.4144373 122.0533009  58.9414113
  23.0824996 122.3577606  57.4960730  25.4196175 118.7295254  58.0970721
  25.4057744 117.8336347  57.7603019  26.1368603 118.7365918  58.7309007
  27.2722306 119.1632594  60.1423848  27.0140084 120.0849665  60.1408179
  26.7407346 118.7663029  60.8324313  18.0345454 124.2798050  60.9877493
  17.4898922 125.0557858  61.1197767  18.9124804 124.6268855  60.8296614
  24.8233071 117.6109634  53.3658291  24.9448982 116.6826280  53.5649179
  24.5335113 117.6248320  52.4536607  27.6924261 115.2964545  56.5025011
  27.7145958 115.3603878  55.5476990  28.1092320 114.4569053  56.6965517
  38.0707886 125.0319804  54.5404234  38.5139032 124.2827129  54.1423357
  37.1934396 125.0229941  54.1577965  33.2043667 131.5850146  50.0210832
  33.8994572 132.2056838  50.2398147  33.5466817 130.7345497  50.2963210
  18.8211476 123.4067947  63.8807649  18.0793212 123.5550582  64.4672280
  18.5004220 123.6676212  63.0174399  35.1035090 129.0349851  51.5498163
  35.6286414 129.3737124  50.8247483  35.0157443 128.0996867  51.3661297
  24.3074150 119.1241632  67.5748224  24.3562306 120.0003754  67.1925993
  24.8496665 118.5819025  67.0019867  34.7928996 129.6682755  66.8549361
  34.0024540 129.6506894  66.3153860  34.5562351 130.2071049  67.6098397
  34.9126871 126.5175221  64.1682089  34.9624876 126.3525229  65.1097612
  34.8040795 125.6502480  63.7779970  32.2030634 122.5006149  65.4841396
  33.1040496 122.3612614  65.1925394  32.2778608 122.6660604  66.4239573
  26.5373439 119.8773004  64.3294582  25.6676748 120.1706570  64.0577171
  26.7732919 120.4613449  65.0501846  36.4145068 128.9372163  64.4124111
  36.1229876 129.3002143  65.2487572  35.8017199 128.2239171  64.2337443
  37.6140750 126.5025043  56.9326681  38.4487642 126.9414847  57.0964241
  37.7499879 126.0263696  56.1134927  34.6632256 124.0604777  62.8804169
  35.1386378 124.2532424  62.0723020  33.7397822 124.1163963  62.6347553
  21.5515763 125.2228945  52.4635247  21.3061805 124.3191275  52.6615457
  21.7211677 125.2246095  51.5214725  29.2412473 116.0952621  61.8460003
  29.7594417 116.8313648  61.5206491  28.8867606 116.4016614  62.6806762
  20.8211410 120.9557302  49.9621409  20.1280655 121.0301657  49.3061445
  20.5763162 120.1917646  50.4842926  29.4925067 112.5152903  57.3660899
  29.7726821 111.8476093  57.9921326  30.2775674 112.7081999  56.8535563
  33.3633925 120.9370537  61.1132474  34.3151348 121.0368635  61.1344698
  33.1937376 120.1448806  61.6230559  31.3848305 118.0226121  61.2991875
  30.7898237 118.3031133  60.6038364  31.0998001 118.5120022  62.0708616
  33.1443812 131.2914918  47.0198455  33.0657443 130.9574781  47.9134213
  33.9653479 131.7836686  47.0189928  35.8422003 124.1576657  60.2274774
  35.8098323 123.2192658  60.4134458  36.4522627 124.2360694  59.4940599
  27.6805334 123.0272710  46.2701978  28.6264439 122.8978918  46.3390396
  27.3019579 122.2887372  46.7471406  35.9916492 120.9487701  60.2733057
  35.4755540 120.1646157  60.0862986  36.8756440 120.6206417  60.4379577
  33.6527218 114.6928716  56.2328870  33.4552040 114.3843804  57.1172202
  34.2626924 115.4190355  56.3626800  41.6598553 125.2192664  59.3680811
  42.3901941 124.9577952  59.9288514  41.0505498 124.4821386  59.4082879
  39.7413850 123.3600527  59.9655262  39.0147014 123.2256492  59.3571754
  39.3261137 123.6677355  60.7711980  27.5644026 127.0790456  67.7302635
  28.4847036 127.2569055  67.9242682  27.5293609 126.1346502  67.5782334
  25.8648251 120.9522687  46.2056863  24.9579706 120.6555799  46.2819577
  26.1424232 120.6552505  45.3391150  16.7826191 122.2729050  56.6555910
  16.4628976 121.4194358  56.3630284  16.2359620 122.4877628  57.4113877
  20.5606099 124.9891491  60.3725416  20.7792109 125.9208599  60.3913450
  20.9731873 124.6299465  61.1580220  27.4810317 115.4959576  52.3601105
  26.6711045 115.1506661  52.7356351  28.1694734 115.1867120  52.9488716
  29.4100865 114.5737623  53.9825401  29.9631904 114.9933076  54.6415424
  29.6470951 113.6473371  54.0248357  25.4333964 120.5624697  69.7628165
  25.3330691 121.5119054  69.6940256  25.2155506 120.2342936  68.8904235
  24.6347036 117.8109622  46.3468843  25.4966200 118.1364520  46.6064660
  24.8197380 117.0241118  45.8341908  16.6514451 125.8931961  58.6249031
  15.9577923 125.4785914  58.1118986  17.3987442 125.9352498  58.0282450
  32.7879672 116.6838148  53.4904066  32.2078341 117.3422952  53.1082118
  32.5215605 115.8615493  53.0791483  31.2383239 116.0843206  55.6925386
  31.7383017 116.1959740  54.8839705  31.8818846 115.7804259  56.3326194
  25.2965234 123.9921836  68.5793227  24.8132316 124.7922196  68.7857116
  25.3826173 124.0029780  67.6260671  18.5651194 125.8250215  56.5015046
  18.5421882 125.9237902  55.5496929  18.8751830 126.6715366  56.8232212
  21.8137954 126.4527486  63.1832458  22.6330843 126.9471565  63.2067296
  22.0874762 125.5359454  63.1550026  31.5704550 118.8438239  52.5460414
  30.6830405 119.1287889  52.3280609  31.9858539 118.6832002  51.6987691
  34.9219086 118.8684760  56.2614753  35.6979476 119.3581212  56.5339370
  34.1967220 119.2942814  56.7186623  37.3591645 119.5812379  57.3188694
  37.9536136 119.3408115  56.6082002  37.4318229 118.8619509  57.9462230
  30.7147764 128.6082913  46.6408434  31.4183614 128.8132916  47.2566089
  29.9910412 129.1759675  46.9057517  31.5445574 124.3592775  52.7610704
  31.4880775 124.8161326  51.9218336  32.0973916 123.5983459  52.5833547
  35.3550380 120.1482506  53.5860823  35.0987314 119.7479142  54.4169031
  34.7303248 120.8626300  53.4610963  39.6662718 122.8878580  56.0932115
  39.1062276 122.9571769  56.8663677  39.0606221 122.7119564  55.3731611
  32.6234461 129.0465442  48.6906894  33.4580065 128.6146641  48.5084369
  32.4618804 128.8747456  49.6183788  32.2780353 125.5497556  50.0563233
  32.2229157 125.3841827  49.1151677  31.6526408 126.2573589  50.2125423
  17.0672868 120.7865620  63.8824655  17.7131732 120.2764574  64.3711881
  16.8590019 121.5234302  64.4568081  29.5926260 127.8546468  69.3816796
  30.4617420 128.0287120  69.0203431  29.1133012 128.6740884  69.2592525
  25.5876479 115.0505665  49.6348552  25.5755149 115.9947505  49.7916822
  26.4799901 114.8675810  49.3408013  29.4028598 111.6448441  53.8894488
  28.6360994 111.0906928  54.0351171  29.8139303 111.7170310  54.7508640
  21.4070359 117.9333237  67.9799670  22.2701821 117.5770042  68.1902994
  20.8335770 117.5947132  68.6675074  43.7293852 130.9383355  61.2242866
  43.3977177 131.8078766  61.0004081  43.1339465 130.6219639  61.9036896
  45.4884162 133.8594879  60.0814090  44.8458542 134.1527412  59.4353884
  44.9839090 133.7447800  60.8867286  40.4860300 133.7816088  59.0189810
  39.6244779 134.0797342  59.3106547  40.5122735 133.9986487  58.0870843
  33.9651860 131.3413954  68.9729641  33.5718806 130.7880152  69.6477285
  34.7818000 131.6524532  69.3636159  36.8819821 132.7571833  66.5649898
  37.6229534 133.3578986  66.4854360  37.1137744 132.0149471  66.0067940
  40.8276984 128.7852936  60.8414179  40.4841253 129.6754578  60.7653290
  41.1955947 128.5954594  59.9783764  38.3774378 133.6211248  54.4071853
  37.5215974 133.2318098  54.2277492  38.7901329 133.7003209  53.5471638
  39.9073524 131.1557591  58.8063413  39.4038320 131.1187726  57.9931218
  40.2004131 132.0650334  58.8660069  36.1516410 131.2396321  57.8129594
  37.0169407 131.0439129  57.4535484  36.2193919 131.0106673  58.7398951
  36.0601397 130.3439778  53.9121031  35.4065809 130.0288795  53.2877645
  36.0181871 129.7215518  54.6380854  42.5253022 135.2670243  55.3490148
  41.7875779 134.7547629  55.6800390  42.7779796 134.8270625  54.5373425
  42.6264650 128.0446495  55.9431917  42.9323526 127.1843859  55.6557832
  43.3517254 128.6364115  55.7430911  38.7071278 132.5395726  63.7897194
  38.0599193 133.2385676  63.6961671  39.4772293 132.9731870  64.1573442
  40.4547273 133.5071137  56.2936479  40.9515972 132.7541099  55.9737549
  39.6834254 133.5435454  55.7279688  42.8966268 130.4740730  58.4415838
  41.9829347 130.7044957  58.6098045  43.3259369 130.5579175  59.2929870
  36.8754968 130.3765503  60.2397853  37.6981037 129.9025981  60.1176743
  37.1193031 131.1555987  60.7396539  38.5318016 130.6256462  56.5025011
  38.5539713 130.6895795  55.5476990  38.9486075 129.7860971  56.6965517
  40.0806227 131.4244539  61.8460003  40.5988171 132.1605566  61.5206491
  39.7261360 131.7308532  62.6806762  40.3318821 127.8444821  57.3660899
  40.6120575 127.1768010  57.9921326  41.1169428 128.0373917  56.8535563
  42.2242059 133.3518038  61.2991875  41.6291991 133.6323051  60.6038364
  41.9391756 133.8411939  62.0708616  46.8310246 136.2779618  60.2733057
  46.3149295 135.4938075  60.0862986  47.7150195 135.9498335  60.4379577
  44.4920973 130.0220634  56.2328870  44.2945794 129.7135722  57.1172202
  45.1020679 130.7482273  56.3626800  38.3204071 130.8251494  52.3601105
  37.5104800 130.4798579  52.7356351  39.0088488 130.5159038  52.9488716
  40.2494620 129.9029541  53.9825401  40.8025658 130.3224994  54.6415424
  40.4864706 128.9765289  54.0248357  43.6273427 132.0130066  53.4904066
  43.0472096 132.6714870  53.1082118  43.3609359 131.1907410  53.0791483
  42.0776993 131.4135124  55.6925386  42.5776771 131.5251658  54.8839705
  42.7212601 131.1096176  56.3326194  42.4098305 134.1730156  52.5460414
  41.5224160 134.4579807  52.3280609  42.8252294 134.0123920  51.6987691
  45.7612841 134.1976677  56.2614753  46.5373231 134.6873130  56.5339370
  45.0360975 134.6234731  56.7186623  48.1985399 134.9104296  57.3188694
  48.7929890 134.6700032  56.6082002  48.2711983 134.1911427  57.9462230
  46.1944134 135.4774424  53.5860823  45.9381069 135.0771060  54.4169031
  45.5697002 136.1918218  53.4610963  36.4270233 130.3797582  49.6348552
  36.4148903 131.3239422  49.7916822  37.3193655 130.1967728  49.3408013
  40.2422353 126.9740359  53.8894488  39.4754748 126.4198846  54.0351171
  40.6533058 127.0462228  54.7508640   2.8493415  52.9156232  43.4893564
   3.5818587  52.3455449  43.7231393   2.0932771  52.5277833  43.9300069
   2.1309145  49.5489331  46.8059396   1.4883525  49.8421864  46.1599191
   1.6264074  49.4342252  47.6112593   2.2708123  59.2132761  42.2403201
   1.5859161  59.5931662  41.6900234   2.3551972  59.8228087  42.9735149
   0.6404883  59.7364675  47.0120902   1.4622326  59.3344862  46.7303583
   0.6367285  59.6332909  47.9637018   8.7310876  56.0803424  43.3605873
   7.9774584  55.5110822  43.2049878   8.8658417  56.0466088  44.3076508
   2.4086524  57.2188354  38.0085095   1.6315967  56.8799513  37.5640257
   3.0878005  57.2240977  37.3340060   2.8075021  56.2332060  40.4708017
   2.6692920  56.4233656  39.5429206   2.4511240  56.9951443  40.9276068
   2.8344401  58.3008587  45.4819288   3.2680907  58.2083876  46.3302342
   3.5475981  58.2766088  44.8439304   3.6959950  58.3432288  48.0152173
   3.8895840  59.2478098  48.2611448   3.5960568  57.8839707  48.8490758
   4.9502013  54.9005954  44.6600077   4.9391890  55.7830670  44.2894010
   4.0819393  54.5477505  44.4654614   1.5674588  53.7954595  41.1270243
   2.0335040  54.6282587  41.0530546   2.0182089  53.3299577  41.8315502
   5.5526623  56.0506174  41.2649540   5.9957769  55.3013499  40.8668663
   4.6753134  56.0416310  40.8823272   0.6862405  62.6036515  36.7456139
   1.3813309  63.2243208  36.9643453   1.0285555  61.7531866  37.0208517
   2.5853828  60.0536221  38.2743469   3.1105152  60.3923494  37.5492789
   2.4976180  59.1183236  38.0906604   2.2747734  60.6869124  53.5794667
   1.4843278  60.6693263  53.0399167   2.0381088  61.2257418  54.3343704
   2.3945609  57.5361591  50.8927396   2.4443614  57.3711598  51.8342919
   2.2859532  56.6688850  50.5025277   3.8963806  59.9558532  51.1369417
   3.6048614  60.3188513  51.9732878   3.2835937  59.2425541  50.9582750
   5.0959488  57.5211412  43.6571988   5.9306379  57.9601216  43.8209548
   5.2318617  57.0450065  42.8380233   2.1450994  55.0791147  49.6049475
   2.6205116  55.2718793  48.7968327   1.2216559  55.1350333  49.3592859
   0.8452663  51.9556907  47.8377781   1.7970086  52.0555005  47.8590005
   0.6756113  51.1635176  48.3475865   0.6262550  62.3101287  33.7443762
   0.5476181  61.9761151  34.6379520   1.4472216  62.8023055  33.7435234
   3.3240741  55.1763027  46.9520081   3.2917061  54.2379027  47.1379765
   3.9341364  55.2547063  46.2185906   3.4735229  51.9674070  46.9978364
   2.9574278  51.1832527  46.8108293   4.3575178  51.6392787  47.1624883
   1.1345956  45.7115086  42.9574177   0.9370777  45.4030174  43.8417509
   1.7445662  46.4376725  43.0872106   9.1417291  56.2379034  46.0926118
   9.8720679  55.9764322  46.6533821   8.5324236  55.5007756  46.1328185
   7.2232588  54.3786896  46.6900569   6.4965751  54.2442861  46.0817060
   6.8079875  54.6863725  47.4957287   2.4037824  49.8871129  42.9860060
   3.1798214  50.3767582  43.2584677   1.6785958  50.3129183  43.4431929
   4.8410383  50.5998748  44.0434000   5.4354874  50.3594484  43.3327309
   4.9136966  49.8805879  44.6707537   2.8369118  51.1668876  40.3106130
   2.5806052  50.7665512  41.1414338   2.2121986  51.8812670  40.1856269
   7.1481455  53.9064949  42.8177422   6.5881013  53.9758139  43.5908984
   6.5424959  53.7305934  42.0976918   8.7337474  70.5821463  45.5107377
   9.3715884  70.4628210  44.8070717   8.6158317  71.5302307  45.5695329
   5.5427180  70.5348891  45.4468902   5.2045692  70.4189956  44.5589437
   6.4116948  70.1340056  45.4269908   1.4013996  72.3884368  41.4365793
   0.8378861  72.2974305  40.6682081   1.2866391  71.5684272  41.9168285
   6.0246963  71.6883743  51.4055107   6.0135604  71.2936541  50.5335611
   6.1867603  70.9549816  51.9988879   6.9813555  76.0555335  36.7480258
   6.3301534  76.6409416  36.3614272   7.7757917  76.5861530  36.8075295
   0.9069182  73.1444472  37.1467392   1.6800058  72.5973460  37.0080268
   1.2594581  74.0088722  37.3581854   2.7454224  74.4720855  50.3534291
   2.4544090  75.3766486  50.2380958   3.3811209  74.5137382  51.0678361
   3.6710431  71.8497703  46.9435651   4.2674003  71.6253726  46.2292614
   3.7285403  71.1082449  47.5461099   3.2435460  69.3037139  34.7785842
   3.4960980  68.7818660  34.0169305   2.3060019  69.1403284  34.8812526
   8.2878742  68.3072917  42.5860585   9.0741832  67.8892340  42.2351002
   8.5517447  69.2119009  42.7542234   8.4588820  73.7445767  37.2849242
   7.8234653  73.8180394  37.9970147   8.1286226  74.3339366  36.6068321
  13.6887170  68.2448150  43.4893564  14.4212341  67.6747367  43.7231393
  12.9326525  67.8569751  43.9300069   2.9631748  71.2065245  36.9810217
   2.8468006  70.5310148  37.6491301   3.0734008  70.7197618  36.1642370
   5.3063289  70.6675392  40.6856906   4.9421496  70.1406013  41.3969828
   6.1630405  70.2773861  40.5123392  11.2112590  61.9569724  47.9488172
  10.8795915  62.8265135  47.7249387  10.6158203  61.6406008  48.6282203
   4.9468776  65.6965291  35.6818255   5.1143179  66.5645528  36.0488726
   4.7565945  65.8592573  34.7579544   7.7044109  74.1582270  47.3484085
   7.4044833  75.0607309  47.2399892   7.3595169  73.8914453  48.2005238
  11.1041253  66.6764810  45.0281522  10.1958131  66.6080219  44.7340283
  11.0528849  67.1536755  45.8563348   4.9257997  68.1522949  36.6664922
   4.8057622  68.5980000  37.5050402   4.2310585  68.5008267  36.1078460
   2.6864889  80.9226591  40.3155053   2.6088919  81.8734416  40.3943533
   2.0826533  80.5772463  40.9729979   5.1782119  68.0954456  52.9716420
   4.4015453  68.6548376  52.9619284   5.8172682  68.5811239  53.4931290
  12.9702900  64.8781249  46.8059396  12.3277280  65.1713782  46.1599191
  12.4657828  64.7634169  47.6112593  10.6243063  68.6244422  37.4945256
  11.5360919  68.8571809  37.3192953  10.1152710  69.2081466  36.9320334
   3.4328491  70.9039909  52.5334387   4.1743176  71.4424953  52.2569210
   2.7265477  71.5306198  52.6905939   8.9083831  73.0469050  51.1306548
   9.3167187  72.6051460  50.3861181   8.1861092  72.4721677  51.3840741
   5.2614901  67.9841657  48.5040105   6.1076096  68.4081070  48.6474754
   5.2013539  67.3275281  49.1978668   9.2312646  73.6070240  44.8858837
   8.6021508  73.7715955  44.1834905   8.8438308  74.0211850  45.6569801
  13.1101877  74.5424678  42.2403201  12.4252916  74.9223580  41.6900234
  13.1945727  75.1520005  42.9735149   8.4114346  65.6446025  50.1621279
   8.1675278  66.3988086  49.6255554   8.6874277  66.0231373  50.9968526
  10.3652809  72.1884637  48.8398544  10.5769704  72.8316397  48.1632925
  10.3182557  71.3546954  48.3720474   7.9679038  64.8002458  45.7435117
   7.1063517  65.0983712  46.0351854   7.9941473  65.0172857  44.8116149
   4.7840607  73.3444649  42.1508922   5.2478953  73.6232352  41.3613545
   4.5197406  72.4428093  41.9682013   1.6764689  72.8916130  45.0888685
   2.2466046  73.3203398  44.4506170   2.2672800  72.6098715  45.7872871
   3.7209494  69.4667801  38.9598487   4.4233537  69.9188845  39.4272414
   3.3890122  68.8251620  39.5878380   2.1689855  68.0579558  53.3349697
   1.5388516  68.7395838  53.5685094   2.0625943  67.9462639  52.3902835
  11.4798637  75.0656593  47.0120902  12.3016081  74.6636780  46.7303583
  11.4761040  74.9624827  47.9637018   5.2455240  74.6140636  49.1681612
   5.3099673  75.0761043  50.0039784   4.5366164  73.9838001  49.2963922
  19.5704630  71.4095341  43.3605873  18.8168338  70.8402739  43.2049878
  19.7052171  71.3758006  44.3076508   4.9603258  76.2808744  39.0360593
   4.8248933  77.1260279  39.4645440   5.5013071  76.4828021  38.2726526
   1.4470598  62.3600323  55.6974948   1.0537543  61.8066522  56.3722592
   2.2636738  62.6710902  56.0881465   4.3638559  63.7758203  53.2895204
   5.1048272  64.3765356  53.2099667   4.5956482  63.0335840  52.7313247
   6.5871735  76.9032310  53.1660935   6.1435589  76.1168689  52.8481839
   7.2488948  77.0911461  52.5004825   1.3458856  78.4328112  47.6921613
   1.8966281  78.3045175  46.9198607   0.5070332  78.7323001  47.3416506
   8.6852973  77.1835110  51.1942336   8.6671448  78.0043991  50.7022605
   9.6072893  77.0589185  51.4192477   5.1426027  74.6979240  52.0365844
   5.6754364  73.9367528  51.8065152   4.6140108  74.4052891  52.7789999
   8.3095722  59.8039305  47.5659486   7.9659991  60.6940947  47.4898597
   8.6774684  59.6140963  46.7029071   8.2746004  69.7947917  36.0731921
   7.7592628  70.5652521  36.3120309   8.0023313  69.1213053  36.6964983
   5.8593115  64.6397617  41.1317160   5.0034712  64.2504468  40.9522798
   6.2720067  64.7189578  40.2716945   7.3892262  62.1743961  45.5308719
   6.8857058  62.1374096  44.7176525   7.6822869  63.0836703  45.5905376
   3.6335148  62.2582690  44.5374901   4.4988145  62.0625499  44.1780790
   3.7012657  62.0293042  45.4644258  13.2480279  72.5480271  38.0085095
  12.4709721  72.2091431  37.5640257  13.9271760  72.5532894  37.3340060
   8.0632308  67.6675009  37.8991702   7.7582443  67.9821158  38.7501845
   9.0162750  67.7456429  37.9419035   6.5078739  73.8265232  39.5484656
   5.9800101  73.0917992  39.2357894   6.0066242  74.6039908  39.3024625
  11.4871585  72.0214252  44.6651703  10.8295260  72.7113514  44.7531831
  12.2911985  72.4110684  45.0085689   1.2397467  64.4884898  41.9091268
   1.8141219  64.2660080  41.1764461   1.8268449  64.5573593  42.6619869
  10.2977044  70.3758625  42.7155644  10.8108926  71.0088617  43.2177354
  10.9478268  69.7759821  42.3499004   1.5667054  66.5189359  35.9287153
   0.7304366  66.8564046  36.2496428   1.4271824  66.3838339  34.9914290
   3.5420135  61.3626147  40.6366337   2.8884547  61.0475164  40.0122952
   3.5000609  60.7401888  41.3626160   4.6531340  71.6445442  32.5519629
   3.7458401  71.4134696  32.7510778   5.1502372  70.8483061  32.7393611
   7.5599419  80.3542949  35.4716315   6.8861117  80.6574646  36.0801273
   7.9465240  81.1572030  35.1221773   6.7757875  67.8508081  44.9613985
   5.8580436  68.0723028  44.8035673   7.1918019  67.9254391  44.1025692
   7.5592923  69.2499496  40.0916665   8.3064742  69.7620894  39.7823787
   7.8284512  68.9283549  40.9521059   5.8319573  71.7458037  37.0743619
   4.9230792  71.4617070  37.1716089   5.8614657  72.1657116  36.2146926
  11.0638840  75.3564627  40.8434787  10.6101168  74.5155536  40.8999977
  10.4332807  75.9926025  41.1809567  10.0071760  66.2856613  42.0735454
   9.2694517  65.7733999  42.4045697  10.2598534  65.8456994  41.2618731
   9.5071780  77.1941123  41.7784605   9.7994754  77.7546180  41.0596971
  10.0170400  77.4869684  42.5337764  10.1083387  59.0632865  42.6677224
  10.4142264  58.2030228  42.3803139  10.8335992  59.6550485  42.4676218
   4.3804467  69.3586658  43.1753415   4.4353077  68.4060494  43.0995891
   3.5695669  69.5146097  43.6594713   5.5295661  73.2866781  34.4131698
   5.0915091  72.5702640  33.9537335   6.2706102  73.5142896  33.8516789
   2.3196827  67.9763717  40.9343794   1.5064693  68.2757888  41.3408986
   2.8155821  67.5819406  41.6518276   4.4705405  77.9721474  42.8678058
   4.4281584  78.1982321  41.9386590   5.3868104  77.7384849  43.0163859
   7.9171039  68.4405542  49.7658688   8.2720426  68.6677015  50.6253153
   8.5643170  68.7723919  49.1435943  13.6468776  71.5623978  40.4708017
  13.5086674  71.7525574  39.5429206  13.2904994  72.3243361  40.9276068
   1.8110902  65.5482073  46.5505029   2.4510281  65.4070832  45.8527992
   0.9788432  65.2616586  46.1743631  13.6738155  73.6300505  45.4819288
  14.1074662  73.5375794  46.3302342  14.3869736  73.6058005  44.8439304
   2.5871206  74.8484503  42.6640021   3.3811804  74.3534824  42.4622596
   1.8762898  74.3202367  42.3007727   7.4066050  77.2302599  47.0152389
   7.4603072  77.7993535  47.7830105   6.5380832  77.4004484  46.6506426
  14.5353705  73.6724205  48.0152173  14.7289595  74.5770016  48.2611448
  14.4354323  73.2131625  48.8490758   6.1890016  63.5582096  50.5142501
   5.5417931  64.2572046  50.4206977   6.9591031  63.9918240  50.8818749
   9.5968813  73.8230948  53.5893054   9.4454320  73.5941500  52.6723138
   9.5873493  74.7801550  53.6024399   6.3654150  71.3962861  48.5739321
   7.2946210  71.5474021  48.4008288   5.9445180  71.4846882  47.7187967
   5.1642482  75.4213525  46.3437858   5.0253567  75.0532310  47.2163796
   4.3757078  75.9361165  46.1721816   5.7590634  80.5222622  37.6863395
   5.9342389  80.0510665  38.5009017   5.0723422  81.1488388  37.9144655
   6.7147697  74.7995128  43.7326696   6.3797529  74.7595898  44.6284346
   6.2151643  74.1339844  43.2597106   0.6891941  70.2062758  49.2579277
   0.5511739  69.4742997  49.8590816   1.5996864  70.1171658  48.9763465
   9.6506888  72.1451162  34.0063756   9.0336059  71.4197991  33.9096808
   9.1823377  72.9060523  33.6630830   3.3174241  69.9182717  48.7462957
   4.0273860  69.2775910  48.7049575   3.2743550  70.1695612  49.6689138
  11.3061020  76.8550071  51.6669536  11.2473566  76.1709291  51.0000119
  11.7080539  77.5969061  51.2150162   2.0303175  66.9047935  50.5658596
   1.4940532  66.4538674  51.2180193   1.4419884  67.0393844  49.8229061
   1.4405434  66.3636587  33.1285060   0.5634901  66.2425388  32.7647307
   1.9163187  65.5722665  32.8763949  11.3078427  74.8189655  49.8983516
  10.4205206  74.4815577  50.0209914  11.8776978  74.0872686  50.1352281
   4.8379581  79.4791107  46.8644759   4.7649752  80.2846079  47.3764063
   4.3956974  79.6783073  46.0392780   4.6269360  78.7162877  40.3747580
   3.8436882  79.2584557  40.4685805   5.3262106  79.2336857  40.7741822
   7.9366011  64.5257507  43.0181786   8.4334710  63.7727469  42.6982856
   7.1652992  64.5621823  42.4524995  15.7895768  70.2297872  44.6600077
  15.7785644  71.1122588  44.2894010  14.9213147  69.8769423  44.4654614
   7.2978264  79.3777941  49.0202917   8.0106237  80.0125406  48.9478819
   6.8068293  79.4741807  48.2042919   9.0195791  73.2829194  40.5920209
   8.0852070  73.4030656  40.4224913   9.1972460  72.3801661  40.3280219
   4.5200979  66.6674890  42.7453470   4.1498767  66.1145930  43.4334376
   5.0160072  66.0633023  42.1928470  12.4068343  69.1246513  41.1270243
  12.8728795  69.9574505  41.0530546  12.8575843  68.6591495  41.8315502
   2.3490178  77.1272385  49.8408488   3.0499637  77.7608868  49.9937883
   1.8785293  77.4687116  49.0804128  10.4744574  75.4690334  38.1256395
  10.7504418  75.3546929  39.0350269   9.6049072  75.0707819  38.0868568
  10.3785005  61.4927100  45.1661145   9.4648085  61.7231327  45.3343352
  10.8078107  61.5765544  46.0175177  10.1491464  69.6816992  47.6661039
   9.4962914  69.9292899  47.0113491  10.5271844  68.8681130  47.3323516
   7.1098638  79.7176685  41.7689209   7.2921032  78.8998341  42.2316961
   7.9331624  79.9344377  41.3314099   7.4440803  78.6444870  39.0304257
   7.9728570  78.1337325  38.4174420   7.7069023  78.3287401  39.8949790
   6.1979037  70.4236803  54.1527076   5.5219674  70.3230932  54.8229451
   7.0206671  70.2676017  54.6163073   4.9401820  81.7303731  48.3884692
   5.4920128  81.8935352  49.1533777   5.2808013  82.3208168  47.7164717
   9.7912694  76.5564988  54.2433346  10.3352598  77.1694946  53.7488301
   9.2099539  77.1144566  54.7600359   8.0770207  79.6785706  45.3748374
   7.9521346  78.8775446  44.8659319   8.7349298  80.1731899  44.8862344
  10.1405115  77.4794726  47.0027924   9.1935451  77.3600077  46.9306251
  10.4887888  76.5917224  47.0854185   2.5004689  63.3688865  50.8266166
   3.0239091  63.6151162  51.5892475   2.2817022  64.2008900  50.4069303
   7.1451549  77.2747442  43.2032276   6.9976511  76.3464150  43.3839846
   7.9705042  77.2967533  42.7189351   1.0113793  65.9265509  39.0612768
   1.3509865  66.4551431  38.3391377   1.4585913  66.2645916  39.8371335
  10.7485671  78.0976001  44.2897149  11.6732218  77.8918862  44.1521600
  10.5800974  77.8492402  45.1986490   3.7057234  64.3102560  48.5115836
   3.3654054  63.5110373  48.9136516   2.9996240  64.6104271  47.9392670
   4.3573706  61.3951873  46.9643159   5.1799775  60.9212351  46.8422050
   4.6011769  62.1742356  47.4641846   2.9981940  64.4240131  37.2606061
   3.7190303  64.8021384  36.7569778   2.3747244  65.1429008  37.3641039
   7.1413063  65.1285280  38.1964393   7.3576677  66.0109918  37.8953222
   6.6607130  64.7371493  37.4670035   1.8812284  68.0870993  44.7735138
   1.7356865  68.4011296  45.6659420   1.4037488  68.7055894  44.2206037
   3.7408667  65.0773541  44.8216028   3.7270236  64.1814635  44.4848326
   4.4581095  65.0844205  45.4554314   5.5934798  65.5110881  46.8669155
   5.3352576  66.4327952  46.8653485   5.0619838  65.1141316  47.5569619
  10.5380987  78.6161669  39.6459240  10.7117864  78.0508091  38.8933093
  11.0309878  79.4162563  39.4638730   3.1445563  63.9587921  40.0903598
   3.2661474  63.0304568  40.2894485   2.8547606  63.9726607  39.1781913
   6.0136754  61.6442832  43.2270318   6.0358450  61.7082165  42.2722297
   6.4304813  60.8047341  43.4210824  16.3920378  71.3798091  41.2649540
  16.8351524  70.6305417  40.8668663  15.5146888  71.3708228  40.8823272
  11.5256159  77.9328433  36.7456139  12.2207064  78.5535126  36.9643453
  11.8679309  77.0823784  37.0208517  13.4247582  75.3828138  38.2743469
  13.9498906  75.7215411  37.5492789  13.3369935  74.4475154  38.0906604
   5.0867631  79.2962212  50.4033346   5.3954757  79.0511359  51.2756046
   5.8843113  79.5008851  49.9152216   5.1088243  81.4500122  42.6338723
   4.6693233  80.9576500  43.3271579   5.8596360  80.9073089  42.3930798
   2.5562115  76.9938131  44.7061024   1.9342125  76.3308836  44.4063252
   3.2266982  77.0199263  44.0234672   2.6286643  65.4719919  54.2993530
   2.6774798  66.3482042  53.9171300   3.1709157  64.9297312  53.7265174
  13.1141488  76.0161042  53.5794667  12.3237032  75.9985181  53.0399167
  12.8774843  76.5549336  54.3343704  13.2339363  72.8653508  50.8927396
  13.2837368  72.7003516  51.8342919  13.1253287  71.9980767  50.5025277
   2.1175622  75.5442054  38.1819485   2.2663743  76.2277519  37.5286158
   2.9242066  75.5247144  38.6968941  10.5243126  68.8484436  52.2086703
  11.4252989  68.7090901  51.9170700  10.5991100  69.0138891  53.1484880
   4.8585931  66.2251291  51.0539889   3.9889241  66.5184857  50.7822478
   5.0945412  66.8091736  51.7747153  14.7357560  75.2850450  51.1369417
  14.4442369  75.6480431  51.9732878  14.1229692  74.5717458  50.9582750
  15.9353243  72.8503330  43.6571988  16.7700134  73.2893134  43.8209548
  16.0712371  72.3741983  42.8380233  12.9844749  70.4083065  49.6049475
  13.4598870  70.6010711  48.7968327  12.0610314  70.4642250  49.3592859
   7.5624965  62.4430908  48.5705309   8.0806909  63.1791935  48.2451798
   7.2080098  62.7494901  49.4052068   7.8137559  58.8631191  44.0906206
   8.0939313  58.1954380  44.7166632   8.5988166  59.0560286  43.5780870
   5.6171028  78.0390185  35.6531232   5.0444995  78.6580372  35.2001704
   6.1903821  78.5889546  36.1871154  11.6846418  67.2848825  47.8377781
  12.6363840  67.3846922  47.8590005  11.5149868  66.4927093  48.3475865
   9.7060797  64.3704408  48.0237182   9.1110729  64.6509421  47.3283671
   9.4210494  64.8598309  48.7953923   8.8368287  78.3227335  36.7839815
   9.7698961  78.2572896  36.9872690   8.7491500  79.1583602  36.3254347
  11.4656304  77.6393205  33.7443762  11.3869936  77.3053069  34.6379520
  12.2865971  78.1314973  33.7435234  14.1634495  70.5054944  46.9520081
  14.1310815  69.5670945  47.1379765  14.7735119  70.5838981  46.2185906
   6.0017826  69.3750997  32.9947285   6.9476931  69.2457205  33.0635703
   5.6232071  68.6365659  33.4716713  14.3128984  67.2965988  46.9978364
  13.7968032  66.5124444  46.8108293  15.1968932  66.9684704  47.1624883
  11.9739711  61.0407003  42.9574177  11.7764532  60.7322092  43.8417509
  12.5839416  61.7668642  43.0872106  19.9811045  71.5670951  46.0926118
  20.7114434  71.3056239  46.6533821  19.3717991  70.8299673  46.1328185
  18.0626342  69.7078814  46.6900569  17.3359506  69.5734779  46.0817060
  17.6473629  70.0155642  47.4957287   5.8856519  73.4268743  54.4547942
   6.8059528  73.6047343  54.6487988   5.8506102  72.4824789  54.3027641
   4.1860743  67.3000974  32.9302170   3.2792199  67.0034086  33.0064884
   4.4636724  67.0030792  32.0636456   5.8022809  61.8437863  39.0846411
   4.9923537  61.4984948  39.4601657   6.4907226  61.5345407  39.6734023
   7.7313357  60.9215910  40.7070708   8.2844396  61.3411364  41.3660731
   7.9683444  59.9951658  40.7493664   3.7546457  66.9102984  56.4873472
   3.6543183  67.8597341  56.4185563   3.5367999  66.5821223  55.6149542
   2.9559528  64.1587909  33.0714149   3.8178692  64.4842807  33.3309967
   3.1409872  63.3719405  32.5587215  11.1092164  63.0316435  40.2149372
  10.5290833  63.6901239  39.8327425  10.8428097  62.2093780  39.8036790
   9.5595731  62.4321493  42.4170693  10.0595509  62.5438028  41.6085011
  10.2031339  62.1282546  43.0571501   3.6177727  70.3400123  55.3038533
   3.1344808  71.1400483  55.5102423   3.7038666  70.3508068  54.3505977
   9.8917042  65.1916526  39.2705720   9.0042897  65.4766176  39.0525915
  10.3071032  65.0310289  38.4232997  13.2431579  65.2163047  42.9860060
  14.0191969  65.7059499  43.2584677  12.5179713  65.6421101  43.4431929
  15.6804137  65.9290666  44.0434000  16.2748628  65.6886402  43.3327309
  15.7530721  65.2097797  44.6707537   9.0360256  74.9561200  33.3653740
   9.7396106  75.1611203  33.9811396   8.3122905  75.5237962  33.6302824
   9.8658066  70.7071062  39.4856011   9.8093268  71.1639613  38.6463643
  10.4186409  69.9461746  39.3078853  13.6762872  66.4960794  40.3106130
  13.4199806  66.0957429  41.1414338  13.0515740  67.2104588  40.1856269
  17.9875210  69.2356867  42.8177422  17.4274768  69.3050056  43.5908984
  17.3818713  69.0597851  42.0976918  10.9446953  75.3943730  35.4152200
  11.7792557  74.9624928  35.2329675  10.7831296  75.2225743  36.3429095
  10.5992846  71.8975843  36.7808540  10.5441649  71.7320114  35.8396984
   9.9738901  72.6051876  36.9370730   7.9138753  74.2024755  56.1062103
   8.7829912  74.3765407  55.7448737   7.4345504  75.0219172  55.9837832
   3.9088971  61.3983952  36.3593858   3.8967641  62.3425792  36.5162129
   4.8012393  61.2154097  36.0653319   2.0824933  81.3221856  47.7851536
   2.9852180  81.3545466  48.1018031   1.8562303  80.3922307  47.7997872
   3.8378535  80.0752842  44.4461615   2.8874166  80.0754704  44.3325987
   4.1411021  79.3285577  43.9297649   7.7241090  57.9926729  40.6139795
   6.9573486  57.4385215  40.7596477   8.1351795  58.0648597  41.4753947
  19.5731228  85.9113381  45.5107377  20.2109638  85.7920128  44.8070717
  19.4552071  86.8594225  45.5695329  16.3820935  85.8640809  45.4468902
  16.0439446  85.7481874  44.5589437  17.2510703  85.4631974  45.4269908
  12.2407750  87.7176285  41.4365793  11.6772616  87.6266222  40.6682081
  12.1260145  86.8976190  41.9168285  16.8640718  87.0175661  51.4055107
  16.8529358  86.6228459  50.5335611  17.0261357  86.2841733  51.9988879
   9.7872182  89.2127477  44.2750013  10.5793474  88.8718302  43.8596313
  10.0268832  89.3222452  45.1952167  17.8207309  91.3847253  36.7480258
  17.1695289  91.9701333  36.3614272  18.6151672  91.9153448  36.8075295
  11.7462936  88.4736390  37.1467392  12.5193812  87.9265377  37.0080268
  12.0988335  89.3380639  37.3581854  13.5847979  89.8012772  50.3534291
  13.2937845  90.7058403  50.2380958  14.2204963  89.8429300  51.0678361
  14.5104186  87.1789621  46.9435651  15.1067758  86.9545643  46.2292614
  14.5679157  86.4374366  47.5461099  14.0829214  84.6329056  34.7785842
  14.3354735  84.1110578  34.0169305  13.1453773  84.4695202  34.8812526
  19.1272497  83.6364835  42.5860585  19.9135586  83.2184258  42.2351002
  19.3911201  84.5410927  42.7542234  19.2982574  89.0737685  37.2849242
  18.6628407  89.1472311  37.9970147  18.9679981  89.6631284  36.6068321
  24.5280924  83.5740068  43.4893564  25.2606096  83.0039285  43.7231393
  23.7720280  83.1861668  43.9300069  13.8025503  86.5357162  36.9810217
  13.6861761  85.8602066  37.6491301  13.9127763  86.0489536  36.1642370
  16.1457044  85.9967309  40.6856906  15.7815251  85.4697930  41.3969828
  17.0024160  85.6065778  40.5123392  22.0506344  77.2861642  47.9488172
  21.7189669  78.1557053  47.7249387  21.4551958  76.9697926  48.6282203
  15.7862531  81.0257209  35.6818255  15.9536933  81.8937445  36.0488726
  15.5959700  81.1884491  34.7579544  18.5437864  89.4874188  47.3484085
  18.2438587  90.3899227  47.2399892  18.1988923  89.2206371  48.2005238
  11.9950345  85.9387985  43.3820790  11.0700842  85.8064199  43.5898481
  12.2434759  86.7182204  43.8790732  21.9435008  82.0056728  45.0281522
  21.0351885  81.9372137  44.7340283  21.8922603  82.4828673  45.8563348
  15.7651752  83.4814867  36.6664922  15.6451377  83.9271917  37.5050402
  15.0704340  83.8300184  36.1078460   9.3559156  85.5821258  44.2164579
   9.4851538  85.8355737  45.1303990   8.6756608  86.1748966  43.8969234
  13.5258644  96.2518508  40.3155053  13.4482673  97.2026333  40.3943533
  12.9220287  95.9064381  40.9729979  16.0175873  83.4246374  52.9716420
  15.2409208  83.9840294  52.9619284  16.6566437  83.9103157  53.4931290
  23.8096654  80.2073167  46.8059396  23.1671034  80.5005700  46.1599191
  23.3051583  80.0926087  47.6112593  21.4636818  83.9536340  37.4945256
  22.3754674  84.1863726  37.3192953  20.9546465  84.5373384  36.9320334
  14.2722246  86.2331827  52.5334387  15.0136930  86.7716871  52.2569210
  13.5659231  86.8598116  52.6905939  19.7477585  88.3760968  51.1306548
  20.1560941  87.9343378  50.3861181  19.0254847  87.8013595  51.3840741
  16.1008655  83.3133574  48.5040105  16.9469851  83.7372988  48.6474754
  16.0407293  82.6567199  49.1978668  20.0706400  88.9362158  44.8858837
  19.4415263  89.1007872  44.1834905  19.6832062  89.3503768  45.6569801
  23.9495632  89.8716596  42.2403201  23.2646670  90.2515497  41.6900234
  24.0339481  90.4811923  42.9735149  19.2508101  80.9737943  50.1621279
  19.0069033  81.7280003  49.6255554  19.5268031  81.3523290  50.9968526
  21.2046564  87.5176555  48.8398544  21.4163459  88.1608315  48.1632925
  21.1576312  86.6838872  48.3720474  18.8072793  80.1294376  45.7435117
  17.9457272  80.4275629  46.0351854  18.8335227  80.3464775  44.8116149
  15.6234362  88.6736566  42.1508922  16.0872707  88.9524269  41.3613545
  15.3591160  87.7720011  41.9682013  12.5158443  88.2208048  45.0888685
  13.0859800  88.6495316  44.4506170  13.1066555  87.9390633  45.7872871
  14.5603248  84.7959719  38.9598487  15.2627291  85.2480762  39.4272414
  14.2283877  84.1543537  39.5878380  13.0083610  83.3871475  53.3349697
  12.3782270  84.0687756  53.5685094  12.9019697  83.2754557  52.3902835
   8.3028582  83.0543271  44.2615621   7.5127636  83.3100800  43.7855732
   8.7939829  83.8691609  44.3667661  22.3192392  90.3948510  47.0120902
  23.1409835  89.9928698  46.7303583  22.3154794  90.2916745  47.9637018
  10.2543327  83.4187851  41.2199098   9.4574491  83.5306545  41.7382593
  10.0268920  83.7574503  40.3539988  16.0848995  89.9432554  49.1681612
  16.1493427  90.4052961  50.0039784  15.3759919  89.3129919  49.2963922
   6.5866285  83.3073762  46.6930612   6.8374323  84.1920772  46.9588188
   7.1225833  83.1278363  45.9205704  30.4098385  86.7387259  43.3605873
  29.6562093  86.1694657  43.2049878  30.5445926  86.7049923  44.3076508
  15.7997013  91.6100661  39.0360593  15.6642687  92.4552197  39.4645440
  16.3406825  91.8119939  38.2726526  12.2864352  77.6892241  55.6974948
  11.8931298  77.1358440  56.3722592  13.1030493  78.0002820  56.0881465
   9.2526410  89.1276099  39.6088518   9.7650931  89.9219350  39.7594082
   9.9049123  88.4302390  39.5422119  11.0621295  92.2441856  41.6911271
  11.2387923  93.1659820  41.5032255  11.8578128  91.9300275  42.1205651
  15.2032313  79.1050120  53.2895204  15.9442027  79.7057273  53.2099667
  15.4350236  78.3627758  52.7313247  10.3473651  84.2906487  51.5673434
  10.2327166  83.3891745  51.8680533   9.4918169  84.5370184  51.2158251
  17.4265489  92.2324228  53.1660935  16.9829343  91.4460606  52.8481839
  18.0882703  92.4203378  52.5004825  12.1852610  93.7620029  47.6921613
  12.7360035  93.6337093  46.9198607  11.3464086  94.0614918  47.3416506
  19.5246727  92.5127028  51.1942336  19.5065202  93.3335909  50.7022605
  20.4466647  92.3881103  51.4192477  15.9819781  90.0271157  52.0365844
  16.5148118  89.2659445  51.8065152  15.4533862  89.7344809  52.7789999
  19.1489476  75.1331223  47.5659486  18.8053746  76.0232865  47.4898597
  19.5168439  74.9432881  46.7029071   7.2175327  87.4564754  40.3848088
   8.0550549  87.8661762  40.1681796   7.3953594  86.5164196  40.3548282
  19.1139759  85.1239834  36.0731921  18.5986382  85.8944439  36.3120309
  18.8417067  84.4504970  36.6964983  16.6986870  79.9689535  41.1317160
  15.8428466  79.5796385  40.9522798  17.1113822  80.0481496  40.2716945
  18.2286017  77.5035878  45.5308719  17.7250812  77.4666013  44.7176525
  18.5216623  78.4128621  45.5905376  14.4728902  77.5874608  44.5374901
  15.3381899  77.3917417  44.1780790  14.5406411  77.3584960  45.4644258
  24.0874033  87.8772189  38.0085095  23.3103476  87.5383348  37.5640257
  24.7665514  87.8824812  37.3340060  18.9026062  82.9966926  37.8991702
  18.5976198  83.3113076  38.7501845  19.8556504  83.0748346  37.9419035
  17.3472494  89.1557150  39.5484656  16.8193856  88.4209909  39.2357894
  16.8459997  89.9331826  39.3024625  22.3265340  87.3506170  44.6651703
  21.6689014  88.0405432  44.7531831  23.1305739  87.7402602  45.0085689
  12.0791222  79.8176816  41.9091268  12.6534973  79.5951997  41.1764461
  12.6662204  79.8865510  42.6619869  21.1370799  85.7050543  42.7155644
  21.6502681  86.3380535  43.2177354  21.7872023  85.1051738  42.3499004
  12.4060809  81.8481277  35.9287153  11.5698121  82.1855964  36.2496428
  12.2665578  81.7130257  34.9914290  14.3813889  76.6918065  40.6366337
  13.7278302  76.3767082  40.0122952  14.3394363  76.0693805  41.3626160
  15.4925094  86.9737360  32.5519629  14.5852156  86.7426613  32.7510778
  15.9896126  86.1774979  32.7393611  18.3993173  95.6834867  35.4716315
  17.7254872  95.9866564  36.0801273  18.7858995  96.4863947  35.1221773
  17.6151630  83.1799998  44.9613985  16.6974191  83.4014945  44.8035673
  18.0311773  83.2546309  44.1025692  18.3986677  84.5791414  40.0916665
  19.1458496  85.0912811  39.7823787  18.6678267  84.2575467  40.9521059
  16.6713328  87.0749955  37.0743619  15.7624547  86.7908988  37.1716089
  16.7008411  87.4949033  36.2146926  21.9032595  90.6856544  40.8434787
  21.4494922  89.8447454  40.8999977  21.2726562  91.3217943  41.1809567
  20.8465515  81.6148530  42.0735454  20.1088271  81.1025917  42.4045697
  21.0992288  81.1748912  41.2618731  20.3465534  92.5233041  41.7784605
  20.6388509  93.0838098  41.0596971  20.8564155  92.8161602  42.5337764
  20.9477142  74.3924782  42.6677224  21.2536019  73.5322146  42.3803139
  21.6729747  74.9842403  42.4676218   7.2401498  84.7955469  41.0558822
   7.0425898  84.2024830  40.3309888   6.6848162  84.4907679  41.7734760
  15.2198222  84.6878575  43.1753415  15.2746831  83.7352412  43.0995891
  14.4089424  84.8438014  43.6594713  16.3689415  88.6158698  34.4131698
  15.9308845  87.8994557  33.9537335  17.1099856  88.8434813  33.8516789
  13.1590582  83.3055635  40.9343794  12.3458447  83.6049806  41.3408986
  13.6549576  82.9111324  41.6518276  15.3099159  93.3013392  42.8678058
  15.2675338  93.5274238  41.9386590  16.2261858  93.0676767  43.0163859
  18.7564793  83.7697460  49.7658688  19.1114181  83.9968933  50.6253153
  19.4036924  84.1015836  49.1435943  24.4862530  86.8915895  40.4708017
  24.3480429  87.0817491  39.5429206  24.1298749  87.6535278  40.9276068
  12.6504656  80.8773991  46.5505029  13.2904036  80.7362750  45.8527992
  11.8182187  80.5908504  46.1743631  24.5131910  88.9592422  45.4819288
  24.9468416  88.8667712  46.3302342  25.2263490  88.9349923  44.8439304
  13.4264960  90.1776421  42.6640021  14.2205559  89.6826741  42.4622596
  12.7156653  89.6494284  42.3007727  18.2459805  92.5594517  47.0152389
  18.2996827  93.1285453  47.7830105  17.3774586  92.7296402  46.6506426
   9.7347724  84.3219503  38.7399774   8.8045312  84.2603958  38.9569736
   9.8305196  83.7995456  37.9436415   9.6533273  80.8474316  41.3278015
   9.9140090  81.7619649  41.2187176  10.4750445  80.3798758  41.4774628
  11.1258198  82.2612073  48.4976840  11.7981251  82.0529435  47.8489489
  10.2987985  82.0634159  48.0582072  25.3747459  89.0016123  48.0152173
  25.5683349  89.9061934  48.2611448  25.2748077  88.5423542  48.8490758
  17.0283770  78.8874014  50.5142501  16.3811685  79.5863963  50.4206977
  17.7984785  79.3210158  50.8818749  20.4362568  89.1522866  53.5893054
  20.2848074  88.9233418  52.6723138  20.4267247  90.1093467  53.6024399
  17.2047904  86.7254779  48.5739321  18.1339964  86.8765938  48.4008288
  16.7838934  86.8138799  47.7187967  16.0036236  90.7505443  46.3437858
  15.8647322  90.3824227  47.2163796  15.2150832  91.2653082  46.1721816
  16.5984388  95.8514540  37.6863395  16.7736144  95.3802583  38.5009017
  15.9117176  96.4780306  37.9144655  17.5541451  90.1287046  43.7326696
  17.2191284  90.0887816  44.6284346  17.0545397  89.4631762  43.2597106
  11.5285695  85.5354676  49.2579277  11.3905493  84.8034915  49.8590816
  12.4390619  85.4463576  48.9763465  20.4900643  87.4743080  34.0063756
  19.8729814  86.7489908  33.9096808  20.0217131  88.2352440  33.6630830
  14.1567996  85.2474635  48.7462957  14.8667614  84.6067827  48.7049575
  14.1137304  85.4987530  49.6689138  22.1454775  92.1841988  51.6669536
  22.0867321  91.5001209  51.0000119  22.5474293  92.9260978  51.2150162
  12.8696930  82.2339853  50.5658596  12.3334287  81.7830591  51.2180193
  12.2813638  82.3685762  49.8229061  11.1645473  99.0003902  44.4603255
  11.4042072  99.6322426  45.1382273  10.3214670  98.6491942  44.7468614
  12.2799189  81.6928504  33.1285060  11.4028655  81.5717305  32.7647307
  12.7556942  80.9014583  32.8763949  22.1472182  90.1481572  49.8983516
  21.2598961  89.8107494  50.0209914  22.7170733  89.4164604  50.1352281
   3.8001329  86.4805664  43.2226567   4.4872369  86.1667394  42.6347582
   3.6449458  87.3847029  42.9493818   8.6036051  81.3695861  47.6511591
   8.5194240  80.7621530  46.9162001   7.7818758  81.8604879  47.6521087
  15.6773335  94.8083025  46.8644759  15.6043507  95.6137996  47.3764063
  15.2350728  95.0074991  46.0392780  15.4663115  94.0454795  40.3747580
  14.6830637  94.5876475  40.4685805  16.1655860  94.5628774  40.7741822
  18.7759765  79.8549424  43.0181786  19.2728465  79.1019387  42.6982856
  18.0046747  79.8913741  42.4524995  26.6289522  85.5589790  44.6600077
  26.6179399  86.4414505  44.2894010  25.7606902  85.2061341  44.4654614
  18.1372019  94.7069859  49.0202917  18.8499991  95.3417324  48.9478819
  17.6462047  94.8033725  48.2042919  19.8589546  88.6121111  40.5920209
  18.9245824  88.7322574  40.4224913  20.0366214  87.7093578  40.3280219
  15.3594734  81.9966807  42.7453470  14.9892521  81.4437848  43.4334376
  15.8553826  81.3924941  42.1928470  23.2462097  84.4538431  41.1270243
  23.7122549  85.2866422  41.0530546  23.6969598  83.9883412  41.8315502
  13.1883932  92.4564302  49.8408488  13.8893392  93.0900785  49.9937883
  12.7179047  92.7979034  49.0804128  21.3138328  90.7982252  38.1256395
  21.5898172  90.6838847  39.0350269  20.4442827  90.3999737  38.0868568
  21.2178760  76.8219018  45.1661145  20.3041840  77.0523245  45.3343352
  21.6471861  76.9057462  46.0175177  20.9885218  85.0108910  47.6661039
  20.3356669  85.2584817  47.0113491  21.3665598  84.1973048  47.3323516
  17.9492392  95.0468603  41.7689209  18.1314787  94.2290259  42.2316961
  18.7725378  95.2636295  41.3314099  18.2834558  93.9736788  39.0304257
  18.8122324  93.4629243  38.4174420  18.5462777  93.6579318  39.8949790
  17.0372791  85.7528721  54.1527076  16.3613428  85.6522850  54.8229451
  17.8600425  85.5967934  54.6163073   8.7851650  91.9900657  46.7739591
   9.3705087  91.2444345  46.9067495   8.5876489  92.3004614  47.6576255
  11.6390306  95.0251905  41.7902033  10.9700681  95.5098032  41.3066073
  11.5003175  95.2721125  42.7045412   3.3769305  84.5606257  45.4944034
   3.4153405  84.0269848  46.2881152   2.8709598  84.0341463  44.8755011
  15.7795574  97.0595648  48.3884692  16.3313882  97.2227270  49.1533777
  16.1201768  97.6500086  47.7164717  10.7560067  79.4070798  48.9906576
  10.8201394  80.2685629  48.5783974  10.6927188  78.7944800  48.2578935
  10.2312340  81.4793931  52.6379611  10.8584379  81.0971008  53.2517135
   9.3740259  81.2608132  53.0035303  20.6306449  91.8856906  54.2433346
  21.1746353  92.4986864  53.7488301  20.0493293  92.4436484  54.7600359
   7.0077883  83.2870360  38.5697966   7.3031324  82.3781038  38.5165019
   6.1065918  83.2658099  38.2478968  18.9163961  95.0077624  45.3748374
  18.7915101  94.2067364  44.8659319  19.5743053  95.5023817  44.8862344
  10.5372130  81.3626356  44.5525514   9.8158715  81.9762324  44.4132987
  11.3265385  81.8984121  44.4742160  20.9798870  92.8086644  47.0027924
  20.0329205  92.6891995  46.9306251  21.3281643  91.9209142  47.0854185
  13.3398443  78.6980783  50.8266166  13.8632845  78.9443079  51.5892475
  13.1210777  79.5300818  50.4069303   8.7365724  80.9684457  38.6937291
   8.4078430  80.0881836  38.5112397   9.0905095  80.9132126  39.5813680
  17.9845303  92.6039360  43.2032276  17.8370266  91.6756067  43.3839846
  18.8098797  92.6259451  42.7189351  11.8507547  81.2557427  39.0612768
  12.1903620  81.7843348  38.3391377  12.2979668  81.5937833  39.8371335
  21.5879425  93.4267919  44.2897149  22.5125972  93.2210780  44.1521600
  21.4194728  93.1784320  45.1986490  14.5450988  79.6394478  48.5115836
  14.2047809  78.8402291  48.9136516  13.8389995  79.9396189  47.9392670
  15.1967460  76.7243790  46.9643159  16.0193529  76.2504268  46.8422050
  15.4405524  77.5034274  47.4641846  13.8375695  79.7532049  37.2606061
  14.5584057  80.1313301  36.7569778  13.2140999  80.4720926  37.3641039
  17.9806817  80.4577198  38.1964393  18.1970432  81.3401836  37.8953222
  17.5000885  80.0663411  37.4670035  12.7206039  83.4162911  44.7735138
  12.5750620  83.7303214  45.6659420  12.2431242  84.0347811  44.2206037
  14.5802422  80.4065459  44.8216028  14.5663991  79.5106552  44.4848326
  15.2974850  80.4136123  45.4554314  16.4328552  80.8402799  46.8669155
  16.1746330  81.7619870  46.8653485  15.9013593  80.4433234  47.5569619
  21.3774741  93.9453586  39.6459240  21.5511619  93.3800009  38.8933093
  21.8703632  94.7454481  39.4638730   7.1951701  85.9568255  47.7122799
   6.6505169  86.7328063  47.8443074   8.0731051  86.3039060  47.5541921
  13.9839318  79.2879839  40.0903598  14.1055229  78.3596485  40.2894485
  13.6941360  79.3018525  39.1781913  16.8530508  76.9734750  43.2270318
  16.8752205  77.0374083  42.2722297  17.2698567  76.1339258  43.4210824
  27.2314132  86.7090009  41.2649540  27.6745278  85.9597334  40.8668663
  26.3540643  86.7000146  40.8823272  22.3649914  93.2620351  36.7456139
  23.0600818  93.8827043  36.9643453  22.7073064  92.4115702  37.0208517
   7.9817723  85.0838152  50.6052956   7.2399459  85.2320787  51.1917586
   7.6610467  85.3446417  49.7419705  24.2641337  90.7120056  38.2743469
  24.7892661  91.0507329  37.5492789  24.1763689  89.7767071  38.0906604
  15.9261386  94.6254130  50.4033346  16.2348512  94.3803277  51.2756046
  16.7236868  94.8300768  49.9152216  15.9481998  96.7792039  42.6338723
  15.5086988  96.2868418  43.3271579  16.6990115  96.2365007  42.3930798
   8.4274337  92.9703580  42.6363351   9.2532356  92.6707352  42.2561994
   8.0768389  92.2011203  43.0853139  13.3955870  92.3230049  44.7061024
  12.7735879  91.6600754  44.4063252  14.0660737  92.3491180  44.0234672
   6.6282942  90.8889907  43.5952284   5.7914850  90.4612081  43.4136286
   6.6006587  91.0822350  44.5323075  13.4680397  80.8011837  54.2993530
  13.5168553  81.6773959  53.9171300  14.0102911  80.2589230  53.7265174
  23.9535243  91.3452960  53.5794667  23.1630787  91.3277099  53.0399167
  23.7168597  91.8841253  54.3343704  24.0733118  88.1945426  50.8927396
  24.1231123  88.0295434  51.8342919  23.9647041  87.3272685  50.5025277
  12.9569377  90.8733972  38.1819485  13.1057497  91.5569436  37.5286158
  13.7635820  90.8539062  38.6968941  21.3636880  84.1776354  52.2086703
  22.2646743  84.0382819  51.9170700  21.4384855  84.3430809  53.1484880
  15.6979686  81.5543209  51.0539889  14.8282995  81.8476775  50.7822478
  15.9339166  82.1383654  51.7747153  25.5751315  90.6142368  51.1369417
  25.2836123  90.9772348  51.9732878  24.9623446  89.9009376  50.9582750
  26.7746997  88.1795247  43.6571988  27.6093888  88.6185052  43.8209548
  26.9106126  87.7033901  42.8380233  23.8238503  85.7374982  49.6049475
  24.2992625  85.9302629  48.7968327  22.9004068  85.7934168  49.3592859
  10.7122010  86.8999149  39.1880554  10.4668052  85.9961479  39.3860764
  10.8817924  86.9016300  38.2460032  18.4018720  77.7722826  48.5705309
  18.9200663  78.5083853  48.2451798  18.0473852  78.0786819  49.4052068
   9.9817657  82.6327507  36.6866715   9.2886902  82.7071862  36.0306751
   9.7369409  81.8687851  37.2088232  18.6531314  74.1923108  44.0906206
  18.9333067  73.5246297  44.7166632  19.4381921  74.3852204  43.5780870
  16.4564782  93.3682102  35.6531232  15.8838749  93.9872289  35.2001704
  17.0297576  93.9181464  36.1871154  22.5240172  82.6140742  47.8377781
  23.4757595  82.7138840  47.8590005  22.3543622  81.8219011  48.3475865
  20.5454551  79.6996326  48.0237182  19.9504484  79.9801338  47.3283671
  20.2604248  80.1890227  48.7953923  19.6762042  93.6519252  36.7839815
  20.6092715  93.5864814  36.9872690  19.5885255  94.4875519  36.3254347
  22.3050059  92.9685123  33.7443762  22.2263690  92.6344986  34.6379520
  23.1259725  93.4606891  33.7435234  25.0028250  85.8346862  46.9520081
  24.9704570  84.8962863  47.1379765  25.6128873  85.9130899  46.2185906
  16.8411581  84.7042915  32.9947285  17.7870685  84.5749123  33.0635703
  16.4625826  83.9657577  33.4716713  25.1522738  82.6257905  46.9978364
  24.6361787  81.8416362  46.8108293  26.0362687  82.2976622  47.1624883
  22.8133465  76.3698921  42.9574177  22.6158286  76.0614009  43.8417509
  23.4233171  77.0960560  43.0872106  30.8204800  86.8962869  46.0926118
  31.5508188  86.6348157  46.6533821  30.2111745  86.1591591  46.1328185
  28.9020097  85.0370731  46.6900569  28.1753260  84.9026696  46.0817060
  28.4867384  85.3447560  47.4957287  16.7250273  88.7560661  54.4547942
  17.6453283  88.9339260  54.6487988  16.6899856  87.8116707  54.3027641
  15.0254498  82.6292891  32.9302170  14.1185953  82.3326004  33.0064884
  15.3030479  82.3322710  32.0636456   5.9432438  83.9499255  43.3801216
   5.6235223  83.0964563  43.0875590   5.3965866  84.1647833  44.1359184
   9.7212346  86.6661696  47.0970723   9.9398356  87.5978804  47.1158757
  10.1338120  86.3069670  47.8825527  16.6416564  77.1729781  39.0846411
  15.8317292  76.8276866  39.4601657  17.3300980  76.8637325  39.6734023
  18.5707112  76.2507828  40.7070708  19.1238150  76.6703281  41.3660731
  18.8077198  75.3243576  40.7493664  14.5940211  82.2394902  56.4873472
  14.4936938  83.1889259  56.4185563  14.3761753  81.9113140  55.6149542
  13.7953282  79.4879827  33.0714149  14.6572446  79.8134725  33.3309967
  13.9803627  78.7011323  32.5587215   5.8120698  87.5702166  45.3494338
   5.1184170  87.1556119  44.8364292   6.5593689  87.6122703  44.7527757
  21.9485919  78.3608353  40.2149372  21.3684588  79.0193157  39.8327425
  21.6821852  77.5385698  39.8036790  20.3989485  77.7613411  42.4170693
  20.8989264  77.8729945  41.6085011  21.0425093  77.4574464  43.0571501
  14.4571481  85.6692040  55.3038533  13.9738563  86.4692401  55.5102423
  14.5432420  85.6799985  54.3505977   7.7257441  87.5020420  43.2260353
   7.7028129  87.6008107  42.2742236   8.0358077  88.3485571  43.5477519
  10.3844819  89.5596575  47.3406967  11.3388072  89.5280517  47.2736899
  10.1857342  89.0987199  48.1557193  10.9744201  88.1297691  49.9077765
  11.7937090  88.6241770  49.9312602  11.2481008  87.2129659  49.8795332
  20.7310797  80.5208443  39.2705720  19.8436652  80.8058094  39.0525915
  21.1464786  80.3602207  38.4232997  24.0825333  80.5454964  42.9860060
  24.8585723  81.0351417  43.2584677  23.3573467  80.9713019  43.4431929
  26.5197892  81.2582584  44.0434000  27.1142383  81.0178320  43.3327309
  26.5924475  80.5389714  44.6707537   8.7395047  95.1016195  44.3577165
   8.6049515  94.3416596  43.7915163   8.3227110  95.8257094  43.8905954
  19.8754010  90.2853118  33.3653740  20.5789861  90.4903121  33.9811396
  19.1516659  90.8529880  33.6302824  20.7051821  86.0362979  39.4856011
  20.6487022  86.4931531  38.6463643  21.2580163  85.2753664  39.3078853
  24.5156627  81.8252711  40.3106130  24.2593561  81.4249347  41.1414338
  23.8909495  82.5396505  40.1856269  28.8268964  84.5648785  42.8177422
  28.2668522  84.6341974  43.5908984  28.2212468  84.3889769  42.0976918
  11.8964173  95.9985512  44.5695608  11.7796557  96.9430944  44.4674298
  11.0756620  95.6959073  44.9581407  21.7840708  90.7235647  35.4152200
  22.6186312  90.2916846  35.2329675  21.6225051  90.5517661  36.3429095
  21.4386600  87.2267761  36.7808540  21.3835404  87.0612032  35.8396984
  20.8132655  87.9343794  36.9370730   6.2279115  82.4635825  50.6069962
   6.8737979  81.9534779  51.0957187   6.0196266  83.2004507  51.1813387
  18.7532507  89.5316673  56.1062103  19.6223667  89.7057325  55.7448737
  18.2739259  90.3511089  55.9837832  14.7482725  76.7275870  36.3593858
  14.7361395  77.6717710  36.5162129  15.6406147  76.5446015  36.0653319
  12.9218687  96.6513774  47.7851536  13.8245934  96.6837384  48.1018031
  12.6956057  95.7214224  47.7997872  14.6772289  95.4044760  44.4461615
  13.7267920  95.4046622  44.3325987  14.9804776  94.6577495  43.9297649
  18.5634845  73.3218646  40.6139795  17.7967241  72.7677133  40.7596477
  18.9745550  73.3940515  41.4753947  10.5676606  79.6103442  54.7044976
  11.4308068  79.2540247  54.9148301   9.9942017  79.2717337  55.3920380
  30.4124983 101.2405298  45.5107377  31.0503393 101.1212046  44.8070717
  30.2945826 102.1886142  45.5695329  27.2214689 101.1932727  45.4468902
  26.8833201 101.0773791  44.5589437  28.0904457 100.7923892  45.4269908
  23.0801505 103.0468203  41.4365793  22.5166370 102.9558140  40.6682081
  22.9653900 102.2268107  41.9168285  27.7034472 102.3467578  51.4055107
  27.6923113 101.9520377  50.5335611  27.8655112 101.6133651  51.9988879
  20.6265937 104.5419395  44.2750013  21.4187229 104.2010219  43.8596313
  20.8662587 104.6514370  45.1952167  28.6601064 106.7139171  36.7480258
  28.0089043 107.2993251  36.3614272  29.4545426 107.2445366  36.8075295
  22.5856691 103.8028308  37.1467392  23.3587567 103.2557295  37.0080268
  22.9382090 104.6672557  37.3581854  24.4241733 105.1304690  50.3534291
  24.1331599 106.0350321  50.2380958  25.0598718 105.1721218  51.0678361
  25.3497940 102.5081539  46.9435651  25.9461512 102.2837561  46.2292614
  25.4072912 101.7666284  47.5461099  24.9222969  99.9620974  34.7785842
  25.1748489  99.4402495  34.0169305  23.9847528  99.7987119  34.8812526
  29.9666251  98.9656752  42.5860585  30.7529341  98.5476175  42.2351002
  30.2304956  99.8702845  42.7542234  30.1376329 104.4029603  37.2849242
  29.5022162 104.4764229  37.9970147  29.8073735 104.9923201  36.6068321
  35.3674679  98.9031986  43.4893564  36.0999850  98.3331202  43.7231393
  34.6114034  98.5153586  43.9300069  24.6419257 101.8649080  36.9810217
  24.5255515 101.1893983  37.6491301  24.7521517 101.3781454  36.1642370
  26.9850798 101.3259227  40.6856906  26.6209005 100.7989848  41.3969828
  27.8417914 100.9357696  40.5123392  32.8900099  92.6153560  47.9488172
  32.5583424  93.4848971  47.7249387  32.2945712  92.2989844  48.6282203
  26.6256285  96.3549127  35.6818255  26.7930688  97.2229363  36.0488726
  26.4353454  96.5176408  34.7579544  29.3831618 104.8166106  47.3484085
  29.0832341 105.7191144  47.2399892  29.0382678 104.5498289  48.2005238
  22.8344100 101.2679902  43.3820790  21.9094596 101.1356117  43.5898481
  23.0828513 102.0474122  43.8790732  32.7828762  97.3348646  45.0281522
  31.8745640  97.2664054  44.7340283  32.7316358  97.8120591  45.8563348
  26.6045506  98.8106784  36.6664922  26.4845131  99.2563835  37.5050402
  25.9098094  99.1592102  36.1078460  20.1952911 100.9113176  44.2164579
  20.3245292 101.1647655  45.1303990  19.5150362 101.5040884  43.8969234
  24.3652398 111.5810426  40.3155053  24.2876428 112.5318251  40.3943533
  23.7614042 111.2356298  40.9729979  26.8569628  98.7538291  52.9716420
  26.0802962  99.3132212  52.9619284  27.4960191  99.2395074  53.4931290
  34.6490409  95.5365084  46.8059396  34.0064789  95.8297617  46.1599191
  34.1445337  95.4218005  47.6112593  32.3030572  99.2828257  37.4945256
  33.2148428  99.5155644  37.3192953  31.7940219  99.8665302  36.9320334
  25.1116000 101.5623745  52.5334387  25.8530685 102.1008789  52.2569210
  24.4052986 102.1890034  52.6905939  30.5871340 103.7052885  51.1306548
  30.9954696 103.2635296  50.3861181  29.8648601 103.1305513  51.3840741
  26.9402410  98.6425492  48.5040105  27.7863605  99.0664906  48.6474754
  26.8801048  97.9859116  49.1978668  30.9100155 104.2654076  44.8858837
  30.2809017 104.4299790  44.1834905  30.5225817 104.6795685  45.6569801
  34.7889386 105.2008514  42.2403201  34.1040425 105.5807415  41.6900234
  34.8733236 105.8103840  42.9735149  30.0901855  96.3029860  50.1621279
  29.8462787  97.0571921  49.6255554  30.3661786  96.6815208  50.9968526
  32.0440318 102.8468473  48.8398544  32.2557213 103.4900233  48.1632925
  31.9970066 102.0130789  48.3720474  29.6466547  95.4586293  45.7435117
  28.7851026  95.7567547  46.0351854  29.6728982  95.6756692  44.8116149
  26.4628116 104.0028484  42.1508922  26.9266462 104.2816187  41.3613545
  26.1984915 103.1011929  41.9682013  23.3552198 103.5499965  45.0888685
  23.9253555 103.9787234  44.4506170  23.9460309 103.2682550  45.7872871
  25.3997003 100.1251636  38.9598487  26.1021046 100.5772680  39.4272414
  25.0677631  99.4835455  39.5878380  23.8477364  98.7163393  53.3349697
  23.2176025  99.3979674  53.5685094  23.7413452  98.6046475  52.3902835
  19.1422336  98.3835189  44.2615621  18.3521390  98.6392718  43.7855732
  19.6333584  99.1983527  44.3667661  33.1586146 105.7240428  47.0120902
  33.9803590 105.3220615  46.7303583  33.1548549 105.6208662  47.9637018
  21.0937082  98.7479768  41.2199098  20.2968245  98.8598462  41.7382593
  20.8662674  99.0866420  40.3539988  26.9242749 105.2724471  49.1681612
  26.9887182 105.7344879  50.0039784  26.2153673 104.6421836  49.2963922
  17.4260039  98.6365679  46.6930612  17.6768078  99.5212689  46.9588188
  17.9619588  98.4570281  45.9205704  41.2492139 102.0679177  43.3605873
  40.4955847 101.4986575  43.2049878  41.3839680 102.0341841  44.3076508
  26.6390767 106.9392579  39.0360593  26.5036442 107.7844115  39.4645440
  27.1800580 107.1411857  38.2726526  23.1258107  93.0184159  55.6974948
  22.7325052  92.4650357  56.3722592  23.9424247  93.3294737  56.0881465
  20.0920165 104.4568017  39.6088518  20.6044685 105.2511267  39.7594082
  20.7442877 103.7594307  39.5422119  21.9015049 107.5733773  41.6911271
  22.0781678 108.4951738  41.5032255  22.6971883 107.2592192  42.1205651
  26.0426068  94.4342038  53.2895204  26.7835781  95.0349191  53.2099667
  26.2743991  93.6919676  52.7313247  21.1867406  99.6198405  51.5673434
  21.0720921  98.7183662  51.8680533  20.3311924  99.8662102  51.2158251
  28.2659244 107.5616145  53.1660935  27.8223098 106.7752524  52.8481839
  28.9276457 107.7495296  52.5004825  23.0246365 109.0911947  47.6921613
  23.5753790 108.9629010  46.9198607  22.1857841 109.3906836  47.3416506
  30.3640482 107.8418945  51.1942336  30.3458957 108.6627826  50.7022605
  31.2860402 107.7173021  51.4192477  26.8213536 105.3563075  52.0365844
  27.3541873 104.5951363  51.8065152  26.2927617 105.0636727  52.7789999
  29.9883231  90.4623141  47.5659486  29.6447500  91.3524782  47.4898597
  30.3562193  90.2724798  46.7029071  18.0569081 102.7856671  40.3848088
  18.8944303 103.1953680  40.1681796  18.2347349 101.8456113  40.3548282
  29.9533513 100.4531752  36.0731921  29.4380137 101.2236357  36.3120309
  29.6810822  99.7796888  36.6964983  27.5380624  95.2981453  41.1317160
  26.6822221  94.9088303  40.9522798  27.9507576  95.3773413  40.2716945
  29.0679771  92.8327796  45.5308719  28.5644567  92.7957931  44.7176525
  29.3610378  93.7420539  45.5905376  25.3122657  92.9166526  44.5374901
  26.1775654  92.7209334  44.1780790  25.3800166  92.6876877  45.4644258
  34.9267788 103.2064107  38.0085095  34.1497230 102.8675266  37.5640257
  35.6059269 103.2116730  37.3340060  29.7419817  98.3258844  37.8991702
  29.4369952  98.6404993  38.7501845  30.6950259  98.4040264  37.9419035
  28.1866248 104.4849067  39.5484656  27.6587610 103.7501827  39.2357894
  27.6853751 105.2623744  39.3024625  33.1659094 102.6798088  44.6651703
  32.5082769 103.3697349  44.7531831  33.9699494 103.0694520  45.0085689
  22.9184976  95.1468734  41.9091268  23.4928728  94.9243915  41.1764461
  23.5055958  95.2157428  42.6619869  31.9764553 101.0342461  42.7155644
  32.4896435 101.6672452  43.2177354  32.6265777 100.4343656  42.3499004
  23.2454563  97.1773195  35.9287153  22.4091875  97.5147881  36.2496428
  23.1059333  97.0422174  34.9914290  25.2207644  92.0209983  40.6366337
  24.5672056  91.7059000  40.0122952  25.1788118  91.3985723  41.3626160
  26.3318849 102.3029278  32.5519629  25.4245910 102.0718531  32.7510778
  26.8289881 101.5066897  32.7393611  29.2386927 111.0126785  35.4716315
  28.5648626 111.3158482  36.0801273  29.6252749 111.8155865  35.1221773
  28.4545384  98.5091916  44.9613985  27.5367945  98.7306863  44.8035673
  28.8705528  98.5838227  44.1025692  29.2380432  99.9083332  40.0916665
  29.9852251 100.4204729  39.7823787  29.5072021  99.5867384  40.9521059
  27.5107082 102.4041872  37.0743619  26.6018301 102.1200905  37.1716089
  27.5402166 102.8240951  36.2146926  32.7426349 106.0148462  40.8434787
  32.2888677 105.1739372  40.8999977  32.1120316 106.6509860  41.1809567
  31.6859269  96.9440448  42.0735454  30.9482026  96.4317834  42.4045697
  31.9386043  96.5040830  41.2618731  31.1859289 107.8524959  41.7784605
  31.4782263 108.4130016  41.0596971  31.6957909 108.1453520  42.5337764
  31.7870896  89.7216700  42.6677224  32.0929773  88.8614063  42.3803139
  32.5123501  90.3134320  42.4676218  18.0795252 100.1247387  41.0558822
  17.8819652  99.5316747  40.3309888  17.5241916  99.8199597  41.7734760
  26.0591976 100.0170493  43.1753415  26.1140586  99.0644329  43.0995891
  25.2483178 100.1729932  43.6594713  27.2083170 103.9450616  34.4131698
  26.7702600 103.2286475  33.9537335  27.9493611 104.1726731  33.8516789
  23.9984336  98.6347553  40.9343794  23.1852202  98.9341723  41.3408986
  24.4943330  98.2403242  41.6518276  26.1492914 108.6305310  42.8678058
  26.1069093 108.8566156  41.9386590  27.0655613 108.3968684  43.0163859
  29.5958548  99.0989377  49.7658688  29.9507935  99.3260850  50.6253153
  30.2430679  99.4307754  49.1435943  35.3256285 102.2207813  40.4708017
  35.1874183 102.4109409  39.5429206  34.9692503 102.9827196  40.9276068
  23.4898411  96.2065908  46.5505029  24.1297790  96.0654667  45.8527992
  22.6575941  95.9200422  46.1743631  35.3525664 104.2884340  45.4819288
  35.7862171 104.1959629  46.3302342  36.0657245 104.2641841  44.8439304
  24.2658715 105.5068339  42.6640021  25.0599313 105.0118659  42.4622596
  23.5550407 104.9786202  42.3007727  29.0853559 107.8886434  47.0152389
  29.1390581 108.4577371  47.7830105  28.2168341 108.0588319  46.6506426
  20.5741478  99.6511420  38.7399774  19.6439066  99.5895876  38.9569736
  20.6698950  99.1287373  37.9436415  20.4927027  96.1766233  41.3278015
  20.7533844  97.0911567  41.2187176  21.3144200  95.7090676  41.4774628
  21.9651953  97.5903990  48.4976840  22.6375006  97.3821353  47.8489489
  21.1381739  97.3926076  48.0582072  36.2141214 104.3308041  48.0152173
  36.4077104 105.2353851  48.2611448  36.1141832 103.8715460  48.8490758
  27.8677525  94.2165931  50.5142501  27.2205440  94.9155881  50.4206977
  28.6378540  94.6502075  50.8818749  31.2756322 104.4814784  53.5893054
  31.1241829 104.2525335  52.6723138  31.2661002 105.4385385  53.6024399
  28.0441659 102.0546696  48.5739321  28.9733719 102.2057856  48.4008288
  27.6232689 102.1430717  47.7187967  26.8429991 106.0797361  46.3437858
  26.7041076 105.7116145  47.2163796  26.0544587 106.5945000  46.1721816
  27.4378143 111.1806457  37.6863395  27.6129898 110.7094500  38.5009017
  26.7510931 111.8072223  37.9144655  28.3935206 105.4578963  43.7326696
  28.0585038 105.4179733  44.6284346  27.8939151 104.7923679  43.2597106
  22.3679450 100.8646593  49.2579277  22.2299248 100.1326832  49.8590816
  23.2784373 100.7755494  48.9763465  31.3294397 102.8034998  34.0063756
  30.7123568 102.0781826  33.9096808  30.8610886 103.5644358  33.6630830
  24.9961750 100.5766553  48.7462957  25.7061369  99.9359745  48.7049575
  24.9531059 100.8279448  49.6689138  32.9848529 107.5133906  51.6669536
  32.9261075 106.8293126  51.0000119  33.3868047 108.2552896  51.2150162
  23.7090684  97.5631771  50.5658596  23.1728041  97.1122509  51.2180193
  23.1207393  97.6977680  49.8229061  22.0039228 114.3295820  44.4603255
  22.2435826 114.9614344  45.1382273  21.1608424 113.9783860  44.7468614
  23.1192943  97.0220422  33.1285060  22.2422410  96.9009223  32.7647307
  23.5950696  96.2306500  32.8763949  32.9865936 105.4773490  49.8983516
  32.0992715 105.1399412  50.0209914  33.5564487 104.7456521  50.1352281
  14.6395084 101.8097582  43.2226567  15.3266123 101.4959312  42.6347582
  14.4843212 102.7138946  42.9493818  19.4429806  96.6987778  47.6511591
  19.3587994  96.0913448  46.9162001  18.6212512  97.1896797  47.6521087
  26.5167090 110.1374942  46.8644759  26.4437261 110.9429914  47.3764063
  26.0744483 110.3366908  46.0392780  26.3056869 109.3746712  40.3747580
  25.5224391 109.9168393  40.4685805  27.0049615 109.8920692  40.7741822
  29.6153520  95.1841342  43.0181786  30.1122219  94.4311304  42.6982856
  28.8440501  95.2205659  42.4524995  37.4683277 100.8881707  44.6600077
  37.4573153 101.7706423  44.2894010  36.6000656 100.5353258  44.4654614
  28.9765773 110.0361776  49.0202917  29.6893746 110.6709241  48.9478819
  28.4855802 110.1325642  48.2042919  30.6983300 103.9413029  40.5920209
  29.7639579 104.0614492  40.4224913  30.8759969 103.0385496  40.3280219
  26.1988488  97.3258725  42.7453470  25.8286276  96.7729765  43.4334376
  26.6947581  96.7216858  42.1928470  34.0855852  99.7830348  41.1270243
  34.5516304 100.6158340  41.0530546  34.5363352  99.3175330  41.8315502
  24.0277687 107.7856220  49.8408488  24.7287146 108.4192703  49.9937883
  23.5572802 108.1270951  49.0804128  32.1532083 106.1274170  38.1256395
  32.4291927 106.0130764  39.0350269  31.2836581 105.7291655  38.0868568
  32.0572514  92.1510935  45.1661145  31.1435594  92.3815162  45.3343352
  32.4865616  92.2349379  46.0175177  31.8278973 100.3400827  47.6661039
  31.1750423 100.5876735  47.0113491  32.2059353  99.5264966  47.3323516
  28.7886147 110.3760521  41.7689209  28.9708541 109.5582176  42.2316961
  29.6119133 110.5928213  41.3314099  29.1228312 109.3028706  39.0304257
  29.6516079 108.7921160  38.4174420  29.3856532 108.9871236  39.8949790
  27.8766546 101.0820638  54.1527076  27.2007183 100.9814768  54.8229451
  28.6994180 100.9259852  54.6163073  19.6245405 107.3192575  46.7739591
  20.2098842 106.5736263  46.9067495  19.4270243 107.6296532  47.6576255
  22.4784060 110.3543822  41.7902033  21.8094435 110.8389950  41.3066073
  22.3396930 110.6013043  42.7045412  14.2163060  99.8898175  45.4944034
  14.2547159  99.3561766  46.2881152  13.7103352  99.3633381  44.8755011
  26.6189329 112.3887566  48.3884692  27.1707637 112.5519187  49.1533777
  26.9595522 112.9792004  47.7164717  21.5953822  94.7362716  48.9906576
  21.6595148  95.5977547  48.5783974  21.5320942  94.1236717  48.2578935
  21.0706094  96.8085848  52.6379611  21.6978133  96.4262926  53.2517135
  20.2134013  96.5900050  53.0035303  31.4700203 107.2148823  54.2433346
  32.0140107 107.8278782  53.7488301  30.8887048 107.7728402  54.7600359
  17.8471637  98.6162277  38.5697966  18.1425078  97.7072956  38.5165019
  16.9459673  98.5950017  38.2478968  29.7557716 110.3369541  45.3748374
  29.6308855 109.5359281  44.8659319  30.4136807 110.8315735  44.8862344
  21.3765884  96.6918274  44.5525514  20.6552470  97.3054242  44.4132987
  22.1659140  97.2276039  44.4742160  31.8192624 108.1378561  47.0027924
  30.8722960 108.0183913  46.9306251  32.1675397 107.2501060  47.0854185
  24.1792198  94.0272700  50.8266166  24.7026600  94.2734997  51.5892475
  23.9604531  94.8592735  50.4069303  19.5759479  96.2976375  38.6937291
  19.2472185  95.4173754  38.5112397  19.9298849  96.2424044  39.5813680
  28.8239058 107.9331278  43.2032276  28.6764020 107.0047985  43.3839846
  29.6492551 107.9551368  42.7189351  22.6901302  96.5849345  39.0612768
  23.0297374  97.1135266  38.3391377  23.1373422  96.9229751  39.8371335
  32.4273180 108.7559836  44.2897149  33.3519727 108.5502698  44.1521600
  32.2588483 108.5076238  45.1986490  25.3844743  94.9686396  48.5115836
  25.0441563  94.1694209  48.9136516  24.6783749  95.2688106  47.9392670
  26.0361215  92.0535708  46.9643159  26.8587284  91.5796186  46.8422050
  26.2799278  92.8326192  47.4641846  24.6769449  95.0823966  37.2606061
  25.3977812  95.4605219  36.7569778  24.0534753  95.8012843  37.3641039
  28.8200572  95.7869115  38.1964393  29.0364186  96.6693753  37.8953222
  28.3394639  95.3955329  37.4670035  23.5599793  98.7454829  44.7735138
  23.4144374  99.0595132  45.6659420  23.0824997  99.3639729  44.2206037
  25.4196176  95.7357377  44.8216028  25.4057745  94.8398470  44.4848326
  26.1368604  95.7428040  45.4554314  27.2722307  96.1694717  46.8669155
  27.0140085  97.0911787  46.8653485  26.7407347  95.7725151  47.5569619
  32.2168496 109.2745504  39.6459240  32.3905373 108.7091926  38.8933093
  32.7097387 110.0746399  39.4638730  18.0345456 101.2860173  47.7122799
  17.4898924 102.0619981  47.8443074  18.9124805 101.6330977  47.5541921
  24.8233072  94.6171757  40.0903598  24.9448983  93.6888403  40.2894485
  24.5335115  94.6310443  39.1781913  27.6924263  92.3026667  43.2270318
  27.7145959  92.3666000  42.2722297  28.1092322  91.4631176  43.4210824
  38.0707887 102.0381927  41.2649540  38.5139033 101.2889252  40.8668663
  37.1934397 102.0292063  40.8823272  33.2043668 108.5912268  36.7456139
  33.8994573 109.2118961  36.9643453  33.5466818 107.7407620  37.0208517
  18.8211477 100.4130069  50.6052956  18.0793213 100.5612705  51.1917586
  18.5004222 100.6738335  49.7419705  35.1035091 106.0411974  38.2743469
  35.6286415 106.3799247  37.5492789  35.0157444 105.1058989  38.0906604
  26.7655140 109.9546047  50.4033346  27.0742266 109.7095194  51.2756046
  27.5630622 110.1592686  49.9152216  26.7875752 112.1083957  42.6338723
  26.3480742 111.6160336  43.3271579  27.5383869 111.5656925  42.3930798
  19.2668091 108.2995498  42.6363351  20.0926111 107.9999270  42.2561994
  18.9162143 107.5303120  43.0853139  24.2349624 107.6521966  44.7061024
  23.6129634 106.9892671  44.4063252  24.9054491 107.6783098  44.0234672
  17.4676696 106.2181824  43.5952284  16.6308604 105.7903999  43.4136286
  17.4400342 106.4114268  44.5323075  24.3074152  96.1303754  54.2993530
  24.3562307  97.0065877  53.9171300  24.8496666  95.5881147  53.7265174
  34.7928997 106.6744877  53.5794667  34.0024541 106.6569016  53.0399167
  34.5562352 107.2133171  54.3343704  34.9126872 103.5237344  50.8927396
  34.9624877 103.3587351  51.8342919  34.8040796 102.6564603  50.5025277
  23.7963131 106.2025890  38.1819485  23.9451252 106.8861354  37.5286158
  24.6029575 106.1830980  38.6968941  32.2030635  99.5068272  52.2086703
  33.1040498  99.3674737  51.9170700  32.2778609  99.6722727  53.1484880
  26.5373440  96.8835127  51.0539889  25.6676750  97.1768693  50.7822478
  26.7732921  97.4675572  51.7747153  36.4145069 105.9434285  51.1369417
  36.1229878 106.3064266  51.9732878  35.8017201 105.2301294  50.9582750
  37.6140752 103.5087165  43.6571988  38.4487643 103.9476969  43.8209548
  37.7499880 103.0325818  42.8380233  34.6632258 101.0666900  49.6049475
  35.1386379 101.2594546  48.7968327  33.7397823 101.1226086  49.3592859
  21.5515764 102.2291067  39.1880554  21.3061806 101.3253397  39.3860764
  21.7211679 102.2308218  38.2460032  29.2412474  93.1014744  48.5705309
  29.7594418  93.8375770  48.2451798  28.8867607  93.4078737  49.4052068
  20.8211412  97.9619425  36.6866715  20.1280657  98.0363780  36.0306751
  20.5763164  97.1979768  37.2088232  29.4925068  89.5215026  44.0906206
  29.7726822  88.8538215  44.7166632  30.2775675  89.7144122  43.5780870
  27.2958537 108.6974020  35.6531232  26.7232504 109.3164207  35.2001704
  27.8691330 109.2473382  36.1871154  33.3633927  97.9432660  47.8377781
  34.3151349  98.0430758  47.8590005  33.1937377  97.1510929  48.3475865
  31.3848306  95.0288243  48.0237182  30.7898238  95.3093256  47.3283671
  31.0998003  95.5182144  48.7953923  30.5155796 108.9811170  36.7839815
  31.4486470 108.9156732  36.9872690  30.4279009 109.8167437  36.3254347
  33.1443813 108.2977040  33.7443762  33.0657445 107.9636904  34.6379520
  33.9653480 108.7898808  33.7435234  35.8422004 101.1638780  46.9520081
  35.8098324 100.2254780  47.1379765  36.4522628 101.2422816  46.2185906
  27.6805335 100.0334833  32.9947285  28.6264440  99.9041041  33.0635703
  27.3019580  99.2949495  33.4716713  35.9916493  97.9549823  46.9978364
  35.4755541  97.1708280  46.8108293  36.8756441  97.6268540  47.1624883
  33.6527220  91.6990839  42.9574177  33.4552041  91.3905927  43.8417509
  34.2626925  92.4252478  43.0872106  41.6598554 102.2254787  46.0926118
  42.3901943 101.9640075  46.6533821  41.0505500 101.4883509  46.1328185
  39.7413851 100.3662649  46.6900569  39.0147015 100.2318614  46.0817060
  39.3261138 100.6739478  47.4957287  27.5644028 104.0852579  54.4547942
  28.4847037 104.2631178  54.6487988  27.5293611 103.1408624  54.3027641
  25.8648252  97.9584809  32.9302170  24.9579708  97.6617922  33.0064884
  26.1424233  97.6614627  32.0636456  16.7826193  99.2791173  43.3801216
  16.4628977  98.4256481  43.0875590  16.2359621  99.4939751  44.1359184
  20.5606100 101.9953614  47.0970723  20.7792110 102.9270721  47.1158757
  20.9731874 101.6361588  47.8825527  27.4810318  92.5021699  39.0846411
  26.6711046  92.1568784  39.4601657  28.1694735  92.1929243  39.6734023
  29.4100866  91.5799746  40.7070708  29.9631905  91.9995199  41.3660731
  29.6470953  90.6535494  40.7493664  25.4333966  97.5686819  56.4873472
  25.3330692  98.5181176  56.4185563  25.2155508  97.2405058  55.6149542
  24.6347037  94.8171744  33.0714149  25.4966201  95.1426643  33.3309967
  24.8197381  94.0303240  32.5587215  16.6514453 102.8994084  45.3494338
  15.9577924 102.4848037  44.8364292  17.3987444 102.9414621  44.7527757
  32.7879673  93.6900271  40.2149372  32.2078342  94.3485075  39.8327425
  32.5215606  92.8677615  39.8036790  31.2383240  93.0905328  42.4170693
  31.7383018  93.2021863  41.6085011  31.8818848  92.7866381  43.0571501
  25.2965236 100.9983958  55.3038533  24.8132317 101.7984318  55.5102423
  25.3826175 101.0091903  54.3505977  18.5651195 102.8312338  43.2260353
  18.5421883 102.9300025  42.2742236  18.8751832 103.6777489  43.5477519
  21.2238573 104.8888493  47.3406967  22.1781827 104.8572435  47.2736899
  21.0251097 104.4279117  48.1557193  21.8137955 103.4589609  49.9077765
  22.6330844 103.9533688  49.9312602  22.0874763 102.5421577  49.8795332
  31.5704551  95.8500361  39.2705720  30.6830406  96.1350012  39.0525915
  31.9858541  95.6894125  38.4232997  34.9219088  95.8746882  42.9860060
  35.6979478  96.3643335  43.2584677  34.1967222  96.3004936  43.4431929
  37.3591646  96.5874501  44.0434000  37.9536137  96.3470237  43.3327309
  37.4318230  95.8681632  44.6707537  19.5788802 110.4308112  44.3577165
  19.4443270 109.6708513  43.7915163  19.1620864 111.1549012  43.8905954
  30.7147765 105.6145036  33.3653740  31.4183615 105.8195038  33.9811396
  29.9910414 106.1821798  33.6302824  31.5445575 101.3654897  39.4856011
  31.4880777 101.8223449  38.6463643  32.0973918 100.6045582  39.3078853
  35.3550381  97.1544629  40.3106130  35.0987315  96.7541265  41.1414338
  34.7303249  97.8688423  40.1856269  39.6662719  99.8940702  42.8177422
  39.1062277  99.9633892  43.5908984  39.0606222  99.7181687  42.0976918
  22.7357928 111.3277429  44.5695608  22.6190312 112.2722862  44.4674298
  21.9150374 111.0250991  44.9581407  32.6234462 106.0527565  35.4152200
  33.4580066 105.6208764  35.2329675  32.4618805 105.8809579  36.3429095
  32.2780354 102.5559678  36.7808540  32.2229158 102.3903950  35.8396984
  31.6526410 103.2635711  36.9370730  17.0672869  97.7927743  50.6069962
  17.7131733  97.2826697  51.0957187  16.8590021  98.5296424  51.1813387
  29.5926262 104.8608590  56.1062103  30.4617421 105.0349243  55.7448737
  29.1133013 105.6803007  55.9837832  25.5876480  92.0567787  36.3593858
  25.5755150  93.0009627  36.5162129  26.4799902  91.8737933  36.0653319
  23.7612442 111.9805691  47.7851536  24.6639689 112.0129301  48.1018031
  23.5349812 111.0506142  47.7997872  25.5166044 110.7336678  44.4461615
  24.5661675 110.7338539  44.3325987  25.8198530 109.9869412  43.9297649
  29.4028599  88.6510564  40.6139795  28.6360995  88.0969051  40.7596477
  29.8139304  88.7232433  41.4753947  21.4070360  94.9395360  54.7044976
  22.2701822  94.5832165  54.9148301  20.8335771  94.6009255  55.3920380
  41.2518737 116.5697216  45.5107377  41.8897147 116.4503964  44.8070717
  41.1339580 117.5178060  45.5695329  38.0608444 116.5224644  45.4468902
  37.7226955 116.4065709  44.5589437  38.9298212 116.1215809  45.4269908
  33.9195259 118.3760121  41.4365793  33.3560125 118.2850058  40.6682081
  33.8047654 117.5560025  41.9168285  38.5428227 117.6759496  51.4055107
  38.5316867 117.2812294  50.5335611  38.7048866 116.9425569  51.9988879
  31.4659691 119.8711312  44.2750013  32.2580983 119.5302137  43.8596313
  31.7056341 119.9806287  45.1952167  39.4994818 122.0431088  36.7480258
  38.8482798 122.6285169  36.3614272  40.2939181 122.5737283  36.8075295
  33.4250445 119.1320226  37.1467392  34.1981321 118.5849213  37.0080268
  33.7775844 119.9964475  37.3581854  35.2635488 120.4596608  50.3534291
  34.9725354 121.3642239  50.2380958  35.8992472 120.5013135  51.0678361
  36.1891695 117.8373456  46.9435651  36.7855267 117.6129479  46.2292614
  36.2466666 117.0958202  47.5461099  35.7616723 115.2912892  34.7785842
  36.0142244 114.7694413  34.0169305  34.8241282 115.1279037  34.8812526
  40.8060006 114.2948670  42.5860585  41.5923095 113.8768093  42.2351002
  41.0698710 115.1994762  42.7542234  40.9770083 119.7321520  37.2849242
  40.3415916 119.8056147  37.9970147  40.6467490 120.3215119  36.6068321
  46.2068433 114.2323903  43.4893564  46.9393605 113.6623120  43.7231393
  45.4507789 113.8445504  43.9300069  35.4813012 117.1940998  36.9810217
  35.3649270 116.5185901  37.6491301  35.5915272 116.7073372  36.1642370
  37.8244553 116.6551145  40.6856906  37.4602760 116.1281766  41.3969828
  38.6811669 116.2649614  40.5123392  43.7293853 107.9445477  47.9488172
  43.3977178 108.8140888  47.7249387  43.1339467 107.6281761  48.6282203
  37.4650040 111.6841044  35.6818255  37.6324442 112.5521281  36.0488726
  37.2747209 111.8468326  34.7579544  40.2225373 120.1458023  47.3484085
  39.9226096 121.0483062  47.2399892  39.8776432 119.8790207  48.2005238
  33.6737854 116.5971820  43.3820790  32.7488351 116.4648034  43.5898481
  33.9222268 117.3766039  43.8790732  43.6222517 112.6640563  45.0281522
  42.7139394 112.5955972  44.7340283  43.5710112 113.1412508  45.8563348
  37.4439261 114.1398702  36.6664922  37.3238886 114.5855753  37.5050402
  36.7491849 114.4884020  36.1078460  31.0346665 116.2405094  44.2164579
  31.1639047 116.4939573  45.1303990  30.3544117 116.8332802  43.8969234
  35.2046153 126.9102344  40.3155053  35.1270182 127.8610169  40.3943533
  34.6007796 126.5648216  40.9729979  37.6963382 114.0830209  52.9716420
  36.9196717 114.6424129  52.9619284  38.3353946 114.5686992  53.4931290
  45.4884163 110.8657002  46.8059396  44.8458543 111.1589535  46.1599191
  44.9839092 110.7509922  47.6112593  43.1424327 114.6120175  37.4945256
  44.0542183 114.8447562  37.3192953  42.6333974 115.1957219  36.9320334
  35.9509755 116.8915662  52.5334387  36.6924439 117.4300706  52.2569210
  35.2446740 117.5181951  52.6905939  41.4265094 119.0344803  51.1306548
  41.8348450 118.5927213  50.3861181  40.7042356 118.4597430  51.3840741
  37.7796164 113.9717410  48.5040105  38.6257360 114.3956823  48.6474754
  37.7194802 113.3151034  49.1978668  41.7493909 119.5945994  44.8858837
  41.1202771 119.7591708  44.1834905  41.3619571 120.0087603  45.6569801
  45.6283141 120.5300431  42.2403201  44.9434179 120.9099333  41.6900234
  45.7126990 121.1395758  42.9735149  40.9295610 111.6321778  50.1621279
  40.6856542 112.3863839  49.6255554  41.2055540 112.0107126  50.9968526
  42.8834073 118.1760390  48.8398544  43.0950968 118.8192150  48.1632925
  42.8363821 117.3422707  48.3720474  40.4860302 110.7878211  45.7435117
  39.6244781 111.0859465  46.0351854  40.5122736 111.0048610  44.8116149
  37.3021871 119.3320402  42.1508922  37.7660216 119.6108105  41.3613545
  37.0378669 118.4303846  41.9682013  34.1945952 118.8791883  45.0888685
  34.7647309 119.3079152  44.4506170  34.7854064 118.5974468  45.7872871
  36.2390757 115.4543554  38.9598487  36.9414800 115.9064598  39.4272414
  35.9071385 114.8127373  39.5878380  34.6871119 114.0455311  53.3349697
  34.0569779 114.7271591  53.5685094  34.5807206 113.9338392  52.3902835
  29.9816091 113.7127107  44.2615621  29.1915145 113.9684635  43.7855732
  30.4727338 114.5275445  44.3667661  43.9979901 121.0532346  47.0120902
  44.8197344 120.6512533  46.7303583  43.9942303 120.9500580  47.9637018
  31.9330836 114.0771686  41.2199098  31.1362000 114.1890380  41.7382593
  31.7056429 114.4158338  40.3539988  37.7636504 120.6016389  49.1681612
  37.8280936 121.0636796  50.0039784  37.0547428 119.9713754  49.2963922
  28.2653794 113.9657597  46.6930612  28.5161832 114.8504607  46.9588188
  28.8013342 113.7862199  45.9205704  52.0885894 117.3971094  43.3605873
  51.3349602 116.8278492  43.2049878  52.2233435 117.3633759  44.3076508
  37.4784522 122.2684497  39.0360593  37.3430196 123.1136032  39.4645440
  38.0194334 122.4703774  38.2726526  33.9651861 108.3476076  55.6974948
  33.5718807 107.7942275  56.3722592  34.7818002 108.6586655  56.0881465
  30.9313919 119.7859935  39.6088518  31.4438440 120.5803185  39.7594082
  31.5836632 119.0886225  39.5422119  32.7408804 122.9025691  41.6911271
  32.9175432 123.8243656  41.5032255  33.5365637 122.5884110  42.1205651
  36.8819822 109.7633956  53.2895204  37.6229536 110.3641109  53.2099667
  37.1137745 109.0211593  52.7313247  32.0261160 114.9490323  51.5673434
  31.9114675 114.0475580  51.8680533  31.1705678 115.1954020  51.2158251
  39.1052998 122.8908063  53.1660935  38.6616852 122.1044442  52.8481839
  39.7670212 123.0787214  52.5004825  33.8640119 124.4203865  47.6921613
  34.4147544 124.2920928  46.9198607  33.0251595 124.7198754  47.3416506
  41.2034236 123.1710863  51.1942336  41.1852711 123.9919744  50.7022605
  42.1254156 123.0464938  51.4192477  37.6607290 120.6854993  52.0365844
  38.1935627 119.9243281  51.8065152  37.1321371 120.3928644  52.7789999
  40.8276985 105.7915058  47.5659486  40.4841255 106.6816700  47.4898597
  41.1955948 105.6016716  46.7029071  28.8962836 118.1148589  40.3848088
  29.7338058 118.5245597  40.1681796  29.0741103 117.1748031  40.3548282
  40.7927268 115.7823670  36.0731921  40.2773891 116.5528274  36.3120309
  40.5204576 115.1088806  36.6964983  38.3774379 110.6273370  41.1317160
  37.5215975 110.2380221  40.9522798  38.7901331 110.7065331  40.2716945
  39.9073526 108.1619714  45.5308719  39.4038321 108.1249849  44.7176525
  40.2004132 109.0712456  45.5905376  36.1516411 108.2458443  44.5374901
  37.0169408 108.0501252  44.1780790  36.2193920 108.0168795  45.4644258
  45.7661542 118.5356024  38.0085095  44.9890985 118.1967184  37.5640257
  46.4453023 118.5408647  37.3340060  40.5813571 113.6550762  37.8991702
  40.2763707 113.9696911  38.7501845  41.5344013 113.7332182  37.9419035
  39.0260003 119.8140985  39.5484656  38.4981364 119.0793745  39.2357894
  38.5247506 120.5915661  39.3024625  44.0052849 118.0090005  44.6651703
  43.3476523 118.6989267  44.7531831  44.8093248 118.3986437  45.0085689
  33.7578731 110.4760651  41.9091268  34.3322482 110.2535833  41.1764461
  34.3449713 110.5449346  42.6619869  42.8158308 116.3634378  42.7155644
  43.3290189 116.9964370  43.2177354  43.4659532 115.7635574  42.3499004
  34.0848318 112.5065112  35.9287153  33.2485630 112.8439799  36.2496428
  33.9453087 112.3714092  34.9914290  36.0601398 107.3501900  40.6366337
  35.4065811 107.0350917  40.0122952  36.0181872 106.7277641  41.3626160
  37.1712603 117.6321195  32.5519629  36.2639665 117.4010449  32.7510778
  37.6683635 116.8358815  32.7393611  40.0780682 126.3418702  35.4716315
  39.4042381 126.6450399  36.0801273  40.4646504 127.1447783  35.1221773
  39.2939139 113.8383834  44.9613985  38.3761700 114.0598781  44.8035673
  39.7099282 113.9130144  44.1025692  40.0774186 115.2375249  40.0916665
  40.8246005 115.7496647  39.7823787  40.3465776 114.9159302  40.9521059
  38.3500837 117.7333790  37.0743619  37.4412056 117.4492823  37.1716089
  38.3795920 118.1532869  36.2146926  43.5820104 121.3440380  40.8434787
  43.1282431 120.5031290  40.8999977  42.9514071 121.9801778  41.1809567
  42.5253024 112.2732366  42.0735454  41.7875780 111.7609752  42.4045697
  42.7779797 111.8332747  41.2618731  42.0253043 123.1816876  41.7784605
  42.3176018 123.7421933  41.0596971  42.5351664 123.4745437  42.5337764
  42.6264651 105.0508618  42.6677224  42.9323528 104.1905981  42.3803139
  43.3517256 105.6426238  42.4676218  28.9189007 115.4539304  41.0558822
  28.7213407 114.8608665  40.3309888  28.3635671 115.1491514  41.7734760
  36.8985731 115.3462411  43.1753415  36.9534340 114.3936247  43.0995891
  36.0876933 115.5021850  43.6594713  38.0476924 119.2742534  34.4131698
  37.6096354 118.5578393  33.9537335  38.7887365 119.5018649  33.8516789
  34.8378090 113.9639470  40.9343794  34.0245956 114.2633641  41.3408986
  35.3337085 113.5695159  41.6518276  36.9886668 123.9597227  42.8678058
  36.9462847 124.1858074  41.9386590  37.9049367 123.7260602  43.0163859
  40.4352302 114.4281295  49.7658688  40.7901690 114.6552768  50.6253153
  41.0824433 114.7599672  49.1435943  46.1650039 117.5499731  40.4708017
  46.0267938 117.7401327  39.5429206  45.8086258 118.3119114  40.9276068
  34.3292165 111.5357826  46.5505029  34.9691545 111.3946585  45.8527992
  33.4969696 111.2492339  46.1743631  46.1919419 119.6176258  45.4819288
  46.6255925 119.5251547  46.3302342  46.9050999 119.5933758  44.8439304
  35.1052469 120.8360256  42.6640021  35.8993068 120.3410577  42.4622596
  34.3944162 120.3078120  42.3007727  39.9247314 123.2178352  47.0152389
  39.9784336 123.7869288  47.7830105  39.0562095 123.3880237  46.6506426
  31.4135233 114.9803338  38.7399774  30.4832821 114.9187794  38.9569736
  31.5092705 114.4579291  37.9436415  31.3320782 111.5058151  41.3278015
  31.5927599 112.4203484  41.2187176  32.1537954 111.0382594  41.4774628
  32.8045707 112.9195908  48.4976840  33.4768760 112.7113270  47.8489489
  31.9775494 112.7217994  48.0582072  47.0534968 119.6599959  48.0152173
  47.2470858 120.5645769  48.2611448  46.9535586 119.2007378  48.8490758
  38.7071279 109.5457849  50.5142501  38.0599194 110.2447799  50.4206977
  39.4772294 109.9793993  50.8818749  42.1150077 119.8106701  53.5893054
  41.9635583 119.5817253  52.6723138  42.1054756 120.7677303  53.6024399
  38.8835413 117.3838614  48.5739321  39.8127473 117.5349774  48.4008288
  38.4626443 117.4722635  47.7187967  37.6823745 121.4089278  46.3437858
  37.5434831 121.0408063  47.2163796  36.8938341 121.9236918  46.1721816
  38.2771897 126.5098375  37.6863395  38.4523653 126.0386418  38.5009017
  37.5904685 127.1364141  37.9144655  39.2328960 120.7870881  43.7326696
  38.8978793 120.7471651  44.6284346  38.7332906 120.1215597  43.2597106
  33.2073204 116.1938511  49.2579277  33.0693002 115.4618750  49.8590816
  34.1178128 116.1047411  48.9763465  42.1688152 118.1326915  34.0063756
  41.5517323 117.4073744  33.9096808  41.7004640 118.8936276  33.6630830
  35.8355505 115.9058470  48.7462957  36.5455123 115.2651663  48.7049575
  35.7924813 116.1571365  49.6689138  43.8242284 122.8425824  51.6669536
  43.7654830 122.1585044  51.0000119  44.2261802 123.5844814  51.2150162
  34.5484439 112.8923688  50.5658596  34.0121796 112.4414427  51.2180193
  33.9601147 113.0269597  49.8229061  32.8432982 129.6587738  44.4603255
  33.0829581 130.2906262  45.1382273  32.0002179 129.3075778  44.7468614
  33.9586698 112.3512340  33.1285060  33.0816164 112.2301141  32.7647307
  34.4344451 111.5598418  32.8763949  43.8259691 120.8065408  49.8983516
  42.9386470 120.4691330  50.0209914  44.3958242 120.0748439  50.1352281
  25.4788838 117.1389499  43.2226567  26.1659878 116.8251230  42.6347582
  25.3236967 118.0430864  42.9493818  30.2823560 112.0279696  47.6511591
  30.1981749 111.4205366  46.9162001  29.4606267 112.5188714  47.6521087
  37.3560844 125.4666860  46.8644759  37.2831016 126.2721832  47.3764063
  36.9138237 125.6658826  46.0392780  37.1450624 124.7038630  40.3747580
  36.3618146 125.2460310  40.4685805  37.8443369 125.2212610  40.7741822
  40.4547274 110.5133260  43.0181786  40.9515974 109.7603222  42.6982856
  39.6834256 110.5497576  42.4524995  48.3077031 116.2173625  44.6600077
  48.2966908 117.0998341  44.2894010  47.4394411 115.8645176  44.4654614
  39.8159528 125.3653694  49.0202917  40.5287500 126.0001159  48.9478819
  39.3249556 125.4617560  48.2042919  41.5377055 119.2704947  40.5920209
  40.6033333 119.3906409  40.4224913  41.7153723 118.3677414  40.3280219
  37.0382243 112.6550643  42.7453470  36.6680030 112.1021683  43.4334376
  37.5341335 112.0508776  42.1928470  44.9249606 115.1122266  41.1270243
  45.3910058 115.9450258  41.0530546  45.3757107 114.6467248  41.8315502
  34.8671441 123.1148138  49.8408488  35.5680901 123.7484621  49.9937883
  34.3966556 123.4562869  49.0804128  42.9925837 121.4566087  38.1256395
  43.2685681 121.3422682  39.0350269  42.1230336 121.0583572  38.0868568
  42.8966269 107.4802853  45.1661145  41.9829349 107.7107080  45.3343352
  43.3259370 107.5641297  46.0175177  42.6672727 115.6692745  47.6661039
  42.0144178 115.9168652  47.0113491  43.0453107 114.8556883  47.3323516
  39.6279901 125.7052438  41.7689209  39.8102296 124.8874094  42.2316961
  40.4512887 125.9220130  41.3314099  39.9622067 124.6320623  39.0304257
  40.4909833 124.1213078  38.4174420  40.2250286 124.3163154  39.8949790
  38.7160300 116.4112556  54.1527076  38.0400937 116.3106685  54.8229451
  39.5387934 116.2551770  54.6163073  30.4639159 122.6484493  46.7739591
  31.0492596 121.9028181  46.9067495  30.2663998 122.9588449  47.6576255
  33.3177815 125.6835740  41.7902033  32.6488190 126.1681868  41.3066073
  33.1790684 125.9304960  42.7045412  25.0556814 115.2190093  45.4944034
  25.0940914 114.6853684  46.2881152  24.5497107 114.6925298  44.8755011
  37.4583083 127.7179484  48.3884692  38.0101391 127.8811105  49.1533777
  37.7989277 128.3083921  47.7164717  32.4347576 110.0654633  48.9906576
  32.4988903 110.9269464  48.5783974  32.3714697 109.4528635  48.2578935
  31.9099849 112.1377766  52.6379611  32.5371888 111.7554843  53.2517135
  31.0527768 111.9191968  53.0035303  42.3093958 122.5440741  54.2433346
  42.8533861 123.1570699  53.7488301  41.7280802 123.1020319  54.7600359
  28.6865392 113.9454195  38.5697966  28.9818833 113.0364873  38.5165019
  27.7853427 113.9241934  38.2478968  40.5951470 125.6661459  45.3748374
  40.4702610 124.8651199  44.8659319  41.2530562 126.1607652  44.8862344
  32.2159639 112.0210192  44.5525514  31.4946224 112.6346159  44.4132987
  33.0052894 112.5567956  44.4742160  42.6586379 123.4670479  47.0027924
  41.7116714 123.3475830  46.9306251  43.0069152 122.5792977  47.0854185
  35.0185952 109.3564618  50.8266166  35.5420354 109.6026915  51.5892475
  34.7998285 110.1884653  50.4069303  30.4153233 111.6268293  38.6937291
  30.0865939 110.7465672  38.5112397  30.7692604 111.5715961  39.5813680
  39.6632812 123.2623195  43.2032276  39.5157775 122.3339903  43.3839846
  40.4886306 123.2843286  42.7189351  33.5295056 111.9141262  39.0612768
  33.8691129 112.4427184  38.3391377  33.9767177 112.2521669  39.8371335
  43.2666934 124.0851754  44.2897149  44.1913481 123.8794615  44.1521600
  43.0982237 123.8368155  45.1986490  36.2238497 110.2978313  48.5115836
  35.8835318 109.4986126  48.9136516  35.5177504 110.5980024  47.9392670
  36.8754969 107.3827626  46.9643159  37.6981038 106.9088104  46.8422050
  37.1193033 108.1618109  47.4641846  35.5163204 110.4115884  37.2606061
  36.2371566 110.7897137  36.7569778  34.8928508 111.1304761  37.3641039
  39.6594326 111.1161033  38.1964393  39.8757941 111.9985671  37.8953222
  39.1788394 110.7247246  37.4670035  34.3993548 114.0746746  44.7735138
  34.2538129 114.3887049  45.6659420  33.9218751 114.6931647  44.2206037
  36.2589931 111.0649294  44.8216028  36.2451499 110.1690388  44.4848326
  36.9762359 111.0719958  45.4554314  38.1116061 111.4986634  46.8669155
  37.8533839 112.4203705  46.8653485  37.5801102 111.1017069  47.5569619
  43.0562250 124.6037422  39.6459240  43.2299128 124.0383844  38.8933093
  43.5491141 125.4038316  39.4638730  28.8739210 116.6152091  47.7122799
  28.3292678 117.3911899  47.8443074  29.7518560 116.9622895  47.5541921
  35.6626827 109.9463675  40.0903598  35.7842738 109.0180321  40.2894485
  35.3728869 109.9602360  39.1781913  38.5318017 107.6318585  43.2270318
  38.5539714 107.6957918  42.2722297  38.9486076 106.7923094  43.4210824
  48.9101641 117.3673844  41.2649540  49.3532787 116.6181170  40.8668663
  48.0328152 117.3583981  40.8823272  44.0437423 123.9204186  36.7456139
  44.7388327 124.5410879  36.9643453  44.3860573 123.0699537  37.0208517
  29.6605232 115.7421987  50.6052956  28.9186968 115.8904622  51.1917586
  29.3397976 116.0030253  49.7419705  45.9428846 121.3703891  38.2743469
  46.4680170 121.7091164  37.5492789  45.8551198 120.4350907  38.0906604
  37.6048895 125.2837965  50.4033346  37.9136021 125.0387112  51.2756046
  38.4024377 125.4884604  49.9152216  37.6269507 127.4375875  42.6338723
  37.1874497 126.9452253  43.3271579  38.3777624 126.8948842  42.3930798
  30.1061846 123.6287416  42.6363351  30.9319865 123.3291187  42.2561994
  29.7555898 122.8595038  43.0853139  35.0743379 122.9813884  44.7061024
  34.4523388 122.3184589  44.4063252  35.7448246 123.0075016  44.0234672
  28.3070451 121.5473742  43.5952284  27.4702359 121.1195916  43.4136286
  28.2794096 121.7406185  44.5323075  35.1467906 111.4595672  54.2993530
  35.1956062 112.3357795  53.9171300  35.6890420 110.9173065  53.7265174
  45.6322752 122.0036795  53.5794667  44.8418296 121.9860934  53.0399167
  45.3956106 122.5425089  54.3343704  45.7520627 118.8529262  50.8927396
  45.8018632 118.6879269  51.8342919  45.6434550 117.9856521  50.5025277
  34.6356886 121.5317807  38.1819485  34.7845006 122.2153272  37.5286158
  35.4423329 121.5122897  38.6968941  43.0424389 114.8360190  52.2086703
  43.9434252 114.6966654  51.9170700  43.1172364 115.0014644  53.1484880
  37.3767195 112.2127044  51.0539889  36.5070504 112.5060610  50.7822478
  37.6126675 112.7967489  51.7747153  47.2538824 121.2726203  51.1369417
  46.9623632 121.6356184  51.9732878  46.6410955 120.5593211  50.9582750
  48.4534506 118.8379083  43.6571988  49.2881397 119.2768887  43.8209548
  48.5893635 118.3617736  42.8380233  45.5026012 116.3958818  49.6049475
  45.9780134 116.5886464  48.7968327  44.5791577 116.4518003  49.3592859
  32.3909519 117.5582985  39.1880554  32.1455561 116.6545315  39.3860764
  32.5605433 117.5600135  38.2460032  40.0806228 108.4306661  48.5705309
  40.5988172 109.1667688  48.2451798  39.7261361 108.7370655  49.4052068
  31.6605166 113.2911342  36.6866715  30.9674411 113.3655697  36.0306751
  31.4156918 112.5271686  37.2088232  40.3318823 104.8506944  44.0906206
  40.6120576 104.1830133  44.7166632  41.1169430 105.0436039  43.5780870
  38.1352291 124.0265938  35.6531232  37.5626258 124.6456125  35.2001704
  38.7085085 124.5765299  36.1871154  44.2027681 113.2724578  47.8377781
  45.1545104 113.3722675  47.8590005  44.0331131 112.4802846  48.3475865
  42.2242060 110.3580161  48.0237182  41.6291993 110.6385174  47.3283671
  41.9391757 110.8474062  48.7953923  41.3549551 124.3103088  36.7839815
  42.2880224 124.2448649  36.9872690  41.2672764 125.1459355  36.3254347
  43.9837568 123.6268958  33.7443762  43.9051199 123.2928822  34.6379520
  44.8047234 124.1190726  33.7435234  46.6815759 116.4930697  46.9520081
  46.6492079 115.5546698  47.1379765  47.2916382 116.5714734  46.2185906
  38.5199090 115.3626750  32.9947285  39.4658194 115.2332959  33.0635703
  38.1413335 114.6241412  33.4716713  46.8310247 113.2841741  46.9978364
  46.3149296 112.5000197  46.8108293  47.7150196 112.9560457  47.1624883
  44.4920974 107.0282756  42.9574177  44.2945795 106.7197845  43.8417509
  45.1020680 107.7544395  43.0872106  52.4992309 117.5546704  46.0926118
  53.2295697 117.2931992  46.6533821  51.8899254 116.8175426  46.1328185
  50.5807606 115.6954567  46.6900569  49.8540769 115.5610532  46.0817060
  50.1654893 116.0031395  47.4957287  38.4037782 119.4144497  54.4547942
  39.3240792 119.5923096  54.6487988  38.3687365 118.4700542  54.3027641
  36.7042007 113.2876727  32.9302170  35.7973462 112.9909839  33.0064884
  36.9817988 112.9906545  32.0636456  27.6219947 114.6083090  43.3801216
  27.3022732 113.7548398  43.0875590  27.0753375 114.8231668  44.1359184
  31.3999855 117.3245531  47.0970723  31.6185865 118.2562639  47.1158757
  31.8125629 116.9653506  47.8825527  38.3204073 107.8313616  39.0846411
  37.5104801 107.4860701  39.4601657  39.0088489 107.5221160  39.6734023
  40.2494621 106.9091663  40.7070708  40.8025659 107.3287117  41.3660731
  40.4864707 105.9827411  40.7493664  36.2727720 112.8978737  56.4873472
  36.1724447 113.8473094  56.4185563  36.0549262 112.5696976  55.6149542
  35.4740791 110.1463662  33.0714149  36.3359955 110.4718560  33.3309967
  35.6591136 109.3595158  32.5587215  27.4908207 118.2286002  45.3494338
  26.7971679 117.8139954  44.8364292  28.2381198 118.2706538  44.7527757
  43.6273428 109.0192188  40.2149372  43.0472097 109.6776992  39.8327425
  43.3609361 108.1969533  39.8036790  42.0776994 108.4197246  42.4170693
  42.5776773 108.5313781  41.6085011  42.7212602 108.1158299  43.0571501
  36.1358990 116.3275876  55.3038533  35.6526072 117.1276236  55.5102423
  36.2219929 116.3383821  54.3505977  29.4044950 118.1604255  43.2260353
  29.3815638 118.2591943  42.2742236  29.7145586 119.0069406  43.5477519
  32.0632328 120.2180410  47.3406967  33.0175581 120.1864353  47.2736899
  31.8644851 119.7571034  48.1557193  32.6531710 118.7881527  49.9077765
  33.4724599 119.2825605  49.9312602  32.9268517 117.8713495  49.8795332
  42.4098306 111.1792279  39.2705720  41.5224161 111.4641929  39.0525915
  42.8252295 111.0186042  38.4232997  45.7612842 111.2038800  42.9860060
  46.5373232 111.6935252  43.2584677  45.0360976 111.6296854  43.4431929
  48.1985401 111.9166419  44.0434000  48.7929891 111.6762155  43.3327309
  48.2711984 111.1973550  44.6707537  30.4182556 125.7600030  44.3577165
  30.2837024 125.0000431  43.7915163  30.0014619 126.4840930  43.8905954
  41.5541519 120.9436954  33.3653740  42.2577370 121.1486956  33.9811396
  40.8304168 121.5113715  33.6302824  42.3839330 116.6946815  39.4856011
  42.3274531 117.1515366  38.6463643  42.9367672 115.9337499  39.3078853
  46.1944136 112.4836547  40.3106130  45.9381070 112.0833182  41.1414338
  45.5697004 113.1980341  40.1856269  50.5056473 115.2232620  42.8177422
  49.9456031 115.2925809  43.5908984  49.8999977 115.0473605  42.0976918
  33.5751682 126.6569347  44.5695608  33.4584066 127.6014779  44.4674298
  32.7544129 126.3542909  44.9581407  43.4628217 121.3819483  35.4152200
  44.2973821 120.9500681  35.2329675  43.3012560 121.2101496  36.3429095
  43.1174109 117.8851596  36.7808540  43.0622913 117.7195867  35.8396984
  42.4920164 118.5927629  36.9370730  27.9066624 113.1219660  50.6069962
  28.5525488 112.6118614  51.0957187  27.6983775 113.8588342  51.1813387
  40.4320016 120.1900508  56.1062103  41.3011176 120.3641160  55.7448737
  39.9526768 121.0094925  55.9837832  36.4270234 107.3859705  36.3593858
  36.4148904 108.3301545  36.5162129  37.3193656 107.2029850  36.0653319
  34.6006196 127.3097609  47.7851536  35.5033443 127.3421219  48.1018031
  34.3743566 126.3798060  47.7997872  36.3559798 126.0628595  44.4461615
  35.4055429 126.0630457  44.3325987  36.6592285 125.3161330  43.9297649
  40.2422354 103.9802482  40.6139795  39.4754750 103.4260968  40.7596477
  40.6533059 104.0524350  41.4753947  32.2464115 110.2687277  54.7044976
  33.1095577 109.9124082  54.9148301  31.6729526 109.9301172  55.3920380
  52.0912492 131.8989134  45.5107377  52.7290902 131.7795881  44.8070717
  51.9733335 132.8469978  45.5695329  48.9002198 131.8516562  45.4468902
  48.5620710 131.7357627  44.5589437  49.7691966 131.4507727  45.4269908
  44.7589014 133.7052038  41.4365793  44.1953879 133.6141975  40.6682081
  44.6441409 132.8851943  41.9168285  49.3821981 133.0051414  51.4055107
  49.3710622 132.6104212  50.5335611  49.5442621 132.2717486  51.9988879
  42.3053446 135.2003230  44.2750013  43.0974738 134.8594055  43.8596313
  42.5450096 135.3098205  45.1952167  44.2644200 134.4612143  37.1467392
  45.0375076 133.9141130  37.0080268  44.6169599 135.3256393  37.3581854
  47.0285449 133.1665374  46.9435651  47.6249021 132.9421396  46.2292614
  47.0860421 132.4250119  47.5461099  46.6010478 130.6204809  34.7785842
  46.8535998 130.0986331  34.0169305  45.6635037 130.4570955  34.8812526
  51.6453760 129.6240588  42.5860585  52.4316850 129.2060011  42.2351002
  51.9092465 130.5286680  42.7542234  51.8163838 135.0613438  37.2849242
  51.1809671 135.1348065  37.9970147  51.4861244 135.6507037  36.6068321
  57.0462188 129.5615821  43.4893564  57.7787359 128.9915038  43.7231393
  56.2901543 129.1737421  43.9300069  46.3206766 132.5232915  36.9810217
  46.2043024 131.8477819  37.6491301  46.4309026 132.0365289  36.1642370
  48.6638307 131.9843062  40.6856906  48.2996514 131.4573683  41.3969828
  49.5205423 131.5941531  40.5123392  54.5687608 123.2737395  47.9488172
  54.2370933 124.1432806  47.7249387  53.9733221 122.9573679  48.6282203
  48.3043794 127.0132962  35.6818255  48.4718197 127.8813198  36.0488726
  48.1140963 127.1760244  34.7579544  51.0619127 135.4749941  47.3484085
  50.7619850 136.3774980  47.2399892  50.7170187 135.2082124  48.2005238
  44.5131609 131.9263738  43.3820790  43.5882105 131.7939952  43.5898481
  44.7616022 132.7057957  43.8790732  54.4616271 127.9932481  45.0281522
  53.5533149 127.9247890  44.7340283  54.4103867 128.4704426  45.8563348
  48.2833015 129.4690620  36.6664922  48.1632640 129.9147670  37.5050402
  47.5885603 129.8175937  36.1078460  41.8740420 131.5697011  44.2164579
  42.0032801 131.8231490  45.1303990  41.1937871 132.1624719  43.8969234
  48.5357137 129.4122127  52.9716420  47.7590471 129.9716047  52.9619284
  49.1747700 129.8978910  53.4931290  56.3277918 126.1948920  46.8059396
  55.6852298 126.4881453  46.1599191  55.8232846 126.0801840  47.6112593
  53.9818081 129.9412093  37.4945256  54.8935937 130.1739480  37.3192953
  53.4727728 130.5249137  36.9320334  46.7903509 132.2207580  52.5334387
  47.5318194 132.7592624  52.2569210  46.0840495 132.8473869  52.6905939
  52.2658849 134.3636721  51.1306548  52.6742205 133.9219131  50.3861181
  51.5436110 133.7889348  51.3840741  48.6189919 129.3009327  48.5040105
  49.4651114 129.7248741  48.6474754  48.5588557 128.6442952  49.1978668
  52.5887664 134.9237911  44.8858837  51.9596526 135.0883625  44.1834905
  52.2013326 135.3379521  45.6569801  56.4676895 135.8592349  42.2403201
  55.7827934 136.2391250  41.6900234  56.5520745 136.4687676  42.9735149
  51.7689364 126.9613696  50.1621279  51.5250296 127.7155756  49.6255554
  52.0449295 127.3399043  50.9968526  53.7227827 133.5052308  48.8398544
  53.9344722 134.1484068  48.1632925  53.6757575 132.6714625  48.3720474
  51.3254056 126.1170129  45.7435117  50.4638535 126.4151382  46.0351854
  51.3516491 126.3340528  44.8116149  48.1415625 134.6612319  42.1508922
  48.6053971 134.9400022  41.3613545  47.8772424 133.7595764  41.9682013
  45.0339706 134.2083801  45.0888685  45.6041064 134.6371069  44.4506170
  45.6247818 133.9266386  45.7872871  47.0784511 130.7835472  38.9598487
  47.7808555 131.2356515  39.4272414  46.7465140 130.1419291  39.5878380
  45.5264873 129.3747228  53.3349697  44.8963534 130.0563509  53.5685094
  45.4200961 129.2630310  52.3902835  40.8209845 129.0419024  44.2615621
  40.0308899 129.2976553  43.7855732  41.3121093 129.8567362  44.3667661
  54.8373655 136.3824264  47.0120902  55.6591099 135.9804451  46.7303583
  54.8336058 136.2792498  47.9637018  42.7724591 129.4063604  41.2199098
  41.9755754 129.5182298  41.7382593  42.5450183 129.7450256  40.3539988
  48.6030258 135.9308307  49.1681612  48.6674691 136.3928714  50.0039784
  47.8941182 135.3005672  49.2963922  39.1047548 129.2949515  46.6930612
  39.3555587 130.1796525  46.9588188  39.6407097 129.1154116  45.9205704
  62.9279648 132.7263012  43.3605873  62.1743356 132.1570410  43.2049878
  63.0627189 132.6925676  44.3076508  44.8045616 123.6767994  55.6974948
  44.4112561 123.1234193  56.3722592  45.6211756 123.9878573  56.0881465
  47.7213577 125.0925873  53.2895204  48.4623290 125.6933026  53.2099667
  47.9531500 124.3503511  52.7313247  42.8654915 130.2782240  51.5673434
  42.7508430 129.3767498  51.8680533  42.0099432 130.5245937  51.2158251
  48.5001045 136.0146910  52.0365844  49.0329381 135.2535198  51.8065152
  47.9715126 135.7220562  52.7789999  51.6670740 121.1206976  47.5659486
  51.3235009 122.0108618  47.4898597  52.0349702 120.9308634  46.7029071
  39.7356590 133.4440507  40.3848088  40.5731812 133.8537515  40.1681796
  39.9134858 132.5039949  40.3548282  51.6321022 131.1115587  36.0731921
  51.1167646 131.8820192  36.3120309  51.3598331 130.4380723  36.6964983
  49.2168133 125.9565288  41.1317160  48.3609730 125.5672138  40.9522798
  49.6295085 126.0357249  40.2716945  50.7467280 123.4911631  45.5308719
  50.2432076 123.4541766  44.7176525  51.0397887 124.4004374  45.5905376
  46.9910166 123.5750361  44.5374901  47.8563163 123.3793170  44.1780790
  47.0587675 123.3460713  45.4644258  56.6055297 133.8647942  38.0085095
  55.8284739 133.5259101  37.5640257  57.2846777 133.8700565  37.3340060
  51.4207326 128.9842679  37.8991702  51.1157461 129.2988829  38.7501845
  52.3737768 129.0624099  37.9419035  49.8653757 135.1432903  39.5484656
  49.3375119 134.4085662  39.2357894  49.3641260 135.9207579  39.3024625
  54.8446603 133.3381923  44.6651703  54.1870278 134.0281185  44.7531831
  55.6487003 133.7278355  45.0085689  44.5972485 125.8052569  41.9091268
  45.1716237 125.5827750  41.1764461  45.1843467 125.8741263  42.6619869
  53.6552062 131.6926296  42.7155644  54.1683944 132.3256288  43.2177354
  54.3053286 131.0927491  42.3499004  44.9242072 127.8357030  35.9287153
  44.0879384 128.1731717  36.2496428  44.7846842 127.7006010  34.9914290
  46.8995153 122.6793818  40.6366337  46.2459565 122.3642835  40.0122952
  46.8575627 122.0569558  41.3626160  48.0106358 132.9613113  32.5519629
  47.1033419 132.7302366  32.7510778  48.5077390 132.1650732  32.7393611
  50.1332893 129.1675751  44.9613985  49.2155454 129.3890698  44.8035673
  50.5493037 129.2422062  44.1025692  50.9167941 130.5667167  40.0916665
  51.6639760 131.0788564  39.7823787  51.1859530 130.2451220  40.9521059
  49.1894591 133.0625708  37.0743619  48.2805810 132.7784741  37.1716089
  49.2189675 133.4824786  36.2146926  54.4213858 136.6732297  40.8434787
  53.9676186 135.8323207  40.8999977  53.7907825 137.3093696  41.1809567
  53.3646778 127.6024283  42.0735454  52.6269535 127.0901670  42.4045697
  53.6173552 127.1624665  41.2618731  52.8646798 138.5108794  41.7784605
  53.1569772 139.0713851  41.0596971  53.3745418 138.8037355  42.5337764
  53.4658405 120.3800535  42.6677224  53.7717282 119.5197899  42.3803139
  54.1911010 120.9718156  42.4676218  39.7582761 130.7831222  41.0558822
  39.5607161 130.1900583  40.3309888  39.2029425 130.4783432  41.7734760
  47.7379485 130.6754328  43.1753415  47.7928095 129.7228165  43.0995891
  46.9270687 130.8313768  43.6594713  48.8870679 134.6034451  34.4131698
  48.4490109 133.8870310  33.9537335  49.6281120 134.8310566  33.8516789
  45.6771845 129.2931388  40.9343794  44.8639711 129.5925559  41.3408986
  46.1730839 128.8987077  41.6518276  51.2746057 129.7573213  49.7658688
  51.6295444 129.9844686  50.6253153  51.9218188 130.0891589  49.1435943
  57.0043794 132.8791649  40.4708017  56.8661692 133.0693244  39.5429206
  56.6480012 133.6411031  40.9276068  45.1685920 126.8649744  46.5505029
  45.8085299 126.7238503  45.8527992  44.3363450 126.5784257  46.1743631
  57.0313173 134.9468176  45.4819288  57.4649680 134.8543465  46.3302342
  57.7444754 134.9225676  44.8439304  45.9446224 136.1652174  42.6640021
  46.7386822 135.6702494  42.4622596  45.2337916 135.6370037  42.3007727
  42.2528987 130.3095256  38.7399774  41.3226575 130.2479711  38.9569736
  42.3486459 129.7871209  37.9436415  42.1714536 126.8350069  41.3278015
  42.4321353 127.7495402  41.2187176  42.9931708 126.3674511  41.4774628
  43.6439461 128.2487826  48.4976840  44.3162515 128.0405188  47.8489489
  42.8169248 128.0509912  48.0582072  57.8928723 134.9891876  48.0152173
  58.0864613 135.8937687  48.2611448  57.7929341 134.5299295  48.8490758
  49.5465034 124.8749767  50.5142501  48.8992949 125.5739716  50.4206977
  50.3166049 125.3085911  50.8818749  52.9543831 135.1398619  53.5893054
  52.8029338 134.9109171  52.6723138  52.9448511 136.0969220  53.6024399
  49.7229168 132.7130532  48.5739321  50.6521228 132.8641691  48.4008288
  49.3020198 132.8014552  47.7187967  50.0722715 136.1162799  43.7326696
  49.7372547 136.0763569  44.6284346  49.5726660 135.4507515  43.2597106
  44.0466959 131.5230429  49.2579277  43.9086757 130.7910668  49.8590816
  44.9571882 131.4339329  48.9763465  53.0081906 133.4618833  34.0063756
  52.3911077 132.7365661  33.9096808  52.5398395 134.2228193  33.6630830
  46.6749259 131.2350388  48.7462957  47.3848878 130.5943580  48.7049575
  46.6318568 131.4863283  49.6689138  54.6636038 138.1717741  51.6669536
  54.6048584 137.4876962  51.0000119  55.0655556 138.9136731  51.2150162
  45.3878193 128.2215606  50.5658596  44.8515550 127.7706344  51.2180193
  44.7994902 128.3561515  49.8229061  44.7980452 127.6804257  33.1285060
  43.9209919 127.5593058  32.7647307  45.2738205 126.8890336  32.8763949
  54.6653445 136.1357325  49.8983516  53.7780224 135.7983247  50.0209914
  55.2351996 135.4040357  50.1352281  41.1217315 127.3571614  47.6511591
  41.0375503 126.7497283  46.9162001  40.3000021 127.8480632  47.6521087
  51.2941028 125.8425177  43.0181786  51.7909728 125.0895140  42.6982856
  50.5228010 125.8789494  42.4524995  59.1470786 131.5465543  44.6600077
  59.1360662 132.4290258  44.2894010  58.2788165 131.1937094  44.4654614
  52.3770809 134.5996864  40.5920209  51.4427088 134.7198327  40.4224913
  52.5547478 133.6969331  40.3280219  47.8775997 127.9842560  42.7453470
  47.5073785 127.4313601  43.4334376  48.3735090 127.3800694  42.1928470
  55.7643361 130.4414184  41.1270243  56.2303813 131.2742175  41.0530546
  56.2150861 129.9759165  41.8315502  53.8319592 136.7858005  38.1256395
  54.1079436 136.6714600  39.0350269  52.9624090 136.3875490  38.0868568
  53.7360023 122.8094771  45.1661145  52.8223103 123.0398998  45.3343352
  54.1653125 122.8933215  46.0175177  53.5066482 130.9984663  47.6661039
  52.8537932 131.2460570  47.0113491  53.8846862 130.1848801  47.3323516
  49.5554055 131.7404474  54.1527076  48.8794692 131.6398603  54.8229451
  50.3781689 131.5843688  54.6163073  35.8950569 130.5482011  45.4944034
  35.9334668 130.0145601  46.2881152  35.3890861 130.0217216  44.8755011
  43.2741331 125.3946551  48.9906576  43.3382657 126.2561382  48.5783974
  43.2108451 124.7820553  48.2578935  42.7493603 127.4669684  52.6379611
  43.3765642 127.0846761  53.2517135  41.8921522 127.2483886  53.0035303
  53.1487712 137.8732659  54.2433346  53.6927616 138.4862617  53.7488301
  52.5674557 138.4312237  54.7600359  39.5259146 129.2746113  38.5697966
  39.8212587 128.3656791  38.5165019  38.6247182 129.2533852  38.2478968
  43.0553393 127.3502109  44.5525514  42.3339979 127.9638077  44.4132987
  43.8446649 127.8859874  44.4742160  53.4980133 138.7962397  47.0027924
  52.5510469 138.6767748  46.9306251  53.8462906 137.9084895  47.0854185
  45.8579707 124.6856536  50.8266166  46.3814109 124.9318832  51.5892475
  45.6392040 125.5176571  50.4069303  41.2546988 126.9560210  38.6937291
  40.9259694 126.0757589  38.5112397  41.6086358 126.9007879  39.5813680
  44.3688811 127.2433180  39.0612768  44.7084883 127.7719101  38.3391377
  44.8160931 127.5813586  39.8371335  54.1060688 139.4143672  44.2897149
  55.0307236 139.2086533  44.1521600  53.9375992 139.1660073  45.1986490
  47.0632252 125.6270231  48.5115836  46.7229072 124.8278044  48.9136516
  46.3571258 125.9271942  47.9392670  47.7148724 122.7119543  46.9643159
  48.5374793 122.2380021  46.8422050  47.9586787 123.4910027  47.4641846
  46.3556958 125.7407802  37.2606061  47.0765321 126.1189055  36.7569778
  45.7322262 126.4596679  37.3641039  50.4988081 126.4452951  38.1964393
  50.7151695 127.3277589  37.8953222  50.0182148 126.0539164  37.4670035
  45.2387302 129.4038664  44.7735138  45.0931883 129.7178967  45.6659420
  44.7612506 130.0223564  44.2206037  47.0983685 126.3941212  44.8216028
  47.0845254 125.4982305  44.4848326  47.8156113 126.4011876  45.4554314
  48.9509816 126.8278552  46.8669155  48.6927594 127.7495623  46.8653485
  48.4194856 126.4308987  47.5569619  39.7132964 131.9444008  47.7122799
  39.1686433 132.7203816  47.8443074  40.5912314 132.2914813  47.5541921
  46.5020581 125.2755592  40.0903598  46.6236492 124.3472238  40.2894485
  46.2122624 125.2894278  39.1781913  49.3711772 122.9610503  43.2270318
  49.3933468 123.0249836  42.2722297  49.7879831 122.1215011  43.4210824
  59.7495396 132.6965762  41.2649540  60.1926542 131.9473087  40.8668663
  58.8721906 132.6875899  40.8823272  54.8831177 139.2496104  36.7456139
  55.5782082 139.8702796  36.9643453  55.2254327 138.3991455  37.0208517
  40.4998986 131.0713905  50.6052956  39.7580722 131.2196540  51.1917586
  40.1791731 131.3322170  49.7419705  56.7822600 136.6995809  38.2743469
  57.3073924 137.0383082  37.5492789  56.6944953 135.7642824  38.0906604
  45.9861661 126.7887590  54.2993530  46.0349816 127.6649712  53.9171300
  46.5284175 126.2464983  53.7265174  56.4716506 137.3328713  53.5794667
  55.6812050 137.3152852  53.0399167  56.2349861 137.8717006  54.3343704
  56.5914381 134.1821179  50.8927396  56.6412386 134.0171187  51.8342919
  56.4828305 133.3148438  50.5025277  53.8818144 130.1652107  52.2086703
  54.7828007 130.0258572  51.9170700  53.9566118 130.3306562  53.1484880
  48.2160949 127.5418962  51.0539889  47.3464259 127.8352528  50.7822478
  48.4520430 128.1259407  51.7747153  58.0932578 136.6018121  51.1369417
  57.8017387 136.9648101  51.9732878  57.4804710 135.8885129  50.9582750
  59.2928261 134.1671000  43.6571988  60.1275152 134.6060805  43.8209548
  59.4287389 133.6909654  42.8380233  56.3419766 131.7250735  49.6049475
  56.8173888 131.9178382  48.7968327  55.4185332 131.7809921  49.3592859
  43.2303273 132.8874903  39.1880554  42.9849315 131.9837233  39.3860764
  43.3999188 132.8892053  38.2460032  50.9199983 123.7598579  48.5705309
  51.4381927 124.4959606  48.2451798  50.5655116 124.0662572  49.4052068
  42.4998921 128.6203260  36.6866715  41.8068166 128.6947615  36.0306751
  42.2550673 127.8563604  37.2088232  51.1712577 120.1798861  44.0906206
  51.4514331 119.5122050  44.7166632  51.9563184 120.3727957  43.5780870
  55.0421435 128.6016495  47.8377781  55.9938858 128.7014593  47.8590005
  54.8724886 127.8094764  48.3475865  53.0635815 125.6872079  48.0237182
  52.4685747 125.9677091  47.3283671  52.7785512 126.1765980  48.7953923
  54.8231322 138.9560876  33.7443762  54.7444954 138.6220739  34.6379520
  55.6440989 139.4482644  33.7435234  57.5209513 131.8222615  46.9520081
  57.4885833 130.8838616  47.1379765  58.1310137 131.9006652  46.2185906
  49.3592844 130.6918668  32.9947285  50.3051949 130.5624876  33.0635703
  48.9807089 129.9533330  33.4716713  57.6704002 128.6133659  46.9978364
  57.1543050 127.8292115  46.8108293  58.5543950 128.2852375  47.1624883
  55.3314729 122.3574674  42.9574177  55.1339550 122.0489762  43.8417509
  55.9414434 123.0836313  43.0872106  63.3386063 132.8838622  46.0926118
  64.0689452 132.6223910  46.6533821  62.7293009 132.1467344  46.1328185
  61.4201360 131.0246485  46.6900569  60.6934524 130.8902449  46.0817060
  61.0048647 131.3323313  47.4957287  49.2431537 134.7436414  54.4547942
  50.1634546 134.9215013  54.6487988  49.2081120 133.7992460  54.3027641
  47.5435761 128.6168644  32.9302170  46.6367217 128.3201757  33.0064884
  47.8211742 128.3198463  32.0636456  38.4613702 129.9375008  43.3801216
  38.1416486 129.0840316  43.0875590  37.9147130 130.1523586  44.1359184
  42.2393609 132.6537449  47.0970723  42.4579619 133.5854557  47.1158757
  42.6519383 132.2945423  47.8825527  49.1597827 123.1605534  39.0846411
  48.3498555 122.8152619  39.4601657  49.8482244 122.8513078  39.6734023
  51.0888375 122.2383581  40.7070708  51.6419414 122.6579034  41.3660731
  51.3258462 121.3119329  40.7493664  47.1121475 128.2270655  56.4873472
  47.0118201 129.1765012  56.4185563  46.8943017 127.8988894  55.6149542
  46.3134546 125.4755580  33.0714149  47.1753710 125.8010478  33.3309967
  46.4984890 124.6887076  32.5587215  38.3301962 133.5577919  45.3494338
  37.6365433 133.1431872  44.8364292  39.0774953 133.5998456  44.7527757
  54.4667182 124.3484106  40.2149372  53.8865851 125.0068910  39.8327425
  54.2003115 123.5261451  39.8036790  52.9170749 123.7489164  42.4170693
  53.4170527 123.8605698  41.6085011  53.5606357 123.4450217  43.0571501
  46.9752745 131.6567793  55.3038533  46.4919826 132.4568154  55.5102423
  47.0613684 131.6675738  54.3505977  40.2438704 133.4896173  43.2260353
  40.2209392 133.5883860  42.2742236  40.5539341 134.3361324  43.5477519
  43.4925464 134.1173444  49.9077765  44.3118353 134.6117523  49.9312602
  43.7662272 133.2005412  49.8795332  53.2492060 126.5084197  39.2705720
  52.3617915 126.7933847  39.0525915  53.6646049 126.3477960  38.4232997
  56.6006597 126.5330718  42.9860060  57.3766987 127.0227170  43.2584677
  55.8754731 126.9588772  43.4431929  59.0379155 127.2458337  44.0434000
  59.6323646 127.0054073  43.3327309  59.1105739 126.5265467  44.6707537
  52.3935274 136.2728871  33.3653740  53.0971124 136.4778874  33.9811396
  51.6697923 136.8405633  33.6302824  53.2233084 132.0238732  39.4856011
  53.1668286 132.4807284  38.6463643  53.7761427 131.2629417  39.3078853
  57.0337890 127.8128464  40.3106130  56.7774824 127.4125100  41.1414338
  56.4090758 128.5272258  40.1856269  61.3450228 130.5524538  42.8177422
  60.7849786 130.6217727  43.5908984  60.7393731 130.3765522  42.0976918
  54.3021971 136.7111400  35.4152200  55.1367575 136.2792599  35.2329675
  54.1406314 136.5393414  36.3429095  53.9567863 133.2143514  36.7808540
  53.9016667 133.0487785  35.8396984  53.3313919 133.9219547  36.9370730
  38.7460378 128.4511578  50.6069962  39.3919242 127.9410532  51.0957187
  38.5377530 129.1880260  51.1813387  51.2713771 135.5192426  56.1062103
  52.1404930 135.6933078  55.7448737  50.7920522 136.3386842  55.9837832
  47.2663989 122.7151623  36.3593858  47.2542659 123.6593463  36.5162129
  48.1587411 122.5321768  36.0653319  51.0816108 119.3094399  40.6139795
  50.3148504 118.7552886  40.7596477  51.4926813 119.3816268  41.4753947
  43.0857869 125.5979195  54.7044976  43.9489331 125.2416000  54.9148301
  42.5123280 125.2593090  55.3920380  65.4081362 138.6029313  47.9488172
  65.0764687 139.4724724  47.7249387  64.8126976 138.2865597  48.6282203
  67.1671672 141.5240837  46.8059396  66.5246052 141.8173370  46.1599191
  66.6626601 141.4093758  47.6112593  62.1647810 141.4462046  45.7435117
  61.3032290 141.7443300  46.0351854  62.1910245 141.6632445  44.8116149
  55.6439370 139.0059912  55.6974948  55.2506316 138.4526110  56.3722592
  56.4605511 139.3170490  56.0881465  58.5607331 140.4217791  53.2895204
  59.3017045 141.0224944  53.2099667  58.7925254 139.6795429  52.7313247
  62.5064494 136.4498894  47.5659486  62.1628764 137.3400536  47.4898597
  62.8743457 136.2600551  46.7029071  60.0561888 141.2857206  41.1317160
  59.2003484 140.8964056  40.9522798  60.4688840 141.3649167  40.2716945
  61.5861035 138.8203549  45.5308719  61.0825830 138.7833684  44.7176525
  61.8791641 139.7296292  45.5905376  57.8303920 138.9042279  44.5374901
  58.6956917 138.7085087  44.1780790  57.8981429 138.6752630  45.4644258
  57.7388907 138.0085736  40.6366337  57.0853320 137.6934753  40.0122952
  57.6969381 137.3861476  41.3626160  64.2040532 142.9316201  42.0735454
  63.4663289 142.4193587  42.4045697  64.4567306 142.4916583  41.2618731
  64.3052160 135.7092453  42.6677224  64.6111037 134.8489816  42.3803139
  65.0304765 136.3010073  42.4676218  60.3858788 140.2041684  50.5142501
  59.7386703 140.9031634  50.4206977  61.1559803 140.6377828  50.8818749
  62.1334783 141.1717095  43.0181786  62.6303483 140.4187057  42.6982856
  61.3621764 141.2081412  42.4524995  64.5753778 138.1386688  45.1661145
  63.6616858 138.3690915  45.3343352  65.0046879 138.2225132  46.0175177
  58.5542478 138.0411461  46.9643159  59.3768547 137.5671939  46.8422050
  58.7980542 138.8201945  47.4641846  60.2105526 138.2902420  43.2270318
  60.2327223 138.3541753  42.2722297  60.6273585 137.4506929  43.4210824
  61.7593737 139.0890497  48.5705309  62.2775681 139.8251523  48.2451798
  61.4048870 139.3954490  49.4052068  62.0106332 135.5090779  44.0906206
  62.2908085 134.8413968  44.7166632  62.7956939 135.7019875  43.5780870
  63.9029569 141.0163996  48.0237182  63.3079502 141.2969009  47.3283671
  63.6179266 141.5057897  48.7953923  68.5097756 143.9425576  46.9978364
  67.9936805 143.1584033  46.8108293  69.3937705 143.6144293  47.1624883
  66.1708483 137.6866592  42.9574177  65.9733304 137.3781680  43.8417509
  66.7808189 138.4128231  43.0872106  59.9991582 138.4897452  39.0846411
  59.1892310 138.1444537  39.4601657  60.6875998 138.1804996  39.6734023
  61.9282130 137.5675499  40.7070708  62.4813168 137.9870952  41.3660731
  62.1652216 136.6411247  40.7493664  65.3060937 139.6776024  40.2149372
  64.7259606 140.3360828  39.8327425  65.0396870 138.8553368  39.8036790
  63.7564503 139.0781082  42.4170693  64.2564282 139.1897616  41.6085011
  64.4000111 138.7742134  43.0571501  64.0885815 141.8376114  39.2705720
  63.2011670 142.1225765  39.0525915  64.5039804 141.6769878  38.4232997
  67.4400351 141.8622635  42.9860060  68.2160741 142.3519088  43.2584677
  66.7148485 142.2880689  43.4431929  69.8772910 142.5750254  44.0434000
  70.4717400 142.3345990  43.3327309  69.9499493 141.8557385  44.6707537
  67.8731645 143.1420382  40.3106130  67.6168579 142.7417018  41.1414338
  67.2484513 143.8564176  40.1856269  58.1057743 138.0443540  36.3593858
  58.0936413 138.9885380  36.5162129  58.9981165 137.8613686  36.0653319
  61.9209863 134.6386317  40.6139795  61.1542259 134.0844804  40.7596477
  62.3320568 134.7108186  41.4753947   0.6404884  36.7426798  33.7366208
   1.4622328  36.3406985  33.4548890   0.6367287  36.6395032  34.6882324
   3.6959952  35.3494410  34.7397480   3.8895842  36.2540221  34.9856755
   3.5960570  34.8901829  35.5736065   2.2747735  37.6931247  40.3039974
   1.4843279  37.6755386  39.7644473   2.0381090  38.2319541  41.0589011
   2.3945610  34.5423713  37.6172703   2.4443615  34.3773721  38.5588225
   2.2859534  33.6750972  37.2270583   3.8963807  36.9620655  37.8614724
   3.6048615  37.3250635  38.6978185   3.2835938  36.2487663  37.6828056
   2.1450995  32.0853270  36.3294782   2.6205117  32.2780916  35.5213634
   1.2216561  32.1412455  36.0838166   9.1417292  33.2441156  32.8171424
   9.8720680  32.9826444  33.3779127   8.5324237  32.5069878  32.8573492
   8.7337475  47.5883586  32.2352684   9.3715885  47.4690333  31.5316024
   8.6158318  48.5364430  32.2940636   5.5427181  47.5411014  32.1714209
   5.2045693  47.4252079  31.2834743   6.4116950  47.1402179  32.1515215
   1.4013997  49.3946490  28.1611100   0.8378862  49.3036427  27.3927387
   1.2866392  48.5746395  28.6413592   6.0246964  48.6945866  38.1300414
   6.0135605  48.2998664  37.2580918   6.1867604  47.9611938  38.7234186
   6.9813556  53.0617458  23.4725564   6.3301536  53.6471538  23.0859578
   7.7757919  53.5923653  23.5320602   2.7454226  51.4782977  37.0779598
   2.4544092  52.3828608  36.9626264   3.3811210  51.5199505  37.7923668
   3.6710432  48.8559826  33.6680958   4.2674005  48.6315848  32.9537921
   3.7285404  48.1144571  34.2706406   8.2878744  45.3135040  29.3105892
   9.0741833  44.8954463  28.9596309   8.5517448  46.2181132  29.4787540
   8.4588821  50.7507890  24.0094549   7.8234654  50.8242516  24.7215453
   8.1286227  51.3401489  23.3313628  13.6887171  45.2510273  30.2138870
  14.4212343  44.6809490  30.4476700  12.9326527  44.8631873  30.6545376
   5.3063291  47.6737514  27.4102213   4.9421498  47.1468135  28.1215134
   6.1630406  47.2835983  27.2368698  11.2112591  38.9631847  34.6733479
  10.8795916  39.8327258  34.4494694  10.6158205  38.6468131  35.3527509
   7.7044111  51.1644393  34.0729392   7.4044834  52.0669432  33.9645199
   7.3595170  50.8976576  34.9250545  11.1041254  43.6826933  31.7526829
  10.1958132  43.6142341  31.4585590  11.0528850  44.1598878  32.5808655
   2.6864890  57.9288713  27.0400359   2.6088920  58.8796538  27.1188840
   2.0826534  57.5834586  27.6975286   5.1782120  45.1016579  39.6961726
   4.4015454  45.6610499  39.6864591   5.8172683  45.5873362  40.2176596
  12.9702901  41.8843371  33.5304703  12.3277281  42.1775905  32.8844498
  12.4657829  41.7696292  34.3357900  10.6243065  45.6306545  24.2190562
  11.5360921  45.8633931  24.0438260  10.1152712  46.2143589  23.6565641
   3.4328493  47.9102032  39.2579693   4.1743177  48.4487076  38.9814517
   2.7265478  48.5368321  39.4151245   8.9083832  50.0531172  37.8551855
   9.3167188  49.6113583  37.1106487   8.1861094  49.4783800  38.1086048
   5.2614902  44.9903779  35.2285412   6.1076097  45.4143193  35.3720061
   5.2013540  44.3337404  35.9223975   9.2312647  50.6132363  31.6104144
   8.6021509  50.7778077  30.9080212   8.8438309  51.0273973  32.3815108
  13.1101879  51.5486801  28.9648507  12.4252917  51.9285702  28.4145541
  13.1945728  52.1582128  29.6980455   8.4114348  42.6508148  36.8866585
   8.1675279  43.4050208  36.3500861   8.6874278  43.0293495  37.7213832
  10.3652810  49.1946760  35.5643851  10.5769706  49.8378520  34.8878232
  10.3182559  48.3609077  35.0965781   7.9679039  41.8064581  32.4680423
   7.1063518  42.1045834  32.7597161   7.9941474  42.0234980  31.5361456
   4.7840609  50.3506771  28.8754229   5.2478954  50.6294474  28.0858851
   4.5197407  49.4490216  28.6927320   1.6764690  49.8978253  31.8133992
   2.2466047  50.3265521  31.1751477   2.2672802  49.6160837  32.5118178
   2.1689856  45.0641680  40.0595003   1.5388517  45.7457961  40.2930400
   2.0625944  44.9524762  39.1148142  11.4798638  52.0718715  33.7366208
  12.3016082  51.6698903  33.4548890  11.4761041  51.9686950  34.6882324
   5.2455242  51.6202759  35.8926919   5.3099674  52.0823166  36.7285091
   4.5366166  50.9900124  36.0209229  19.5704631  48.4157464  30.0851180
  18.8168340  47.8464862  29.9295184  19.7052173  48.3820128  31.0321815
   4.9603259  53.2870866  25.7605899   4.8248934  54.1322402  26.1890747
   5.5013072  53.4890144  24.9971833   1.4470599  39.3662446  42.4220254
   1.0537545  38.8128645  43.0967899   2.2636739  39.6773024  42.8126772
   4.3638560  40.7820325  40.0140511   5.1048273  41.3827478  39.9344973
   4.5956483  40.0397963  39.4558554   6.5871736  53.9094433  39.8906241
   6.1435590  53.1230811  39.5727146   7.2488949  54.0973583  39.2250132
   1.3458857  55.4390234  34.4166920   1.8966282  55.3107298  33.6443914
   0.5070333  55.7385123  34.0661813   8.6852974  54.1897233  37.9187643
   8.6671449  55.0106114  37.4267912   9.6072894  54.0651308  38.1437784
   5.1426028  51.7041362  38.7611151   5.6754365  50.9429650  38.5310459
   4.6140109  51.4115014  39.5035305   8.3095723  36.8101428  34.2904793
   7.9659992  37.7003070  34.2143903   8.6774686  36.6203086  33.4274378
   7.3892263  39.1806083  32.2554026   6.8857059  39.1436218  31.4421831
   7.6822870  40.0898826  32.3150683   3.6335149  39.2644813  31.2620208
   4.4988146  39.0687622  30.9026097   3.7012658  39.0355165  32.1889564
  13.2480280  49.5542394  24.7330401  12.4709723  49.2153553  24.2885563
  13.9271761  49.5595017  24.0585366   6.5078741  50.8327355  26.2729963
   5.9800102  50.0980114  25.9603200   6.0066243  51.6102031  26.0269931
  11.4871587  49.0276375  31.3897009  10.8295261  49.7175636  31.4777138
  12.2911986  49.4172807  31.7330996  10.2977046  47.3820748  29.4400951
  10.8108927  48.0150740  29.9422661  10.9478269  46.7821943  29.0744311
   7.5599420  57.3605072  22.1961622   6.8861119  57.6636769  22.8046580
   7.9465242  58.1634152  21.8467079   6.7757876  44.8570203  31.6859292
   5.8580438  45.0785150  31.5280980   7.1918020  44.9316514  30.8270999
   7.5592924  46.2561619  26.8161972   8.3064743  46.7683016  26.5069094
   7.8284514  45.9345672  27.6766365  11.0638842  52.3626749  27.5680094
  10.6101169  51.5217659  27.6245284  10.4332808  52.9988148  27.9054874
  10.0071761  43.2918735  28.7980761   9.2694518  42.7796121  29.1291004
  10.2598535  42.8519117  27.9864038   9.5071781  54.2003246  28.5029912
   9.7994755  54.7608303  27.7842277  10.0170402  54.4931807  29.2583071
   4.3804468  46.3648780  29.8998721   4.4353078  45.4122617  29.8241198
   3.5695670  46.5208219  30.3840020   2.3196828  44.9825840  27.6589100
   1.5064694  45.2820011  28.0654292   2.8155822  44.5881529  28.3763583
   4.4705406  54.9783597  29.5923365   4.4281585  55.2044443  28.6631897
   5.3868105  54.7446972  29.7409166   7.9171040  45.4467665  36.4903994
   8.2720428  45.6739138  37.3498460   8.5643171  45.7786041  35.8681249
  13.6468777  48.5686100  27.1953323  13.5086675  48.7587696  26.2674512
  13.2904996  49.3305483  27.6521374   1.8110903  42.5544196  33.2750335
   2.4510282  42.4132955  32.5773299   0.9788434  42.2678709  32.8988937
  13.6738157  50.6362627  32.2064595  14.1074663  50.5437917  33.0547649
  14.3869737  50.6120128  31.5684611   2.5871207  51.8546626  29.3885328
   3.3811805  51.3596946  29.1867903   1.8762899  51.3264489  29.0253033
   7.4066051  54.2364722  33.7397695   7.4603074  54.8055658  34.5075411
   6.5380833  54.4066607  33.3751732  14.5353706  50.6786328  34.7397480
  14.7289596  51.5832139  34.9856755  14.4354324  50.2193747  35.5736065
   6.1890017  40.5644219  37.2387807   5.5417932  41.2634168  37.1452284
   6.9591032  40.9980363  37.6064056   9.5968815  50.8293071  40.3138361
   9.4454321  50.6003623  39.3968444   9.5873494  51.7863672  40.3269706
   6.3654151  48.4024984  35.2984627   7.2946211  48.5536143  35.1253594
   5.9445181  48.4909004  34.4433274   5.1642483  52.4275648  33.0683165
   5.0253569  52.0594432  33.9409103   4.3757079  52.9423287  32.8967123
   5.7590635  57.5284744  24.4108701   5.9342391  57.0572788  25.2254324
   5.0723423  58.1550511  24.6389962   6.7147698  51.8057251  30.4572003
   6.3797531  51.7658021  31.3529652   6.2151644  51.1401967  29.9842413
   0.6891942  47.2124881  35.9824584   0.5511740  46.4805120  36.5836123
   1.5996866  47.1233781  35.7008771   3.3174243  46.9244840  35.4708263
   4.0273861  46.2838032  35.4294882   3.2743551  47.1757735  36.3934444
  11.3061021  53.8612193  38.3914843  11.2473568  53.1771414  37.7245426
  11.7080540  54.6031183  37.9395469   2.0303177  43.9110058  37.2903903
   1.4940534  43.4600796  37.9425499   1.4419885  44.0455967  36.5474367
  11.3078429  51.8251777  36.6228822  10.4205207  51.4877699  36.7455221
  11.8776980  51.0934809  36.8597588   4.8379582  56.4853230  33.5890065
   4.7649754  57.2908201  34.1009370   4.3956975  56.6845195  32.7638087
   4.6269362  55.7225000  27.0992887   3.8436884  56.2646680  27.1931112
   5.3262107  56.2398979  27.4987128   7.9366012  41.5319629  29.7427092
   8.4334711  40.7789591  29.4228163   7.1652993  41.5683946  29.1770302
  15.7895769  47.2359995  31.3845384  15.7785645  48.1184710  31.0139317
  14.9213149  46.8831546  31.1899921   7.2978266  56.3840064  35.7448224
   8.0106238  57.0187529  35.6724126   6.8068294  56.4803930  34.9288226
   9.0195792  50.2891316  27.3165516   8.0852071  50.4092779  27.1470220
   9.1972461  49.3863783  27.0525526   4.5200981  43.6737012  29.4698777
   4.1498768  43.1208053  30.1579683   5.0160073  43.0695146  28.9173777
  12.4068344  46.1308636  27.8515550  12.8728796  46.9636627  27.7775853
  12.8575844  45.6653617  28.5560808   2.3490179  54.1334507  36.5653795
   3.0499639  54.7670990  36.7183189   1.8785294  54.4749239  35.8049434
  10.4744575  52.4752457  24.8501702  10.7504419  52.3609052  25.7595576
   9.6049074  52.0769942  24.8113875  10.3785007  38.4989223  31.8906451
   9.4648086  38.7293449  32.0588658  10.8078108  38.5827667  32.7420484
  10.1491465  46.6879115  34.3906345   9.4962915  46.9355022  33.7358798
  10.5271845  45.8743253  34.0568823   7.1098639  56.7238808  28.4934516
   7.2921033  55.9060464  28.9562268   7.9331625  56.9406500  28.0559406
   7.4440804  55.6506993  25.7549564   7.9728571  55.1399447  25.1419726
   7.7069024  55.3349523  26.6195097   6.1979038  47.4298926  40.8772382
   5.5219675  47.3293055  41.5474758   7.0206672  47.2738139  41.3408380
   4.9401821  58.7365853  35.1129998   5.4920129  58.8997475  35.8779084
   5.2808014  59.3270291  34.4410023   9.7912695  53.5627111  40.9678653
  10.3352599  54.1757069  40.4733608   9.2099540  54.1206689  41.4845666
   8.0770208  56.6847829  32.0993681   7.9521348  55.8837568  31.5904626
   8.7349299  57.1794022  31.6107650  10.1405117  54.4856849  33.7273231
   9.1935452  54.3662200  33.6551557  10.4887890  53.5979347  33.8099492
   2.5004690  40.3750988  37.5511473   3.0239092  40.6213284  38.3137782
   2.2817023  41.2071022  37.1314610   7.1451550  54.2809565  29.9277583
   6.9976512  53.3526272  30.1085153   7.9705043  54.3029656  29.4434658
  10.7485672  55.1038124  31.0142456  11.6732219  54.8980985  30.8766907
  10.5800975  54.8554525  31.9231797   3.7057235  41.3164683  35.2361143
   3.3654055  40.5172496  35.6381823   2.9996241  41.6166394  34.6637976
   4.3573707  38.4013995  33.6888466   5.1799776  37.9274473  33.5667356
   4.6011770  39.1804479  34.1887152   1.8812286  45.0933116  31.4980445
   1.7356866  45.4073419  32.3904726   1.4037489  45.7118016  30.9451343
   3.7408669  42.0835664  31.5461334   3.7270237  41.1876757  31.2093632
   4.4581097  42.0906328  32.1799620   5.5934799  42.5173004  33.5914462
   5.3352577  43.4390075  33.5898792   5.0619840  42.1203439  34.2814926
  10.5380988  55.6223791  26.3704547  10.7117866  55.0570214  25.6178400
  11.0309879  56.4224686  26.1884037  16.3920379  48.3860214  27.9894847
  16.8351525  47.6367539  27.5913970  15.5146889  48.3770350  27.6068579
  11.5256160  54.9390556  23.4701445  12.2207065  55.5597248  23.6888760
  11.8679311  54.0885907  23.7453823  13.4247584  52.3890261  24.9988776
  13.9498908  52.7277534  24.2738096  13.3369936  51.4537276  24.8151911
   5.0867632  56.3024335  37.1278653   5.3954759  56.0573481  38.0001352
   5.8843114  56.5070973  36.6397523   5.1088244  58.4562244  29.3584029
   4.6693235  57.9638623  30.0516886   5.8596361  57.9135212  29.1176105
   2.5562117  54.0000253  31.4306331   1.9342126  53.3370958  31.1308559
   3.2266983  54.0261385  30.7479979   2.6286644  42.4782041  41.0238837
   2.6774799  43.3544164  40.6416607   3.1709158  41.9359434  40.4510480
  13.1141490  53.0223165  40.3039974  12.3237033  53.0047304  39.7644473
  12.8774844  53.5611458  41.0589011  13.2339365  49.8715631  37.6172703
  13.2837370  49.7065639  38.5588225  13.1253288  49.0042890  37.2270583
   2.1175623  52.5504177  24.9064792   2.2663744  53.2339641  24.2531464
   2.9242067  52.5309267  25.4214247  10.5243127  45.8546559  38.9332009
  11.4252990  45.7153024  38.6416007  10.5991102  46.0201014  39.8730187
   4.8585932  43.2313414  37.7785196   3.9889242  43.5246980  37.5067784
   5.0945413  43.8153859  38.4992459  14.7357562  52.2912573  37.8614724
  14.4442370  52.6542553  38.6978185  14.1229693  51.5779581  37.6828056
  15.9353244  49.8565452  30.3817294  16.7700135  50.2955256  30.5454855
  16.0712373  49.3804106  29.5625540  12.9844750  47.4145187  36.3294782
  13.4598871  47.6072834  35.5213634  12.0610315  47.4704373  36.0838166
   7.5624966  39.4493031  35.2950616   8.0806910  40.1854058  34.9697105
   7.2080099  39.7557024  36.1297375   7.8137560  35.8693313  30.8151513
   8.0939314  35.2016502  31.4411939   8.5988167  36.0622409  30.3026176
   5.6171029  55.0452307  22.3776539   5.0444996  55.6642494  21.9247011
   6.1903823  55.5951669  22.9116461  11.6846419  44.2910947  34.5623088
  12.6363842  44.3909045  34.5835312  11.5149869  43.4989216  35.0721172
   9.7060798  41.3766531  34.7482489   9.1110730  41.6571543  34.0528977
   9.4210495  41.8660431  35.5199230   8.8368289  55.3289457  23.5085121
   9.7698962  55.2635019  23.7117997   8.7491502  56.1645724  23.0499654
  11.4656305  54.6455328  20.4689069  11.3869937  54.3115191  21.3624827
  12.2865972  55.1377096  20.4680541  14.1634497  47.5117067  33.6765387
  14.1310817  46.5733068  33.8625071  14.7735120  47.5901104  32.9431212
  14.3128985  44.3028110  33.7223671  13.7968034  43.5186567  33.5353599
  15.1968934  43.9746827  33.8870190  11.9739712  38.0469126  29.6819483
  11.7764533  37.7384214  30.5662815  12.5839418  38.7730765  29.8117413
  19.9811046  48.5733074  32.8171424  20.7114435  48.3118362  33.3779127
  19.3717992  47.8361796  32.8573492  18.0626344  46.7140936  33.4145875
  17.3359507  46.5796901  32.8062367  17.6473630  47.0217765  34.2202593
   5.8856520  50.4330866  41.1793248   6.8059529  50.6109465  41.3733295
   5.8506103  49.4886911  41.0272948   3.7546458  43.9165107  43.2118778
   3.6543185  44.8659463  43.1430870   3.5368000  43.5883345  42.3394849
   9.5595732  39.4383616  29.1415999  10.0595510  39.5500150  28.3330318
  10.2031340  39.1344669  29.7816808   3.6177728  47.3462245  42.0283840
   3.1344810  48.1462605  42.2347729   3.7038667  47.3570190  41.0751284
  13.2431580  42.2225169  29.7105366  14.0191970  42.7121622  29.9829983
  12.5179714  42.6483224  30.1677236  15.6804138  42.9352789  30.7679307
  16.2748629  42.6948525  30.0572615  15.7530722  42.2159919  31.3952843
   9.8658067  47.7133184  26.2101317   9.8093269  48.1701736  25.3708950
  10.4186410  46.9523869  26.0324160  13.6762873  43.5022916  27.0351437
  13.4199808  43.1019552  27.8659644  13.0515741  44.2166710  26.9101576
  17.9875211  46.2418989  29.5422728  17.4274769  46.3112179  30.3154290
  17.3818715  46.0659974  28.8222224  10.9446955  52.4005852  22.1397507
  11.7792559  51.9687051  21.9574982  10.7831297  52.2287866  23.0674402
  10.5992847  48.9037966  23.5053846  10.5441651  48.7382237  22.5642291
   9.9738902  49.6113999  23.6616036   7.9138754  51.2086877  42.8307409
   8.7829914  51.3827530  42.4694044   7.4345505  52.0281294  42.7083139
   2.0824934  58.3283978  34.5096843   2.9852181  58.3607589  34.8263338
   1.8562304  57.3984429  34.5243179   3.8378536  57.0814965  31.1706921
   2.8874167  57.0816827  31.0571294   4.1411022  56.3347700  30.6542956
  19.5731230  62.9175503  32.2352684  20.2109640  62.7982251  31.5316024
  19.4552073  63.8656347  32.2940636  16.3820936  62.8702932  32.1714209
  16.0439447  62.7543996  31.2834743  17.2510704  62.4694097  32.1515215
  12.2407752  64.7238408  28.1611100  11.6772617  64.6328345  27.3927387
  12.1260147  63.9038312  28.6413592  16.8640719  64.0237783  38.1300414
  16.8529360  63.6290581  37.2580918  17.0261358  63.2903856  38.7234186
   9.7872184  66.2189600  30.9995320  10.5793476  65.8780424  30.5841619
  10.0268834  66.3284575  31.9197473  17.8207310  68.3909376  23.4725564
  17.1695290  68.9763456  23.0859578  18.6151673  68.9215571  23.5320602
  11.7462938  65.4798513  23.8712699  12.5193814  64.9327500  23.7325575
  12.0988336  66.3442762  24.0827160  13.5847980  66.8074895  37.0779598
  13.2937846  67.7120526  36.9626264  14.2204964  66.8491423  37.7923668
  14.5104187  64.1851744  33.6680958  15.1067759  63.9607766  32.9537921
  14.5679158  63.4436489  34.2706406  14.0829215  61.6391179  21.5031149
  14.3354736  61.1172700  20.7414612  13.1453774  61.4757324  21.6057832
  19.1272498  60.6426957  29.3105892  19.9135587  60.2246380  28.9596309
  19.3911202  61.5473049  29.4787540  19.2982576  66.0799808  24.0094549
  18.6628408  66.1534434  24.7215453  18.9679982  66.6693406  23.3313628
  24.5280925  60.5802190  30.2138870  25.2606097  60.0101407  30.4476700
  23.7720281  60.1923791  30.6545376  13.8025504  63.5419285  23.7055524
  13.6861762  62.8664188  24.3736608  13.9127764  63.0551659  22.8887677
  16.1457045  63.0029432  27.4102213  15.7815252  62.4760053  28.1215134
  17.0024161  62.6127901  27.2368698  22.0506346  54.2923765  34.6733479
  21.7189670  55.1619176  34.4494694  21.4551959  53.9760049  35.3527509
  15.7862532  58.0319332  22.4063561  15.9536934  58.8999568  22.7734032
  15.5959701  58.1946613  21.4824851  18.5437865  66.4936311  34.0729392
  18.2438588  67.3961349  33.9645199  18.1988925  66.2268494  34.9250545
  11.9950347  62.9450107  30.1066096  11.0700843  62.8126321  30.3143788
  12.2434760  63.7244327  30.6036039  21.9435009  59.0118851  31.7526829
  21.0351886  58.9434259  31.4585590  21.8922605  59.4890796  32.5808655
  15.7651753  60.4876989  23.3910228  15.6451378  60.9334040  24.2295709
  15.0704341  60.8362307  22.8323766   9.3559158  62.5883381  30.9409885
   9.4851539  62.8417860  31.8549297   8.6756609  63.1811089  30.6214540
  13.5258645  73.2580631  27.0400359  13.4482675  74.2088456  27.1188840
  12.9220289  72.9126503  27.6975286  16.0175875  60.4308496  39.6961726
  15.2409209  60.9902416  39.6864591  16.6566438  60.9165279  40.2176596
  23.8096655  57.2135289  33.5304703  23.1671036  57.5067822  32.8844498
  23.3051584  57.0988209  34.3357900  21.4636819  60.9598462  24.2190562
  22.3754675  61.1925849  24.0438260  20.9546466  61.5435507  23.6565641
  14.2722247  63.2393950  39.2579693  15.0136931  63.7778994  38.9814517
  13.5659233  63.8660238  39.4151245  19.7477587  65.3823090  37.8551855
  20.1560943  64.9405501  37.1106487  19.0254848  64.8075718  38.1086048
  16.1008657  60.3195697  35.2285412  16.9469852  60.7435110  35.3720061
  16.0407294  59.6629321  35.9223975  20.0706401  65.9424281  31.6104144
  19.4415264  66.1069995  30.9080212  19.6832063  66.3565890  32.3815108
  23.9495633  66.8778719  28.9648507  23.2646671  67.2577620  28.4145541
  24.0339483  67.4874045  29.6980455  19.2508102  57.9800065  36.8866585
  19.0069034  58.7342126  36.3500861  19.5268033  58.3585413  37.7213832
  21.2046565  64.5238678  35.5643851  21.4163460  65.1670438  34.8878232
  21.1576313  63.6900994  35.0965781  18.8072794  57.1356498  32.4680423
  17.9457273  57.4337752  32.7597161  18.8335228  57.3526897  31.5361456
  15.6234363  65.6798689  28.8754229  16.0872709  65.9586392  28.0858851
  15.3591161  64.7782133  28.6927320  12.5158444  65.2270170  31.8133992
  13.0859801  65.6557439  31.1751477  13.1066556  64.9452755  32.5118178
  14.5603249  61.8021841  25.6843794  15.2627293  62.2542885  26.1517720
  14.2283878  61.1605660  26.3123687  13.0083611  60.3933598  40.0595003
  12.3782271  61.0749879  40.2930400  12.9019699  60.2816679  39.1148142
   8.3028583  60.0605394  30.9860928   7.5127637  60.3162922  30.5101038
   8.7939831  60.8753732  31.0912968  22.3192393  67.4010633  33.7366208
  23.1409837  66.9990820  33.4548890  22.3154796  67.2978867  34.6882324
  10.2543329  60.4249973  27.9444404   9.4574492  60.5368667  28.4627900
  10.0268921  60.7636625  27.0785295  16.0848996  66.9494676  35.8926919
  16.1493429  67.4115084  36.7285091  15.3759920  66.3192041  36.0209229
   6.5866286  60.3135884  33.4175918   6.8374325  61.1982894  33.6833494
   7.1225835  60.1340486  32.6451010  30.4098386  63.7449382  30.0851180
  29.6562094  63.1756780  29.9295184  30.5445927  63.7112046  31.0321815
  15.7997014  68.6162784  25.7605899  15.6642689  69.4614320  26.1890747
  16.3406826  68.8182061  24.9971833  12.2864354  54.6954364  42.4220254
  11.8931299  54.1420562  43.0967899  13.1030494  55.0064942  42.8126772
   9.2526411  66.1338222  26.3333824   9.7650932  66.9281472  26.4839389
   9.9049124  65.4364512  26.2667426  11.0621296  69.2503978  28.4156577
  11.2387924  70.1721943  28.2277561  11.8578130  68.9362397  28.8450957
  15.2032315  56.1112243  40.0140511  15.9442028  56.7119396  39.9344973
  15.4350237  55.3689881  39.4558554  10.3473653  61.2968610  38.2918741
  10.2327168  60.3953867  38.5925840   9.4918170  61.5432307  37.9403557
  17.4265490  69.2386350  39.8906241  16.9829344  68.4522729  39.5727146
  18.0882704  69.4265501  39.2250132  12.1852611  70.7682152  34.4166920
  12.7360037  70.6399215  33.6443914  11.3464087  71.0677041  34.0661813
  19.5246728  69.5189150  37.9187643  19.5065204  70.3398031  37.4267912
  20.4466648  69.3943226  38.1437784  15.9819782  67.0333280  38.7611151
  16.5148119  66.2721568  38.5310459  15.4533864  66.7406932  39.5035305
  19.1489477  52.1393346  34.2904793  18.8053747  53.0294987  34.2143903
  19.5168440  51.9495003  33.4274378   7.2175328  64.4626876  27.1093395
   8.0550550  64.8723885  26.8927103   7.3953596  63.5226318  27.0793589
  19.1139760  62.1301957  22.7977228  18.5986384  62.9006561  23.0365615
  18.8417069  61.4567093  23.4210289  16.6986871  56.9751658  27.8562466
  15.8428468  56.5858508  27.6768105  17.1113823  57.0543618  26.9962252
  18.2286018  54.5098001  32.2554026  17.7250813  54.4728136  31.4421831
  18.5216625  55.4190744  32.3150683  14.4728904  54.5936731  31.2620208
  15.3381900  54.3979539  30.9026097  14.5406413  54.3647082  32.1889564
  24.0874034  64.8834311  24.7330401  23.3103477  64.5445471  24.2885563
  24.7665515  64.8886935  24.0585366  18.9026063  60.0029049  24.6237009
  18.5976199  60.3175198  25.4747152  19.8556505  60.0810469  24.6664342
  17.3472495  66.1619272  26.2729963  16.8193857  65.4272032  25.9603200
  16.8459998  66.9393949  26.0269931  22.3265341  64.3568293  31.3897009
  21.6689016  65.0467554  31.4777138  23.1305740  64.7464725  31.7330996
  12.0791223  56.8238939  28.6336574  12.6534975  56.6014120  27.9009767
  12.6662205  56.8927633  29.3865176  21.1370800  62.7112665  29.4400951
  21.6502682  63.3442657  29.9422661  21.7872024  62.1113861  29.0744311
  12.4060810  58.8543400  22.6532460  11.5698122  59.1918086  22.9741734
  12.2665580  58.7192379  21.7159597  14.3813891  53.6980187  27.3611644
  13.7278303  53.3829205  26.7368259  14.3394365  53.0755928  28.0871467
  15.4925095  63.9799483  19.2764936  14.5852157  63.7488736  19.4756085
  15.9896127  63.1837102  19.4638918  18.3993174  72.6896990  22.1961622
  17.7254873  72.9928686  22.8046580  18.7858996  73.4926070  21.8467079
  17.6151631  60.1862121  31.6859292  16.6974192  60.4077068  31.5280980
  18.0311775  60.2608431  30.8270999  18.3986679  61.5853537  26.8161972
  19.1458498  62.0974934  26.5069094  18.6678268  61.2637589  27.6766365
  16.6713329  64.0812077  23.7988926  15.7624548  63.7971110  23.8961396
  16.7008413  64.5011156  22.9392233  21.9032596  67.6918667  27.5680094
  21.4494923  66.8509577  27.6245284  21.2726563  68.3280065  27.9054874
  20.8465516  58.6210653  28.7980761  20.1088273  58.1088039  29.1291004
  21.0992289  58.1811035  27.9864038  20.3465535  69.5295164  28.5029912
  20.6388510  70.0900221  27.7842277  20.8564156  69.8223725  29.2583071
  20.9477143  51.3986905  29.3922530  21.2536020  50.5384268  29.1048445
  21.6729748  51.9904525  29.1921524   7.2401499  61.8017592  27.7804128
   7.0425899  61.2086952  27.0555195   6.6848163  61.4969802  28.4980067
  15.2198223  61.6940698  29.8998721  15.2746833  60.7414534  29.8241198
  14.4089425  61.8500137  30.3840020  16.3689417  65.6220821  21.1377005
  15.9308847  64.9056680  20.6782642  17.1099857  65.8496936  20.5762096
  13.1590583  60.3117758  27.6589100  12.3458448  60.6111928  28.0654292
  13.6549577  59.9173447  28.3763583  15.3099161  70.3075515  29.5923365
  15.2675339  70.5336361  28.6631897  16.2261860  70.0738889  29.7409166
  18.7564794  60.7759582  36.4903994  19.1114182  61.0031055  37.3498460
  19.4036926  61.1077959  35.8681249  24.4862531  63.8978018  27.1953323
  24.3480430  64.0879614  26.2674512  24.1298750  64.6597401  27.6521374
  12.6504658  57.8836113  33.2750335  13.2904037  57.7424872  32.5773299
  11.8182188  57.5970627  32.8988937  24.5131911  65.9654545  32.2064595
  24.9468418  65.8729834  33.0547649  25.2263492  65.9412046  31.5684611
  13.4264961  67.1838544  29.3885328  14.2205560  66.6888864  29.1867903
  12.7156654  66.6556407  29.0253033  18.2459806  69.5656639  33.7397695
  18.2996828  70.1347576  34.5075411  17.3774587  69.7358524  33.3751732
   9.7347725  61.3281625  25.4645080   8.8045313  61.2666081  25.6815042
   9.8305197  60.8057578  24.6681722   9.6533274  57.8536438  28.0523322
   9.9140091  58.7681771  27.9432482  10.4750446  57.3860881  28.2019935
  11.1258199  59.2674195  35.2222147  11.7981253  59.0591558  34.5734795
  10.2987986  59.0696281  34.7827379  25.3747461  66.0078246  34.7397480
  25.5683351  66.9124056  34.9856755  25.2748079  65.5485665  35.5736065
  17.0283771  55.8936136  37.2387807  16.3811686  56.5926086  37.1452284
  17.7984787  56.3272280  37.6064056  20.4362569  66.1584989  40.3138361
  20.2848076  65.9295540  39.3968444  20.4267249  67.1155590  40.3269706
  17.2047906  63.7316901  35.2984627  18.1339966  63.8828061  35.1253594
  16.7838936  63.8200922  34.4433274  16.0036237  67.7567566  33.0683165
  15.8647323  67.3886350  33.9409103  15.2150834  68.2715205  32.8967123
  16.5984389  72.8576662  24.4108701  16.7736145  72.3864705  25.2254324
  15.9117177  73.4842428  24.6389962  17.5541453  67.1349168  30.4572003
  17.2191285  67.0949938  31.3529652  17.0545398  66.4693884  29.9842413
  11.5285697  62.5416798  35.9824584  11.3905494  61.8097037  36.5836123
  12.4390620  62.4525698  35.7008771  20.4900644  64.4805203  20.7309062
  19.8729815  63.7552031  20.6342115  20.0217133  65.2414563  20.3876136
  14.1567997  62.2536758  35.4708263  14.8667616  61.6129950  35.4294882
  14.1137305  62.5049653  36.3934444  22.1454776  69.1904111  38.3914843
  22.0867322  68.5063331  37.7245426  22.5474294  69.9323101  37.9395469
  12.8696931  59.2401976  37.2903903  12.3334288  58.7892714  37.9425499
  12.2813640  59.3747884  36.5474367  11.1645475  76.0066025  31.1848561
  11.4042073  76.6384549  31.8627580  10.3214671  75.6554065  31.4713921
  12.2799190  58.6990627  19.8530366  11.4028656  58.5779428  19.4892613
  12.7556943  57.9076705  19.6009255  22.1472183  67.1543695  36.6228822
  21.2598962  66.8169617  36.7455221  22.7170734  66.4226726  36.8597588
   3.8001330  63.4867787  29.9471874   4.4872370  63.1729517  29.3592889
   3.6449459  64.3909151  29.6739125   8.6036052  58.3757983  34.3756897
   8.5194241  57.7683653  33.6407307   7.7818759  58.8667002  34.3766394
  15.6773337  71.8145147  33.5890065  15.6043508  72.6200119  34.1009370
  15.2350730  72.0137113  32.7638087  15.4663116  71.0516917  27.0992887
  14.6830638  71.5938598  27.1931112  16.1655861  71.5690897  27.4987128
  18.7759766  56.8611547  29.7427092  19.2728466  56.1081509  29.4228163
  18.0046748  56.8975863  29.1770302  26.6289524  62.5651912  31.3845384
  26.6179400  63.4476628  31.0139317  25.7606903  62.2123463  31.1899921
  18.1372020  71.7131981  35.7448224  18.8499992  72.3479446  35.6724126
  17.6462049  71.8095847  34.9288226  19.8589547  65.6183234  27.3165516
  18.9245826  65.7384697  27.1470220  20.0366215  64.7155701  27.0525526
  15.3594735  59.0028930  29.4698777  14.9892523  58.4499970  30.1579683
  15.8553827  58.3987063  28.9173777  23.2462098  61.4600553  27.8515550
  23.7122551  62.2928545  27.7775853  23.6969599  60.9945535  28.5560808
  13.1883934  69.4626425  36.5653795  13.8893393  70.0962908  36.7183189
  12.7179049  69.8041156  35.8049434  21.3138329  67.8044375  24.8501702
  21.5898173  67.6900969  25.7595576  20.4442828  67.4061859  24.8113875
  21.2178761  53.8281140  31.8906451  20.3041841  54.0585367  32.0588658
  21.6471863  53.9119584  32.7420484  20.9885220  62.0171032  34.3906345
  20.3356670  62.2646940  33.7358798  21.3665599  61.2035170  34.0568823
  17.9492393  72.0530725  28.4934516  18.1314788  71.2352381  28.9562268
  18.7725379  72.2698418  28.0559406  18.2834559  70.9798911  25.7549564
  18.8122325  70.4691365  25.1419726  18.5462779  70.6641441  26.6195097
  17.0372793  62.7590843  40.8772382  16.3613430  62.6584973  41.5474758
  17.8600426  62.6030057  41.3408380   8.7851652  68.9962780  33.4984898
   9.3705088  68.2506468  33.6312802   8.5876490  69.3066737  34.3821562
  11.6390307  72.0314027  28.5147340  10.9700682  72.5160155  28.0311380
  11.5003177  72.2783248  29.4290719   3.3769306  61.5668380  32.2189341
   3.4153406  61.0331971  33.0126459   2.8709599  61.0403586  31.6000318
  15.7795575  74.0657771  35.1129998  16.3313884  74.2289392  35.8779084
  16.1201769  74.6562209  34.4410023  10.7560069  56.4132921  35.7151883
  10.8201395  57.2747751  35.3029281  10.6927189  55.8006922  34.9824242
  10.2312341  58.4856053  39.3624917  10.8584380  58.1033130  39.9762442
   9.3740260  58.2670255  39.7280610  20.6306450  68.8919028  40.9678653
  21.1746354  69.5048987  40.4733608  20.0493295  69.4498607  41.4845666
   7.0077884  60.2932482  25.2943272   7.3031325  59.3843161  25.2410326
   6.1065920  60.2720222  24.9724275  18.9163963  72.0139746  32.0993681
  18.7915102  71.2129486  31.5904626  19.5743054  72.5085940  31.6107650
  10.5372131  58.3688479  31.2770821   9.8158717  58.9824447  31.1378294
  11.3265387  58.9046244  31.1987467  20.9798871  69.8148766  33.7273231
  20.0329207  69.6954118  33.6551557  21.3281644  68.9271264  33.8099492
  13.3398445  55.7042905  37.5511473  13.8632846  55.9505202  38.3137782
  13.1210778  56.5362940  37.1314610   8.7365726  57.9746580  25.4182597
   8.4078432  57.0943959  25.2357703   9.0905096  57.9194249  26.3058987
  17.9845304  69.6101483  29.9277583  17.8370267  68.6818190  30.1085153
  18.8098798  69.6321573  29.4434658  11.8507549  58.2619550  25.7858075
  12.1903621  58.7905471  25.0636683  12.2979669  58.5999956  26.5616642
  21.5879426  70.4330041  31.0142456  22.5125974  70.2272903  30.8766907
  21.4194730  70.1846443  31.9231797  14.5450990  56.6456600  35.2361143
  14.2047810  55.8464413  35.6381823  13.8389996  56.9458311  34.6637976
  15.1967461  53.7305913  33.6888466  16.0193531  53.2566391  33.5667356
  15.4405525  54.5096397  34.1887152  13.8375696  56.7594171  23.9851368
  14.5584058  57.1375424  23.4815085  13.2141000  57.4783048  24.0886346
  17.9806819  57.4639320  24.9209700  18.1970433  58.3463958  24.6198528
  17.5000886  57.0725534  24.1915342  12.7206040  60.4225033  31.4980445
  12.5750621  60.7365337  32.3904726  12.2431244  61.0409934  30.9451343
  14.5802423  57.4127581  31.5461334  14.5663992  56.5168675  31.2093632
  15.2974851  57.4198245  32.1799620  16.4328554  57.8464922  33.5914462
  16.1746332  58.7681992  33.5898792  15.9013594  57.4495356  34.2814926
  21.3774742  70.9515709  26.3704547  21.5511620  70.3862131  25.6178400
  21.8703634  71.7516604  26.1884037   7.1951702  62.9630378  34.4368106
   6.6505170  63.7390186  34.5688380   8.0731052  63.3101182  34.2787227
  13.9839319  56.2941962  26.8148904  14.1055230  55.3658608  27.0139792
  13.6941361  56.3080648  25.9027220  16.8530509  53.9796872  29.9515624
  16.8752206  54.0436205  28.9967604  17.2698568  53.1401381  30.1456130
  27.2314134  63.7152132  27.9894847  27.6745280  62.9659457  27.5913970
  26.3540644  63.7062268  27.6068579  22.3649915  70.2682473  23.4701445
  23.0600820  70.8889166  23.6888760  22.7073065  69.4177824  23.7453823
   7.9817724  62.0900274  37.3298263   7.2399460  62.2382910  37.9162893
   7.6610468  62.3508540  36.4665012  24.2641338  67.7182179  24.9988776
  24.7892662  68.0569451  24.2738096  24.1763691  66.7829194  24.8151911
  15.9261387  71.6316252  37.1278653  16.2348513  71.3865399  38.0001352
  16.7236869  71.8362891  36.6397523  15.9481999  73.7854162  29.3584029
  15.5086989  73.2930541  30.0516886  16.6990116  73.2427130  29.1176105
   8.4274338  69.9765703  29.3608657   9.2532358  69.6769475  28.9807301
   8.0768390  69.2073325  29.8098446  13.3955871  69.3292171  31.4306331
  12.7735880  68.6662876  31.1308559  14.0660738  69.3553303  30.7479979
   6.6282943  67.8952029  30.3197591   5.7914851  67.4674204  30.1381592
   6.6006588  68.0884473  31.2568382  13.4680398  57.8073959  41.0238837
  13.5168554  58.6836082  40.6416607  14.0102913  57.2651352  40.4510480
  23.9535244  68.3515082  40.3039974  23.1630788  68.3339221  39.7644473
  23.7168599  68.8903376  41.0589011  24.0733119  65.2007549  37.6172703
  24.1231124  65.0357556  38.5588225  23.9647043  64.3334808  37.2270583
  12.9569378  67.8796094  24.9064792  13.1057498  68.5631559  24.2531464
  13.7635821  67.8601184  25.4214247  21.3636882  61.1838477  38.9332009
  22.2646744  61.0444942  38.6416007  21.4384856  61.3492932  39.8730187
  15.6979687  58.5605332  37.7785196  14.8282996  58.8538898  37.5067784
  15.9339167  59.1445777  38.4992459  25.5751316  67.6204490  37.8614724
  25.2836124  67.9834471  38.6978185  24.9623447  66.9071499  37.6828056
  26.7746998  65.1857370  30.3817294  27.6093890  65.6247174  30.5454855
  26.9106127  64.7096023  29.5625540  23.8238504  62.7437105  36.3294782
  24.2992626  62.9364751  35.5213634  22.9004070  62.7996291  36.0838166
  10.7122011  63.9061272  25.9125860  10.4668053  63.0023602  26.1106071
  10.8817925  63.9078423  24.9705338  18.4018721  54.7784948  35.2950616
  18.9200665  55.5145975  34.9697105  18.0473854  55.0848942  36.1297375
   9.9817658  59.6389630  23.4112022   9.2886903  59.7133985  22.7552058
   9.7369410  58.8749973  23.9333539  18.6531315  51.1985231  30.8151513
  18.9333069  50.5308420  31.4411939  19.4381922  51.3914327  30.3026176
  16.4564783  70.3744225  22.3776539  15.8838751  70.9934412  21.9247011
  17.0297577  70.9243587  22.9116461  22.5240173  59.6202865  34.5623088
  23.4757596  59.7200963  34.5835312  22.3543624  58.8281134  35.0721172
  20.5454553  56.7058448  34.7482489  19.9504485  56.9863461  34.0528977
  20.2604249  57.1952349  35.5199230  19.6762043  70.6581375  23.5085121
  20.6092716  70.5926937  23.7117997  19.5885256  71.4937642  23.0499654
  22.3050060  69.9747245  20.4689069  22.2263691  69.6407109  21.3624827
  23.1259727  70.4669013  20.4680541  25.0028251  62.8408985  33.6765387
  24.9704571  61.9024985  33.8625071  25.6128875  62.9193021  32.9431212
  16.8411582  61.7105038  19.7192591  17.7870687  61.5811246  19.7881009
  16.4625827  60.9719700  20.1962020  25.1522740  59.6320028  33.7223671
  24.6361788  58.8478485  33.5353599  26.0362688  59.3038745  33.8870190
  22.8133466  53.3761044  29.6819483  22.6158288  53.0676132  30.5662815
  23.4233172  54.1022683  29.8117413  30.8204801  63.9024992  32.8171424
  31.5508189  63.6410280  33.3779127  30.2111746  63.1653713  32.8573492
  28.9020098  62.0432854  33.4145875  28.1753262  61.9088819  32.8062367
  28.4867385  62.3509683  34.2202593  16.7250274  65.7622784  41.1793248
  17.6453284  65.9401383  41.3733295  16.6899857  64.8178829  41.0272948
  15.0254499  59.6355014  19.6547477  14.1185954  59.3388127  19.7310190
  15.3030480  59.3384832  18.7881763   5.9432439  60.9561377  30.1046523
   5.6235224  60.1026686  29.8120897   5.3965868  61.1709956  30.8604490
   9.7212347  63.6723818  33.8216030   9.9398357  64.6040926  33.8404063
  10.1338121  63.3131793  34.6070833  16.6416565  54.1791904  25.8091718
  15.8317293  53.8338989  26.1846964  17.3300982  53.8699447  26.3979330
  18.5707113  53.2569951  27.4316015  19.1238152  53.6765404  28.0906038
  18.8077199  52.3305699  27.4738971  14.5940212  59.2457024  43.2118778
  14.4936939  60.1951381  43.1430870  14.3761754  58.9175263  42.3394849
  13.7953284  56.4941949  19.7959456  14.6572448  56.8196848  20.0555273
  13.9803628  55.7073445  19.2832522   5.8120699  64.5764289  32.0739645
   5.1184171  64.1618242  31.5609599   6.5593690  64.6184825  31.4773064
  21.9485920  55.3670476  26.9394679  21.3684589  56.0255280  26.5572731
  21.6821853  54.5447820  26.5282096  20.3989487  54.7675533  29.1415999
  20.8989265  54.8792068  28.3330318  21.0425094  54.4636586  29.7816808
  14.4571482  62.6754163  42.0283840  13.9738564  63.4754523  42.2347729
  14.5432421  62.6862108  41.0751284   7.7257442  64.5082543  29.9505659
   7.7028130  64.6070230  28.9987543   8.0358078  65.3547694  30.2722826
  10.3844820  66.5658698  34.0652274  11.3388073  66.5342640  33.9982205
  10.1857343  66.1049321  34.8802500  10.9744202  65.1359814  36.6323072
  11.7937091  65.6303892  36.6557909  11.2481010  64.2191782  36.6040639
  20.7310798  57.5270566  25.9951027  19.8436653  57.8120217  25.7771222
  21.1464787  57.3664329  25.1478304  24.0825334  57.5517087  29.7105366
  24.8585724  58.0413540  29.9829983  23.3573469  57.9775141  30.1677236
  26.5197893  58.2644706  30.7679307  27.1142384  58.0240442  30.0572615
  26.5924477  57.5451837  31.3952843   8.7395049  72.1078317  31.0822472
   8.6049517  71.3478718  30.5160470   8.3227111  72.8319217  30.6151261
  19.8754012  67.2915241  20.0899047  20.5789862  67.4965243  20.7056703
  19.1516660  67.8592003  20.3548131  20.7051822  63.0425102  26.2101317
  20.6487023  63.4993653  25.3708950  21.2580164  62.2815787  26.0324160
  24.5156628  58.8314834  27.0351437  24.2593562  58.4311470  27.8659644
  23.8909496  59.5458628  26.9101576  28.8268966  61.5710907  29.5422728
  28.2668524  61.6404096  30.3154290  28.2212469  61.3951892  28.8222224
  11.8964175  73.0047634  31.2940914  11.7796559  73.9493067  31.1919605
  11.0756621  72.7021196  31.6826714  21.7840709  67.7297770  22.1397507
  22.6186313  67.2978968  21.9574982  21.6225052  67.5579784  23.0674402
  21.4386601  64.2329883  23.5053846  21.3835405  64.0674155  22.5642291
  20.8132657  64.9405916  23.6616036   6.2279116  59.4697948  37.3315269
   6.8737980  58.9596902  37.8202494   6.0196267  60.2066629  37.9058694
  18.7532508  66.5378795  42.8307409  19.6223668  66.7119447  42.4694044
  18.2739260  67.3573212  42.7083139  14.7482727  53.7337992  23.0839165
  14.7361397  54.6779832  23.2407436  15.6406149  53.5508138  22.7898626
  12.9218689  73.6575896  34.5096843  13.8245935  73.6899506  34.8263338
  12.6956059  72.7276347  34.5243179  14.6772291  72.4106883  31.1706921
  13.7267922  72.4108744  31.0571294  14.9804777  71.6639617  30.6542956
  18.5634846  50.3280769  27.3385102  17.7967242  49.7739256  27.4841784
  18.9745551  50.4002638  28.1999253  10.5676607  56.6165565  41.4290283
  11.4308069  56.2602370  41.6393607   9.9942018  56.2779460  42.1165687
  30.4124984  78.2467421  32.2352684  31.0503394  78.1274168  31.5316024
  30.2945827  79.1948265  32.2940636  27.2214690  78.1994849  32.1714209
  26.8833202  78.0835914  31.2834743  28.0904459  77.7986014  32.1515215
  23.0801506  80.0530326  28.1611100  22.5166371  79.9620263  27.3927387
  22.9653901  79.2330230  28.6413592  27.7034473  79.3529701  38.1300414
  27.6923114  78.9582499  37.2580918  27.8655113  78.6195774  38.7234186
  20.6265938  81.5481517  30.9995320  21.4187230  81.2072342  30.5841619
  20.8662588  81.6576492  31.9197473  28.6601065  83.7201293  23.4725564
  28.0089045  84.3055374  23.0859578  29.4545428  84.2507488  23.5320602
  22.5856692  80.8090430  23.8712699  23.3587568  80.2619418  23.7325575
  22.9382091  81.6734680  24.0827160  24.4241735  82.1366813  37.0779598
  24.1331601  83.0412444  36.9626264  25.0598719  82.1783340  37.7923668
  25.3497941  79.5143661  33.6680958  25.9461514  79.2899684  32.9537921
  25.4072913  78.7728407  34.2706406  24.9222970  76.9683097  21.5031149
  25.1748491  76.4464618  20.7414612  23.9847529  76.8049242  21.6057832
  29.9666253  75.9718875  29.3105892  30.7529342  75.5538298  28.9596309
  30.2304957  76.8764967  29.4787540  30.1376330  81.4091725  24.0094549
  29.5022163  81.4826352  24.7215453  29.8073736  81.9985324  23.3313628
  35.3674680  75.9094108  30.2138870  36.0999852  75.3393325  30.4476700
  34.6114035  75.5215709  30.6545376  24.6419259  78.8711203  23.7055524
  24.5255517  78.1956106  24.3736608  24.7521518  78.3843576  22.8887677
  26.9850800  78.3321350  27.4102213  26.6209007  77.8051971  28.1215134
  27.8417915  77.9419819  27.2368698  32.8900100  69.6215682  34.6733479
  32.5583425  70.4911093  34.4494694  32.2945714  69.3051966  35.3527509
  26.6256286  73.3611249  22.4063561  26.7930689  74.2291486  22.7734032
  26.4353456  73.5238531  21.4824851  29.3831620  81.8228228  34.0729392
  29.0832343  82.7253267  33.9645199  29.0382679  81.5560411  34.9250545
  22.8344101  78.2742025  30.1066096  21.9094598  78.1418239  30.3143788
  23.0828514  79.0536244  30.6036039  32.7828763  74.3410768  31.7526829
  31.8745641  74.2726177  31.4585590  32.7316359  74.8182713  32.5808655
  26.6045507  75.8168907  23.3910228  26.4845133  76.2625958  24.2295709
  25.9098096  76.1654224  22.8323766  20.1952912  77.9175299  30.9409885
  20.3245293  78.1709778  31.8549297  19.5150363  78.5103007  30.6214540
  24.3652399  88.5872549  27.0400359  24.2876429  89.5380374  27.1188840
  23.7614043  88.2418421  27.6975286  26.8569629  75.7600414  39.6961726
  26.0802963  76.3194334  39.6864591  27.4960192  76.2457197  40.2176596
  34.6490410  72.5427207  33.5304703  34.0064790  72.8359740  32.8844498
  34.1445338  72.4280127  34.3357900  32.3030574  76.2890380  24.2190562
  33.2148430  76.5217767  24.0438260  31.7940221  76.8727424  23.6565641
  25.1116002  78.5685867  39.2579693  25.8530686  79.1070911  38.9814517
  24.4052987  79.1952156  39.4151245  30.5871341  80.7115008  37.8551855
  30.9954697  80.2697418  37.1106487  29.8648603  80.1367635  38.1086048
  26.9402411  75.6487615  35.2285412  27.7863606  76.0727028  35.3720061
  26.8801049  74.9921239  35.9223975  30.9100156  81.2716198  31.6104144
  30.2809018  81.4361913  30.9080212  30.5225818  81.6857808  32.3815108
  34.7889388  82.2070636  28.9648507  34.1040426  82.5869538  28.4145541
  34.8733237  82.8165963  29.6980455  30.0901857  73.3091983  36.8866585
  29.8462788  74.0634043  36.3500861  30.3661787  73.6877331  37.7213832
  32.0440319  79.8530595  35.5643851  32.2557215  80.4962355  34.8878232
  31.9970068  79.0192912  35.0965781  29.6466548  72.4648416  32.4680423
  28.7851027  72.7629670  32.7597161  29.6728983  72.6818815  31.5361456
  26.4628118  81.0090607  28.8754229  26.9266463  81.2878310  28.0858851
  26.1984916  80.1074051  28.6927320  23.3552199  80.5562088  31.8133992
  23.9253556  80.9849356  31.1751477  23.9460311  80.2744673  32.5118178
  25.3997004  77.1313759  25.6843794  26.1021047  77.5834803  26.1517720
  25.0677632  76.4897578  26.3123687  23.8477365  75.7225516  40.0595003
  23.2176026  76.4041796  40.2930400  23.7413453  75.6108597  39.1148142
  19.1422338  75.3897312  30.9860928  18.3521392  75.6454840  30.5101038
  19.6333585  76.2045649  31.0912968  33.1586147  82.7302551  33.7366208
  33.9803591  82.3282738  33.4548890  33.1548550  82.6270785  34.6882324
  21.0937083  75.7541891  27.9444404  20.2968246  75.8660585  28.4627900
  20.8662675  76.0928543  27.0785295  26.9242751  82.2786594  35.8926919
  26.9887183  82.7407001  36.7285091  26.2153675  81.6483959  36.0209229
  17.4260041  75.6427802  33.4175918  17.6768079  76.5274812  33.6833494
  17.9619589  75.4632404  32.6451010  41.2492140  79.0741299  30.0851180
  40.4955849  78.5048697  29.9295184  41.3839682  79.0403964  31.0321815
  26.6390768  83.9454702  25.7605899  26.5036443  84.7906237  26.1890747
  27.1800581  84.1473979  24.9971833  23.1258108  70.0246281  42.4220254
  22.7325054  69.4712480  43.0967899  23.9424248  70.3356860  42.8126772
  20.0920166  81.4630140  26.3333824  20.6044686  82.2573390  26.4839389
  20.7442879  80.7656430  26.2667426  21.9015050  84.5795896  28.4156577
  22.0781679  85.5013861  28.2277561  22.6971884  84.2654315  28.8450957
  26.0426069  71.4404160  40.0140511  26.7835782  72.0411314  39.9344973
  26.2743992  70.6981798  39.4558554  21.1867407  76.6260528  38.2918741
  21.0720922  75.7245785  38.5925840  20.3311925  76.8724224  37.9403557
  28.2659245  84.5678268  39.8906241  27.8223099  83.7814647  39.5727146
  28.9276458  84.7557419  39.2250132  23.0246366  86.0974070  34.4166920
  23.5753791  85.9691133  33.6443914  22.1857842  86.3968959  34.0661813
  30.3640483  84.8481068  37.9187643  30.3458958  85.6689949  37.4267912
  31.2860403  84.7235143  38.1437784  26.8213537  82.3625197  38.7611151
  27.3541874  81.6013486  38.5310459  26.2927618  82.0698849  39.5035305
  29.9883232  67.4685263  34.2904793  29.6447501  68.3586905  34.2143903
  30.3562195  67.2786921  33.4274378  18.0569083  79.7918794  27.1093395
  18.8944305  80.2015802  26.8927103  18.2347350  78.8518236  27.0793589
  29.9533515  77.4593875  22.7977228  29.4380138  78.2298479  23.0365615
  29.6810823  76.7859011  23.4210289  27.5380626  72.3043575  27.8562466
  26.6822222  71.9150426  27.6768105  27.9507577  72.3835536  26.9962252
  29.0679772  69.8389919  32.2554026  28.5644568  69.8020054  31.4421831
  29.3610379  70.7482661  32.3150683  25.3122658  69.9228648  31.2620208
  26.1775655  69.7271457  30.9026097  25.3800167  69.6939000  32.1889564
  34.9267789  80.2126229  24.7330401  34.1497232  79.8737389  24.2885563
  35.6059270  80.2178852  24.0585366  29.7419818  75.3320967  24.6237009
  29.4369953  75.6467116  25.4747152  30.6950260  75.4102387  24.6664342
  28.1866250  81.4911190  26.2729963  27.6587611  80.7563950  25.9603200
  27.6853752  82.2685866  26.0269931  33.1659096  79.6860210  31.3897009
  32.5082770  80.3759472  31.4777138  33.9699495  80.0756642  31.7330996
  22.9184977  72.1530856  28.6336574  23.4928729  71.9306038  27.9009767
  23.5055960  72.2219551  29.3865176  31.9764555  78.0404583  29.4400951
  32.4896436  78.6734575  29.9422661  32.6265778  77.4405779  29.0744311
  23.2454564  74.1835317  22.6532460  22.4091877  74.5210004  22.9741734
  23.1059334  74.0484297  21.7159597  25.2207645  69.0272105  27.3611644
  24.5672057  68.7121122  26.7368259  25.1788119  68.4047846  28.0871467
  26.3318850  79.3091400  19.2764936  25.4245912  79.0780654  19.4756085
  26.8289882  78.5129019  19.4638918  29.2386929  88.0188907  22.1961622
  28.5648628  88.3220604  22.8046580  29.6252751  88.8217988  21.8467079
  28.4545385  75.5154039  31.6859292  27.5367947  75.7368986  31.5280980
  28.8705529  75.5900349  30.8270999  29.2380433  76.9145454  26.8161972
  29.9852252  77.4266852  26.5069094  29.5072023  76.5929507  27.6766365
  27.5107083  79.4103995  23.7988926  26.6018303  79.1263028  23.8961396
  27.5402167  79.8303074  22.9392233  32.7426351  83.0210585  27.5680094
  32.2888678  82.1801494  27.6245284  32.1120317  83.6571983  27.9054874
  31.6859270  73.9502571  28.7980761  30.9482027  73.4379957  29.1291004
  31.9386044  73.5102952  27.9864038  31.1859290  84.8587081  28.5029912
  31.4782264  85.4192138  27.7842277  31.6957911  85.1515642  29.2583071
  31.7870898  66.7278823  29.3922530  32.0929774  65.8676186  29.1048445
  32.5123502  67.3196443  29.1921524  18.0795254  77.1309509  27.7804128
  17.8819654  76.5378870  27.0555195  17.5241918  76.8261719  28.4980067
  26.0591977  77.0232616  29.8998721  26.1140587  76.0706452  29.8241198
  25.2483179  77.1792055  30.3840020  27.2083171  80.9512739  21.1377005
  26.7702601  80.2348598  20.6782642  27.9493612  81.1788854  20.5762096
  23.9984337  75.6409675  27.6589100  23.1852203  75.9403846  28.0654292
  24.4943331  75.2465364  28.3763583  26.1492915  85.6367432  29.5923365
  26.1069094  85.8628279  28.6631897  27.0655614  85.4030807  29.7409166
  29.5958549  76.1051500  36.4903994  29.9507937  76.3322973  37.3498460
  30.2430680  76.4369877  35.8681249  35.3256286  79.2269936  27.1953323
  35.1874184  79.4171532  26.2674512  34.9692505  79.9889319  27.6521374
  23.4898412  73.2128031  33.2750335  24.1297791  73.0716790  32.5773299
  22.6575943  72.9262544  32.8988937  35.3525665  81.2946463  32.2064595
  35.7862172  81.2021752  33.0547649  36.0657246  81.2703963  31.5684611
  24.2658716  82.5130461  29.3885328  25.0599314  82.0180781  29.1867903
  23.5550408  81.9848324  29.0253033  29.0853560  84.8948557  33.7397695
  29.1390583  85.4639493  34.5075411  28.2168342  85.0650442  33.3751732
  20.5741479  76.6573543  25.4645080  19.6439067  76.5957999  25.6815042
  20.6698951  76.1349496  24.6681722  20.4927028  73.1828356  28.0523322
  20.7533846  74.0973689  27.9432482  21.3144201  72.7152798  28.2019935
  21.9651954  74.5966113  35.2222147  22.6375007  74.3883475  34.5734795
  21.1381740  74.3988199  34.7827379  36.2141215  81.3370163  34.7397480
  36.4077105  82.2415974  34.9856755  36.1141833  80.8777583  35.5736065
  27.8677526  71.2228054  37.2387807  27.2205441  71.9218004  37.1452284
  28.6378541  71.6564198  37.6064056  31.2756324  81.4876906  40.3138361
  31.1241830  81.2587458  39.3968444  31.2661003  82.4447508  40.3269706
  28.0441660  79.0608819  35.2984627  28.9733720  79.2119979  35.1253594
  27.6232690  79.1492840  34.4433274  26.8429992  83.0859483  33.0683165
  26.7041078  82.7178268  33.9409103  26.0544588  83.6007123  32.8967123
  27.4378144  88.1868580  24.4108701  27.6129900  87.7156623  25.2254324
  26.7510932  88.8134346  24.6389962  28.3935207  82.4641086  30.4572003
  28.0585040  82.4241856  31.3529652  27.8939153  81.7985802  29.9842413
  22.3679451  77.8708716  35.9824584  22.2299249  77.1388955  36.5836123
  23.2784374  77.7817616  35.7008771  31.3294399  79.8097120  20.7309062
  30.7123569  79.0843949  20.6342115  30.8610887  80.5706481  20.3876136
  24.9961752  77.5828675  35.4708263  25.7061370  76.9421868  35.4294882
  24.9531060  77.8341570  36.3934444  32.9848530  84.5196029  38.3914843
  32.9261077  83.8355249  37.7245426  33.3868049  85.2615019  37.9395469
  23.7090686  74.5693893  37.2903903  23.1728043  74.1184632  37.9425499
  23.1207394  74.7039802  36.5474367  22.0039229  91.3357943  31.1848561
  22.2435827  91.9676467  31.8627580  21.1608426  90.9845983  31.4713921
  23.1192945  74.0282545  19.8530366  22.2422411  73.9071345  19.4892613
  23.5950698  73.2368623  19.6009255  32.9865938  82.4835613  36.6228822
  32.0992716  82.1461534  36.7455221  33.5564489  81.7518644  36.8597588
  14.6395085  78.8159704  29.9471874  15.3266125  78.5021434  29.3592889
  14.4843213  79.7201069  29.6739125  19.4429807  73.7049901  34.3756897
  19.3587996  73.0975571  33.6407307  18.6212513  74.1958919  34.3766394
  26.5167091  87.1437065  33.5890065  26.4437263  87.9492037  34.1009370
  26.0744484  87.3429031  32.7638087  26.3056871  86.3808835  27.0992887
  25.5224393  86.9230515  27.1931112  27.0049616  86.8982815  27.4987128
  29.6153521  72.1903465  29.7427092  30.1122220  71.4373427  29.4228163
  28.8440502  72.2267781  29.1770302  37.4683278  77.8943830  31.3845384
  37.4573154  78.7768545  31.0139317  36.6000658  77.5415381  31.1899921
  28.9765775  87.0423899  35.7448224  29.6893747  87.6771364  35.6724126
  28.4855803  87.1387765  34.9288226  30.6983301  80.9475152  27.3165516
  29.7639580  81.0676614  27.1470220  30.8759970  80.0447618  27.0525526
  26.1988490  74.3320847  29.4698777  25.8286277  73.7791888  30.1579683
  26.6947582  73.7278981  28.9173777  34.0855853  76.7892471  27.8515550
  34.5516305  77.6220463  27.7775853  34.5363353  76.3237453  28.5560808
  24.0277688  84.7918343  36.5653795  24.7287148  85.4254825  36.7183189
  23.5572803  85.1333074  35.8049434  32.1532084  83.1336292  24.8501702
  32.4291928  83.0192887  25.7595576  31.2836583  82.7353777  24.8113875
  32.0572516  69.1573058  31.8906451  31.1435595  69.3877285  32.0588658
  32.4865617  69.2411502  32.7420484  31.8278974  77.3462950  34.3906345
  31.1750424  77.5938857  33.7358798  32.2059354  76.5327088  34.0568823
  28.7886148  87.3822643  28.4934516  28.9708542  86.5644299  28.9562268
  29.6119134  87.5990335  28.0559406  29.1228313  86.3090828  25.7549564
  29.6516080  85.7983283  25.1419726  29.3856533  85.9933358  26.6195097
  27.8766547  78.0882761  40.8772382  27.2007184  77.9876890  41.5474758
  28.6994181  77.9321975  41.3408380  19.6245406  84.3254698  33.4984898
  20.2098843  83.5798385  33.6312802  19.4270245  84.6358654  34.3821562
  22.4784061  87.3605945  28.5147340  21.8094437  87.8452073  28.0311380
  22.3396931  87.6075165  29.4290719  14.2163061  76.8960298  32.2189341
  14.2547160  76.3623888  33.0126459  13.7103354  76.3695503  31.6000318
  26.6189330  89.3949688  35.1129998  27.1707638  89.5581310  35.8779084
  26.9595523  89.9854126  34.4410023  21.5953823  71.7424838  35.7151883
  21.6595150  72.6039669  35.3029281  21.5320943  71.1298840  34.9824242
  21.0706096  73.8147971  39.3624917  21.6978135  73.4325048  39.9762442
  20.2134015  73.5962173  39.7280610  31.4700204  84.2210946  40.9678653
  32.0140108  84.8340904  40.4733608  30.8887049  84.7790524  41.4845666
  17.8471638  75.6224400  25.2943272  18.1425080  74.7135078  25.2410326
  16.9459674  75.6012139  24.9724275  29.7557717  87.3431664  32.0993681
  29.6308857  86.5421404  31.5904626  30.4136808  87.8377857  31.6107650
  21.3765885  73.6980396  31.2770821  20.6552471  74.3116364  31.1378294
  22.1659141  74.2338161  31.1987467  31.8192626  85.1440684  33.7273231
  30.8722961  85.0246035  33.6551557  32.1675399  84.2563182  33.8099492
  24.1792199  71.0334823  37.5511473  24.7026601  71.2797120  38.3137782
  23.9604532  71.8654858  37.1314610  19.5759480  73.3038498  25.4182597
  19.2472186  72.4235876  25.2357703  19.9298851  73.2486166  26.3058987
  28.8239059  84.9393400  29.9277583  28.6764021  84.0110108  30.1085153
  29.6492552  84.9613491  29.4434658  22.6901303  73.5911467  25.7858075
  23.0297376  74.1197389  25.0636683  23.1373424  73.9291873  26.5616642
  32.4273181  85.7621959  31.0142456  33.3519728  85.5564820  30.8766907
  32.2588484  85.5138360  31.9231797  25.3844744  71.9748518  35.2361143
  25.0441564  71.1756331  35.6381823  24.6783750  72.2750229  34.6637976
  26.0361216  69.0597831  33.6888466  26.8587285  68.5858309  33.5667356
  26.2799279  69.8388314  34.1887152  24.6769450  72.0886089  23.9851368
  25.3977813  72.4667342  23.4815085  24.0534754  72.8074966  24.0886346
  28.8200573  72.7931238  24.9209700  29.0364188  73.6755876  24.6198528
  28.3394640  72.4017451  24.1915342  23.5599795  75.7516951  31.4980445
  23.4144375  76.0657254  32.3904726  23.0824998  76.3701851  30.9451343
  25.4196178  72.7419499  31.5461334  25.4057746  71.8460592  31.2093632
  26.1368606  72.7490163  32.1799620  27.2722308  73.1756839  33.5914462
  27.0140086  74.0973910  33.5898792  26.7407349  72.7787274  34.2814926
  32.2168497  86.2807626  26.3704547  32.3905375  85.7154049  25.6178400
  32.7097388  87.0808521  26.1884037  18.0345457  78.2922296  34.4368106
  17.4898925  79.0682104  34.5688380  18.9124807  78.6393100  34.2787227
  24.8233073  71.6233879  26.8148904  24.9448985  70.6950526  27.0139792
  24.5335116  71.6372565  25.9027220  27.6924264  69.3088790  29.9515624
  27.7145961  69.3728123  28.9967604  28.1092323  68.4693299  30.1456130
  38.0707888  79.0444049  27.9894847  38.5139034  78.2951375  27.5913970
  37.1934398  79.0354186  27.6068579  33.2043669  85.5974391  23.4701445
  33.8994574  86.2181084  23.6888760  33.5466820  84.7469742  23.7453823
  18.8211479  77.4192192  37.3298263  18.0793215  77.5674827  37.9162893
  18.5004223  77.6800457  36.4665012  35.1035093  83.0474096  24.9988776
  35.6286417  83.3861369  24.2738096  35.0157445  82.1121112  24.8151911
  26.7655141  86.9608170  37.1278653  27.0742268  86.7157317  38.0001352
  27.5630623  87.1654809  36.6397523  26.7875753  89.1146080  29.3584029
  26.3480744  88.6222458  30.0516886  27.5383870  88.5719047  29.1176105
  19.2668092  85.3057621  29.3608657  20.0926112  85.0061392  28.9807301
  18.9162144  84.5365243  29.8098446  24.2349625  84.6584089  31.4306331
  23.6129635  83.9954794  31.1308559  24.9054492  84.6845221  30.7479979
  17.4676697  83.2243947  30.3197591  16.6308606  82.7966121  30.1381592
  17.4400343  83.4176390  31.2568382  24.3074153  73.1365877  41.0238837
  24.3562308  74.0128000  40.6416607  24.8496667  72.5943270  40.4510480
  34.7928999  83.6807000  40.3039974  34.0024542  83.6631139  39.7644473
  34.5562353  84.2195294  41.0589011  34.9126874  80.5299466  37.6172703
  34.9624879  80.3649474  38.5588225  34.8040797  79.6626725  37.2270583
  23.7963132  83.2088012  24.9064792  23.9451253  83.8923477  24.2531464
  24.6029576  83.1893102  25.4214247  32.2030636  76.5130394  38.9332009
  33.1040499  76.3736859  38.6416007  32.2778611  76.6784849  39.8730187
  26.5373441  73.8897249  37.7785196  25.6676751  74.1830815  37.5067784
  26.7732922  74.4737694  38.4992459  36.4145071  82.9496408  37.8614724
  36.1229879  83.3126388  38.6978185  35.8017202  82.2363416  37.6828056
  37.6140753  80.5149288  30.3817294  38.4487644  80.9539092  30.5454855
  37.7499882  80.0387941  29.5625540  34.6632259  78.0729023  36.3294782
  35.1386380  78.2656669  35.5213634  33.7397824  78.1288208  36.0838166
  21.5515765  79.2353190  25.9125860  21.3061807  78.3315520  26.1106071
  21.7211680  79.2370340  24.9705338  29.2412475  70.1076866  35.2950616
  29.7594419  70.8437893  34.9697105  28.8867608  70.4140859  36.1297375
  20.8211413  74.9681547  23.4112022  20.1280658  75.0425902  22.7552058
  20.5763165  74.2041891  23.9333539  29.4925069  66.5277149  30.8151513
  29.7726823  65.8600338  31.4411939  30.2775676  66.7206244  30.3026176
  27.2958538  85.7036143  22.3776539  26.7232505  86.3226330  21.9247011
  27.8691332  86.2535504  22.9116461  33.3633928  74.9494783  34.5623088
  34.3151351  75.0492880  34.5835312  33.1937378  74.1573051  35.0721172
  31.3848307  72.0350366  34.7482489  30.7898239  72.3155379  34.0528977
  31.0998004  72.5244267  35.5199230  30.5155798  85.9873293  23.5085121
  31.4486471  85.9218854  23.7117997  30.4279011  86.8229560  23.0499654
  33.1443814  85.3039163  20.4689069  33.0657446  84.9699027  21.3624827
  33.9653481  85.7960931  20.4680541  35.8422006  78.1700902  33.6765387
  35.8098326  77.2316903  33.8625071  36.4522629  78.2484939  32.9431212
  27.6805336  77.0396955  19.7192591  28.6264441  76.9103163  19.7881009
  27.3019581  76.3011617  20.1962020  35.9916494  74.9611946  33.7223671
  35.4755543  74.1770402  33.5353599  36.8756443  74.6330662  33.8870190
  33.6527221  68.7052961  29.6819483  33.4552042  68.3968050  30.5662815
  34.2626927  69.4314600  29.8117413  41.6598555  79.2316909  32.8171424
  42.3901944  78.9702197  33.3779127  41.0505501  78.4945631  32.8573492
  39.7413853  77.3724772  33.4145875  39.0147016  77.2380737  32.8062367
  39.3261139  77.6801600  34.2202593  27.5644029  81.0914701  41.1793248
  28.4847038  81.2693300  41.3733295  27.5293612  80.1470747  41.0272948
  25.8648254  74.9646932  19.6547477  24.9579709  74.6680044  19.7310190
  26.1424235  74.6676750  18.7881763  16.7826194  76.2853295  30.1046523
  16.4628978  75.4318603  29.8120897  16.2359622  76.5001873  30.8604490
  20.5606102  79.0015736  33.8216030  20.7792111  79.9332844  33.8404063
  20.9731875  78.6423711  34.6070833  27.4810319  69.5083821  25.8091718
  26.6711048  69.1630906  26.1846964  28.1694736  69.1991365  26.3979330
  29.4100868  68.5861868  27.4316015  29.9631906  69.0057322  28.0906038
  29.6470954  67.6597616  27.4738971  25.4333967  74.5748942  43.2118778
  25.3330694  75.5243299  43.1430870  25.2155509  74.2467181  42.3394849
  24.6347038  71.8233867  19.7959456  25.4966202  72.1488765  20.0555273
  24.8197382  71.0365363  19.2832522  16.6514454  79.9056207  32.0739645
  15.9577925  79.4910159  31.5609599  17.3987445  79.9476743  31.4773064
  32.7879675  70.6962393  26.9394679  32.2078344  71.3547197  26.5572731
  32.5215607  69.8739738  26.5282096  31.2383241  70.0967451  29.1415999
  31.7383019  70.2083986  28.3330318  31.8818849  69.7928504  29.7816808
  25.2965237  78.0046081  42.0283840  24.8132319  78.8046441  42.2347729
  25.3826176  78.0154026  41.0751284  18.5651196  79.8374460  29.9505659
  18.5421885  79.9362148  28.9987543  18.8751833  80.6839611  30.2722826
  21.2238574  81.8950615  34.0652274  22.1781828  81.8634558  33.9982205
  21.0251098  81.4341239  34.8802500  21.8137956  80.4651731  36.6323072
  22.6330845  80.9595810  36.6557909  22.0874764  79.5483700  36.6040639
  31.5704553  72.8562484  25.9951027  30.6830408  73.1412134  25.7771222
  31.9858542  72.6956247  25.1478304  34.9219089  72.8809005  29.7105366
  35.6979479  73.3705457  29.9829983  34.1967223  73.3067059  30.1677236
  37.3591647  73.5936624  30.7679307  37.9536138  73.3532360  30.0572615
  37.4318231  72.8743755  31.3952843  19.5788803  87.4370235  31.0822472
  19.4443271  86.6770636  30.5160470  19.1620865  88.1611135  30.6151261
  30.7147766  82.6207158  20.0899047  31.4183616  82.8257161  20.7056703
  29.9910415  83.1883920  20.3548131  31.5445576  78.3717020  26.2101317
  31.4880778  78.8285571  25.3708950  32.0973919  77.6107704  26.0324160
  35.3550382  74.1606752  27.0351437  35.0987317  73.7603387  27.8659644
  34.7303250  74.8750546  26.9101576  39.6662720  76.9002825  29.5422728
  39.1062278  76.9696014  30.3154290  39.0606224  76.7243809  28.8222224
  22.7357929  88.3339552  31.2940914  22.6190313  89.2784984  31.1919605
  21.9150375  88.0313113  31.6826714  32.6234464  83.0589688  22.1397507
  33.4580067  82.6270886  21.9574982  32.4618806  82.8871701  23.0674402
  32.2780356  79.5621801  23.5053846  32.2229160  79.3966072  22.5642291
  31.6526411  80.2697834  23.6616036  17.0672871  74.7989865  37.3315269
  17.7131734  74.2888819  37.8202494  16.8590022  75.5358547  37.9058694
  29.5926263  81.8670713  42.8307409  30.4617423  82.0411365  42.4694044
  29.1133014  82.6865130  42.7083139  25.5876481  69.0629910  23.0839165
  25.5755151  70.0071750  23.2407436  26.4799903  68.8800055  22.7898626
  23.7612443  88.9867814  34.5096843  24.6639690  89.0191424  34.8263338
  23.5349813  88.0568265  34.5243179  25.5166045  87.7398800  31.1706921
  24.5661676  87.7400662  31.0571294  25.8198531  86.9931535  30.6542956
  29.4028601  65.6572687  27.3385102  28.6360996  65.1031173  27.4841784
  29.8139306  65.7294555  28.1999253  21.4070362  71.9457482  41.4290283
  22.2701823  71.5894287  41.6393607  20.8335772  71.6071377  42.1165687
  41.2518739  93.5759339  32.2352684  41.8897149  93.4566086  31.5316024
  41.1339582  94.5240183  32.2940636  38.0608445  93.5286767  32.1714209
  37.7226956  93.4127832  31.2834743  38.9298213  93.1277932  32.1515215
  33.9195261  95.3822243  28.1611100  33.3560126  95.2912180  27.3927387
  33.8047656  94.5622148  28.6413592  38.5428228  94.6821619  38.1300414
  38.5316869  94.2874417  37.2580918  38.7048867  93.9487691  38.7234186
  31.4659693  96.8773435  30.9995320  32.2580984  96.5364260  30.5841619
  31.7056343  96.9868410  31.9197473  39.4994819  99.0493211  23.4725564
  38.8482799  99.6347291  23.0859578  40.2939182  99.5799406  23.5320602
  33.4250446  96.1382348  23.8712699  34.1981322  95.5911335  23.7325575
  33.7775845  97.0026597  24.0827160  35.2635489  97.4658730  37.0779598
  34.9725355  98.3704361  36.9626264  35.8992473  97.5075258  37.7923668
  36.1891696  94.8435579  33.6680958  36.7855268  94.6191601  32.9537921
  36.2466667  94.1020324  34.2706406  35.7616724  92.2975014  21.5031149
  36.0142245  91.7756536  20.7414612  34.8241283  92.1341160  21.6057832
  40.8060007  91.3010793  29.3105892  41.5923096  90.8830216  28.9596309
  41.0698711  92.2056885  29.4787540  40.9770084  96.7383643  24.0094549
  40.3415917  96.8118269  24.7215453  40.6467491  97.3277242  23.3313628
  46.2068434  91.2386026  30.2138870  46.9393606  90.6685243  30.4476700
  45.4507790  90.8507626  30.6545376  35.4813013  94.2003120  23.7055524
  35.3649271  93.5248024  24.3736608  35.5915273  93.7135494  22.8887677
  37.8244554  93.6613267  27.4102213  37.4602761  93.1343888  28.1215134
  38.6811670  93.2711736  27.2368698  43.7293855  84.9507600  34.6733479
  43.3977179  85.8203011  34.4494694  43.1339468  84.6343884  35.3527509
  37.4650041  88.6903167  22.4063561  37.6324443  89.5583403  22.7734032
  37.2747210  88.8530449  21.4824851  40.2225374  97.1520146  34.0729392
  39.9226097  98.0545185  33.9645199  39.8776434  96.8852329  34.9250545
  33.6737856  93.6033943  30.1066096  32.7488352  93.4710157  30.3143788
  33.9222269  94.3828162  30.6036039  43.6222518  89.6702686  31.7526829
  42.7139395  89.6018095  31.4585590  43.5710114  90.1474631  32.5808655
  37.4439262  91.1460824  23.3910228  37.3238887  91.5917875  24.2295709
  36.7491850  91.4946142  22.8323766  31.0346667  93.2467216  30.9409885
  31.1639048  93.5001695  31.8549297  30.3544118  93.8394924  30.6214540
  35.2046154 103.9164466  27.0400359  35.1270184 104.8672291  27.1188840
  34.6007798 103.5710339  27.6975286  37.6963384  91.0892332  39.6961726
  36.9196718  91.6486252  39.6864591  38.3353947  91.5749115  40.2176596
  45.4884164  87.8719124  33.5304703  44.8458545  88.1651658  32.8844498
  44.9839093  87.7572045  34.3357900  43.1424328  91.6182298  24.2190562
  44.0542184  91.8509684  24.0438260  42.6333975  92.2019342  23.6565641
  35.9509756  93.8977785  39.2579693  36.6924440  94.4362829  38.9814517
  35.2446741  94.5244074  39.4151245  41.4265096  96.0406925  37.8551855
  41.8348452  95.5989336  37.1106487  40.7042357  95.4659553  38.1086048
  37.7796166  90.9779532  35.2285412  38.6257361  91.4018946  35.3720061
  37.7194803  90.3213157  35.9223975  41.7493910  96.6008116  31.6104144
  41.1202773  96.7653830  30.9080212  41.3619572  97.0149726  32.3815108
  45.6283142  97.5362554  28.9648507  44.9434180  97.9161455  28.4145541
  45.7126992  98.1457881  29.6980455  40.9295611  88.6383901  36.8866585
  40.6856543  89.3925961  36.3500861  41.2055542  89.0169248  37.7213832
  42.8834074  95.1822513  35.5643851  43.0950969  95.8254273  34.8878232
  42.8363822  94.3484830  35.0965781  40.4860303  87.7940334  32.4680423
  39.6244782  88.0921587  32.7597161  40.5122737  88.0110733  31.5361456
  37.3021872  96.3382524  28.8754229  37.7660218  96.6170227  28.0858851
  37.0378670  95.4365969  28.6927320  34.1945953  95.8854006  31.8133992
  34.7647310  96.3141274  31.1751477  34.7854065  95.6036590  32.5118178
  36.2390758  92.4605677  25.6843794  36.9414802  92.9126720  26.1517720
  35.9071387  91.8189495  26.3123687  34.6871120  91.0517433  40.0595003
  34.0569780  91.7333714  40.2930400  34.5807208  90.9400515  39.1148142
  29.9816092  90.7189229  30.9860928  29.1915146  90.9746758  30.5101038
  30.4727340  91.5337567  31.0912968  43.9979902  98.0594468  33.7366208
  44.8197345  97.6574656  33.4548890  43.9942305  97.9562703  34.6882324
  31.9330838  91.0833808  27.9444404  31.1362001  91.1952503  28.4627900
  31.7056430  91.4220461  27.0785295  37.7636505  97.6078512  35.8926919
  37.8280938  98.0698919  36.7285091  37.0547429  96.9775877  36.0209229
  28.2653795  90.9719720  33.4175918  28.5161834  91.8566730  33.6833494
  28.8013344  90.7924321  32.6451010  52.0885895  94.4033217  30.0851180
  51.3349603  93.8340615  29.9295184  52.2233436  94.3695881  31.0321815
  37.4784523  99.2746619  25.7605899  37.3430198 100.1198155  26.1890747
  38.0194335  99.4765897  24.9971833  33.9651863  85.3538199  42.4220254
  33.5718808  84.8004398  43.0967899  34.7818003  85.6648778  42.8126772
  30.9313920  96.7922057  26.3333824  31.4438441  97.5865307  26.4839389
  31.5836633  96.0948348  26.2667426  32.7408805  99.9087814  28.4156577
  32.9175433 100.8305778  28.2277561  33.5365638  99.5946233  28.8450957
  36.8819823  86.7696078  40.0140511  37.6229537  87.3703231  39.9344973
  37.1137746  86.0273716  39.4558554  32.0261162  91.9552445  38.2918741
  31.9114677  91.0537703  38.5925840  31.1705679  92.2016142  37.9403557
  39.1052999  99.8970186  39.8906241  38.6616853  99.1106564  39.5727146
  39.7670213 100.0849336  39.2250132  33.8640120 101.4265987  34.4166920
  34.4147546 101.2983051  33.6443914  33.0251596 101.7260876  34.0661813
  41.2034237 100.1772986  37.9187643  41.1852713 100.9981867  37.4267912
  42.1254157 100.0527061  38.1437784  37.6607291  97.6917115  38.7611151
  38.1935628  96.9305403  38.5310459  37.1321373  97.3990767  39.5035305
  40.8276986  82.7977181  34.2904793  40.4841256  83.6878823  34.2143903
  41.1955949  82.6078839  33.4274378  28.8962837  95.1210712  27.1093395
  29.7338059  95.5307720  26.8927103  29.0741105  94.1810154  27.0793589
  40.7927269  92.7885792  22.7977228  40.2773893  93.5590397  23.0365615
  40.5204578  92.1150928  23.4210289  38.3774380  87.6335493  27.8562466
  37.5215977  87.2442343  27.6768105  38.7901332  87.7127454  26.9962252
  39.9073527  85.1681836  32.2554026  39.4038322  85.1311971  31.4421831
  40.2004134  86.0774579  32.3150683  36.1516413  85.2520566  31.2620208
  37.0169409  85.0563375  30.9026097  36.2193922  85.0230918  32.1889564
  45.7661543  95.5418147  24.7330401  44.9890986  95.2029306  24.2885563
  46.4453024  95.5470770  24.0585366  40.5813572  90.6612884  24.6237009
  40.2763708  90.9759033  25.4747152  41.5344014  90.7394304  24.6664342
  39.0260004  96.8203108  26.2729963  38.4981366  96.0855867  25.9603200
  38.5247507  97.5977784  26.0269931  44.0052850  95.0152128  31.3897009
  43.3476525  95.7051389  31.4777138  44.8093249  95.4048560  31.7330996
  33.7578732  87.4822774  28.6336574  34.3322484  87.2597955  27.9009767
  34.3449714  87.5511468  29.3865176  42.8158309  93.3696501  29.4400951
  43.3290191  94.0026493  29.9422661  43.4659533  92.7697696  29.0744311
  34.0848319  89.5127235  22.6532460  33.2485631  89.8501921  22.9741734
  33.9453089  89.3776215  21.7159597  36.0601399  84.3564023  27.3611644
  35.4065812  84.0413040  26.7368259  36.0181874  83.7339763  28.0871467
  37.1712604  94.6383318  19.2764936  36.2639666  94.4072571  19.4756085
  37.6683636  93.8420937  19.4638918  40.0780683 103.3480825  22.1961622
  39.4042382 103.6512522  22.8046580  40.4646505 104.1509905  21.8467079
  39.2939140  90.8445956  31.6859292  38.3761701  91.0660903  31.5280980
  39.7099283  90.9192267  30.8270999  40.0774188  92.2437372  26.8161972
  40.8246007  92.7558769  26.5069094  40.3465777  91.9221425  27.6766365
  38.3500838  94.7395913  23.7988926  37.4412057  94.4554946  23.8961396
  38.3795922  95.1594991  22.9392233  43.5820105  98.3502502  27.5680094
  43.1282432  97.5093412  27.6245284  42.9514072  98.9863901  27.9054874
  42.5253025  89.2794488  28.7980761  41.7875782  88.7671874  29.1291004
  42.7779798  88.8394870  27.9864038  42.0253044 100.1878999  28.5029912
  42.3176019 100.7484056  27.7842277  42.5351665 100.4807560  29.2583071
  42.6264652  82.0570740  29.3922530  42.9323529  81.1968104  29.1048445
  43.3517257  82.6488360  29.1921524  28.9189008  92.4601427  27.7804128
  28.7213408  91.8670788  27.0555195  28.3635672  92.1553637  28.4980067
  36.8985732  92.3524533  29.8998721  36.9534342  91.3998370  29.8241198
  36.0876934  92.5083972  30.3840020  38.0476926  96.2804656  21.1377005
  37.6096356  95.5640515  20.6782642  38.7887366  96.5080771  20.5762096
  34.8378092  90.9701593  27.6589100  34.0245957  91.2695764  28.0654292
  35.3337086  90.5757282  28.3763583  36.9886670 100.9659350  29.5923365
  36.9462848 101.1920196  28.6631897  37.9049368 100.7322725  29.7409166
  40.4352303  91.4343418  36.4903994  40.7901691  91.6614891  37.3498460
  41.0824435  91.7661794  35.8681249  46.1650040  94.5561853  27.1953323
  46.0267939  94.7463449  26.2674512  45.8086259  95.3181236  27.6521374
  34.3292167  88.5419949  33.2750335  34.9691546  88.4008708  32.5773299
  33.4969697  88.2554462  32.8988937  46.1919420  96.6238380  32.2064595
  46.6255927  96.5313670  33.0547649  46.9051001  96.5995881  31.5684611
  35.1052470  97.8422379  29.3885328  35.8993069  97.3472699  29.1867903
  34.3944163  97.3140242  29.0253033  39.9247315 100.2240475  33.7397695
  39.9784337 100.7931411  34.5075411  39.0562096 100.3942360  33.3751732
  31.4135234  91.9865461  25.4645080  30.4832822  91.9249916  25.6815042
  31.5092706  91.4641414  24.6681722  31.3320783  88.5120274  28.0523322
  31.5927600  89.4265607  27.9432482  32.1537955  88.0444716  28.2019935
  32.8045708  89.9258031  35.2222147  33.4768762  89.7175393  34.5734795
  31.9775495  89.7280117  34.7827379  47.0534970  96.6662081  34.7397480
  47.2470860  97.5707892  34.9856755  46.9535588  96.2069500  35.5736065
  38.7071280  86.5519972  37.2387807  38.0599195  87.2509921  37.1452284
  39.4772296  86.9856116  37.6064056  42.1150078  96.8168824  40.3138361
  41.9635585  96.5879376  39.3968444  42.1054758  97.7739425  40.3269706
  38.8835415  94.3900737  35.2984627  39.8127475  94.5411896  35.1253594
  38.4626445  94.4784757  34.4433274  37.6823746  98.4151401  33.0683165
  37.5434832  98.0470185  33.9409103  36.8938343  98.9299040  32.8967123
  38.2771898 103.5160497  24.4108701  38.4523654 103.0448541  25.2254324
  37.5904686 104.1426264  24.6389962  39.2328962  97.7933004  30.4572003
  38.8978794  97.7533774  31.3529652  38.7332907  97.1277720  29.9842413
  33.2073206  93.2000634  35.9824584  33.0693003  92.4680873  36.5836123
  34.1178129  93.1109534  35.7008771  42.1688153  95.1389038  20.7309062
  41.5517324  94.4135866  20.6342115  41.7004642  95.8998398  20.3876136
  35.8355506  92.9120593  35.4708263  36.5455125  92.2713785  35.4294882
  35.7924814  93.1633488  36.3934444  43.8242285  99.8487946  38.3914843
  43.7654831  99.1647167  37.7245426  44.2261803 100.5906936  37.9395469
  34.5484440  89.8985811  37.2903903  34.0121797  89.4476549  37.9425499
  33.9601149  90.0331720  36.5474367  32.8432984 106.6649860  31.1848561
  33.0829582 107.2968384  31.8627580  32.0002180 106.3137900  31.4713921
  33.9586699  89.3574462  19.8530366  33.0816165  89.2363263  19.4892613
  34.4344452  88.5660541  19.6009255  43.8259692  97.8127530  36.6228822
  42.9386471  97.4753452  36.7455221  44.3958243  97.0810562  36.8597588
  25.4788839  94.1451622  29.9471874  26.1659879  93.8313352  29.3592889
  25.3236968  95.0492987  29.6739125  30.2823561  89.0341819  34.3756897
  30.1981750  88.4267488  33.6407307  29.4606268  89.5250837  34.3766394
  37.3560846 102.4728983  33.5890065  37.2831017 103.2783954  34.1009370
  36.9138239 102.6720949  32.7638087  37.1450625 101.7100753  27.0992887
  36.3618147 102.2522433  27.1931112  37.8443370 102.2274732  27.4987128
  40.4547275  87.5195382  29.7427092  40.9515975  86.7665345  29.4228163
  39.6834257  87.5559699  29.1770302  48.3077033  93.2235748  31.3845384
  48.2966909  94.1060463  31.0139317  47.4394412  92.8707299  31.1899921
  39.8159529 102.3715817  35.7448224  40.5287501 103.0063282  35.6724126
  39.3249558 102.4679683  34.9288226  41.5377056  96.2767069  27.3165516
  40.6033335  96.3968532  27.1470220  41.7153724  95.3739536  27.0525526
  37.0382244  89.6612765  29.4698777  36.6680032  89.1083806  30.1579683
  37.5341336  89.0570899  28.9173777  44.9249607  92.1184389  27.8515550
  45.3910060  92.9512380  27.7775853  45.3757108  91.6529370  28.5560808
  34.8671443 100.1210260  36.5653795  35.5680902 100.7546743  36.7183189
  34.3966558 100.4624992  35.8049434  42.9925838  98.4628210  24.8501702
  43.2685682  98.3484805  25.7595576  42.1230337  98.0645695  24.8113875
  42.8966270  84.4864976  31.8906451  41.9829350  84.7169203  32.0588658
  43.3259372  84.5703420  32.7420484  42.6672729  92.6754868  34.3906345
  42.0144179  92.9230775  33.7358798  43.0453108  91.8619006  34.0568823
  39.6279902 102.7114561  28.4934516  39.8102297 101.8936217  28.9562268
  40.4512888 102.9282253  28.0559406  39.9622068 101.6382746  25.7549564
  40.4909834 101.1275201  25.1419726  40.2250288 101.3225276  26.6195097
  38.7160302  93.4174679  40.8772382  38.0400939  93.3168808  41.5474758
  39.5387935  93.2613892  41.3408380  30.4639161  99.6546615  33.4984898
  31.0492597  98.9090303  33.6312802  30.2663999  99.9650572  34.3821562
  33.3177816 102.6897863  28.5147340  32.6488191 103.1743990  28.0311380
  33.1790686 102.9367083  29.4290719  25.0556815  92.2252215  32.2189341
  25.0940915  91.6915806  33.0126459  24.5497108  91.6987421  31.6000318
  37.4583084 104.7241606  35.1129998  38.0101392 104.8873228  35.8779084
  37.7989278 105.3146044  34.4410023  32.4347578  87.0716756  35.7151883
  32.4988904  87.9331587  35.3029281  32.3714698  86.4590758  34.9824242
  31.9099850  89.1439888  39.3624917  32.5371889  88.7616966  39.9762442
  31.0527769  88.9254090  39.7280610  42.3093959  99.5502864  40.9678653
  42.8533863 100.1632822  40.4733608  41.7280804 100.1082442  41.4845666
  28.6865393  90.9516318  25.2943272  28.9818834  90.0426996  25.2410326
  27.7853429  90.9304057  24.9724275  40.5951472 102.6723582  32.0993681
  40.4702611 101.8713322  31.5904626  41.2530563 103.1669775  31.6107650
  32.2159640  89.0272314  31.2770821  31.4946226  89.6408282  31.1378294
  33.0052896  89.5630079  31.1987467  42.6586380 100.4732602  33.7273231
  41.7116716 100.3537953  33.6551557  43.0069153  99.5855100  33.8099492
  35.0185953  86.3626741  37.5511473  35.5420355  86.6089037  38.3137782
  34.7998287  87.1946775  37.1314610  30.4153235  88.6330415  25.4182597
  30.0865941  87.7527794  25.2357703  30.7692605  88.5778084  26.3058987
  39.6632813 100.2685318  29.9277583  39.5157776  99.3402025  30.1085153
  40.4886307 100.2905409  29.4434658  33.5295058  88.9203385  25.7858075
  33.8691130  89.4489306  25.0636683  33.9767178  89.2583791  26.5616642
  43.2666935 101.0913877  31.0142456  44.1913483 100.8856738  30.8766907
  43.0982239 100.8430278  31.9231797  36.2238499  87.3040436  35.2361143
  35.8835319  86.5048249  35.6381823  35.5177505  87.6042147  34.6637976
  36.8754970  84.3889748  33.6888466  37.6981040  83.9150226  33.5667356
  37.1193034  85.1680232  34.1887152  35.5163205  87.4178007  23.9851368
  36.2371567  87.7959259  23.4815085  34.8928509  88.1366883  24.0886346
  39.6594328  88.1223156  24.9209700  39.8757942  89.0047793  24.6198528
  39.1788395  87.7309369  24.1915342  34.3993549  91.0808869  31.4980445
  34.2538130  91.3949172  32.3904726  33.9218753  91.6993769  30.9451343
  36.2589932  88.0711417  31.5461334  36.2451501  87.1752510  31.2093632
  36.9762360  88.0782081  32.1799620  38.1116063  88.5048757  33.5914462
  37.8533841  89.4265828  33.5898792  37.5801103  88.1079192  34.2814926
  43.0562251 101.6099544  26.3704547  43.2299129 101.0445967  25.6178400
  43.5491143 102.4100439  26.1884037  28.8739211  93.6214213  34.4368106
  28.3292679  94.3974021  34.5688380  29.7518561  93.9685018  34.2787227
  35.6626828  86.9525797  26.8148904  35.7842739  86.0242443  27.0139792
  35.3728870  86.9664483  25.9027220  38.5318018  84.6380708  29.9515624
  38.5539715  84.7020041  28.9967604  38.9486077  83.7985216  30.1456130
  48.9101643  94.3735967  27.9894847  49.3532789  93.6243292  27.5913970
  48.0328153  94.3646103  27.6068579  44.0437424 100.9266309  23.4701445
  44.7388329 101.5473001  23.6888760  44.3860574 100.0761660  23.7453823
  29.6605233  92.7484110  37.3298263  28.9186969  92.8966745  37.9162893
  29.3397977  93.0092375  36.4665012  45.9428847  98.3766014  24.9988776
  46.4680171  98.7153287  24.2738096  45.8551200  97.4413029  24.8151911
  37.6048896 102.2900088  37.1278653  37.9136022 102.0449234  38.0001352
  38.4024378 102.4946726  36.6397523  37.6269508 104.4437997  29.3584029
  37.1874498 103.9514376  30.0516886  38.3777625 103.9010965  29.1176105
  30.1061847 100.6349538  29.3608657  30.9319867 100.3353310  28.9807301
  29.7555899  99.8657161  29.8098446  35.0743380  99.9876006  31.4306331
  34.4523389  99.3246711  31.1308559  35.7448247 100.0137138  30.7479979
  28.3070452  98.5535865  30.3197591  27.4702360  98.1258039  30.1381592
  28.2794097  98.7468308  31.2568382  35.1467907  88.4657794  41.0238837
  35.1956063  89.3419917  40.6416607  35.6890422  87.9235188  40.4510480
  45.6322753  99.0098918  40.3039974  44.8418297  98.9923057  39.7644473
  45.3956108  99.5487211  41.0589011  45.7520628  95.8591384  37.6172703
  45.8018633  95.6941392  38.5588225  45.6434552  94.9918643  37.2270583
  34.6356887  98.5379930  24.9064792  34.7845007  99.2215394  24.2531464
  35.4423330  98.5185020  25.4214247  43.0424391  91.8422312  38.9332009
  43.9434253  91.7028777  38.6416007  43.1172365  92.0076767  39.8730187
  37.3767196  89.2189167  37.7785196  36.5070505  89.5122733  37.5067784
  37.6126676  89.8029612  38.4992459  47.2538825  98.2788326  37.8614724
  46.9623633  98.6418306  38.6978185  46.6410956  97.5655334  37.6828056
  48.4534507  95.8441205  30.3817294  49.2881399  96.2831009  30.5454855
  48.5893636  95.3679859  29.5625540  45.5026013  93.4020940  36.3294782
  45.9780135  93.5948587  35.5213634  44.5791579  93.4580126  36.0838166
  32.3909520  94.5645107  25.9125860  32.1455562  93.6607437  26.1106071
  32.5605434  94.5662258  24.9705338  40.0806230  85.4368784  35.2950616
  40.5988174  86.1729811  34.9697105  39.7261363  85.7432777  36.1297375
  31.6605167  90.2973465  23.4112022  30.9674412  90.3717820  22.7552058
  31.4156919  89.5333809  23.9333539  40.3318824  81.8569066  30.8151513
  40.6120578  81.1892255  31.4411939  41.1169431  82.0498162  30.3026176
  38.1352292 101.0328060  22.3776539  37.5626259 101.6518247  21.9247011
  38.7085086 101.5827422  22.9116461  44.2027682  90.2786700  34.5623088
  45.1545105  90.3784798  34.5835312  44.0331133  89.4864969  35.0721172
  42.2242062  87.3642284  34.7482489  41.6291994  87.6447296  34.0528977
  41.9391758  87.8536184  35.5199230  41.3549552 101.3165210  23.5085121
  42.2880225 101.2510772  23.7117997  41.2672765 102.1521477  23.0499654
  43.9837569 100.6331081  20.4689069  43.9051200 100.2990944  21.3624827
  44.8047236 101.1252849  20.4680541  46.6815760  93.4992820  33.6765387
  46.6492080  92.5608821  33.8625071  47.2916384  93.5776857  32.9431212
  38.5199091  92.3688873  19.7192591  39.4658196  92.2395081  19.7881009
  38.1413336  91.6303535  20.1962020  46.8310249  90.2903863  33.7223671
  46.3149297  89.5062320  33.5353599  47.7150197  89.9622580  33.8870190
  44.4920975  84.0344879  29.6819483  44.2945797  83.7259967  30.5662815
  45.1020681  84.7606518  29.8117413  52.4992310  94.5608827  32.8171424
  53.2295698  94.2994115  33.3779127  51.8899255  93.8237549  32.8573492
  50.5807607  92.7016689  33.4145875  49.8540771  92.5672654  32.8062367
  50.1654894  93.0093518  34.2202593  38.4037783  96.4206619  41.1793248
  39.3240793  96.5985218  41.3733295  38.3687366  95.4762664  41.0272948
  36.7042008  90.2938849  19.6547477  35.7973463  89.9971962  19.7310190
  36.9817989  89.9968667  18.7881763  27.6219948  91.6145213  30.1046523
  27.3022733  90.7610521  29.8120897  27.0753377  91.8293791  30.8604490
  31.3999856  94.3307654  33.8216030  31.6185866  95.2624762  33.8404063
  31.8125630  93.9715628  34.6070833  38.3204074  84.8375739  25.8091718
  37.5104802  84.4922824  26.1846964  39.0088491  84.5283283  26.3979330
  40.2494622  83.9153786  27.4316015  40.8025661  84.3349239  28.0906038
  40.4864708  82.9889534  27.4738971  36.2727721  89.9040860  43.2118778
  36.1724448  90.8535217  43.1430870  36.0549263  89.5759098  42.3394849
  35.4740793  87.1525785  19.7959456  36.3359957  87.4780683  20.0555273
  35.6591137  86.3657280  19.2832522  27.4908208  95.2348124  32.0739645
  26.7971680  94.8202077  31.5609599  28.2381199  95.2768661  31.4773064
  43.6273429  86.0254311  26.9394679  43.0472098  86.6839115  26.5572731
  43.3609362  85.2031656  26.5282096  42.0776996  85.4259369  29.1415999
  42.5776774  85.5375903  28.3330318  42.7212603  85.1220422  29.7816808
  36.1358991  93.3337998  42.0283840  35.6526073  94.1338358  42.2347729
  36.2219930  93.3445943  41.0751284  29.4044951  95.1666378  29.9505659
  29.3815639  95.2654065  28.9987543  29.7145587  96.0131529  30.2722826
  32.0632329  97.2242533  34.0652274  33.0175582  97.1926475  33.9982205
  31.8644852  96.7633157  34.8802500  32.6531711  95.7943649  36.6323072
  33.4724600  96.2887728  36.6557909  32.9268519  94.8775617  36.6040639
  42.4098307  88.1854401  25.9951027  41.5224162  88.4704052  25.7771222
  42.8252296  88.0248165  25.1478304  45.7612843  88.2100922  29.7105366
  46.5373233  88.6997375  29.9829983  45.0360977  88.6358977  30.1677236
  48.1985402  88.9228542  30.7679307  48.7929893  88.6824278  30.0572615
  48.2711986  88.2035672  31.3952843  30.4182558 102.7662153  31.0822472
  30.2837026 102.0062553  30.5160470  30.0014620 103.4903052  30.6151261
  41.5541521  97.9499076  20.0899047  42.2577371  98.1549079  20.7056703
  40.8304169  98.5175838  20.3548131  42.3839331  93.7008937  26.2101317
  42.3274532  94.1577489  25.3708950  42.9367673  92.9399622  26.0324160
  46.1944137  89.4898669  27.0351437  45.9381071  89.0895305  27.8659644
  45.5697005  90.2042463  26.9101576  50.5056475  92.2294742  29.5422728
  49.9456033  92.2987932  30.3154290  49.8999978  92.0535727  28.8222224
  33.5751684 103.6631470  31.2940914  33.4584068 104.6076902  31.1919605
  32.7544130 103.3605031  31.6826714  43.4628218  98.3881605  22.1397507
  44.2973822  97.9562804  21.9574982  43.3012561  98.2163619  23.0674402
  43.1174110  94.8913719  23.5053846  43.0622914  94.7257990  22.5642291
  42.4920166  95.5989752  23.6616036  27.9066625  90.1281783  37.3315269
  28.5525489  89.6180737  37.8202494  27.6983776  90.8650465  37.9058694
  40.4320017  97.1962630  42.8307409  41.3011177  97.3703283  42.4694044
  39.9526769  98.0157047  42.7083139  36.4270236  84.3921828  23.0839165
  36.4148906  85.3363668  23.2407436  37.3193658  84.2091973  22.7898626
  34.6006198 104.3159731  34.5096843  35.5033444 104.3483342  34.8263338
  34.3743568 103.3860182  34.5243179  36.3559800 103.0690718  31.1706921
  35.4055431 103.0692580  31.0571294  36.6592286 102.3223453  30.6542956
  40.2422355  80.9864604  27.3385102  39.4754751  80.4323091  27.4841784
  40.6533060  81.0586473  28.1999253  32.2464116  87.2749400  41.4290283
  33.1095578  86.9186205  41.6393607  31.6729527  86.9363295  42.1165687
  52.0912493 108.9051256  32.2352684  52.7290903 108.7858004  31.5316024
  51.9733336 109.8532100  32.2940636  48.9002199 108.8578685  32.1714209
  48.5620711 108.7419749  31.2834743  49.7691968 108.4569850  32.1515215
  44.7589015 110.7114161  28.1611100  44.1953880 110.6204098  27.3927387
  44.6441410 109.8914065  28.6413592  49.3821982 110.0113536  38.1300414
  49.3710623 109.6166335  37.2580918  49.5442622 109.2779609  38.7234186
  42.3053447 112.2065353  30.9995320  43.0974739 111.8656177  30.5841619
  42.5450097 112.3160328  31.9197473  50.3388574 114.3785129  23.4725564
  49.6876554 114.9639209  23.0859578  51.1332937 114.9091324  23.5320602
  44.2644201 111.4674266  23.8712699  45.0375077 110.9203253  23.7325575
  44.6169600 112.3318515  24.0827160  46.1029244 112.7950648  37.0779598
  45.8119110 113.6996279  36.9626264  46.7386228 112.8367176  37.7923668
  47.0285450 110.1727497  33.6680958  47.6249023 109.9483519  32.9537921
  47.0860422 109.4312242  34.2706406  46.6010479 107.6266932  21.5031149
  46.8535999 107.1048453  20.7414612  45.6635038 107.4633077  21.6057832
  51.6453762 106.6302710  29.3105892  52.4316851 106.2122133  28.9596309
  51.9092466 107.5348802  29.4787540  51.8163839 112.0675561  24.0094549
  51.1809672 112.1410187  24.7215453  51.4861245 112.6569159  23.3313628
  57.0462189 106.5677943  30.2138870  57.7787361 105.9977160  30.4476700
  56.2901544 106.1799544  30.6545376  46.3206768 109.5295038  23.7055524
  46.2043026 108.8539941  24.3736608  46.4309027 109.0427412  22.8887677
  48.6638308 108.9905185  27.4102213  48.2996516 108.4635806  28.1215134
  49.5205424 108.6003654  27.2368698  54.5687609 100.2799518  34.6733479
  54.2370934 101.1494929  34.4494694  53.9733222  99.9635802  35.3527509
  48.3043795 104.0195085  22.4063561  48.4718198 104.8875321  22.7734032
  48.1140965 104.1822366  21.4824851  51.0619129 112.4812064  34.0729392
  50.7619852 113.3837102  33.9645199  50.7170188 112.2144247  34.9250545
  44.5131610 108.9325860  30.1066096  43.5882107 108.8002075  30.3143788
  44.7616023 109.7120080  30.6036039  54.4616272 104.9994604  31.7526829
  53.5533150 104.9310012  31.4585590  54.4103868 105.4766549  32.5808655
  48.2833016 106.4752742  23.3910228  48.1632642 106.9209793  24.2295709
  47.5885605 106.8238060  22.8323766  41.8740421 108.5759134  30.9409885
  42.0032802 108.8293613  31.8549297  41.1937872 109.1686842  30.6214540
  46.0439908 119.2456384  27.0400359  45.9663938 120.1964209  27.1188840
  45.4401552 118.9002256  27.6975286  48.5357138 106.4184249  39.6961726
  47.7590472 106.9778169  39.6864591  49.1747701 106.9041032  40.2176596
  56.3277919 103.2011042  33.5304703  55.6852299 103.4943575  32.8844498
  55.8232847 103.0863962  34.3357900  53.9818082 106.9474215  24.2190562
  54.8935939 107.1801602  24.0438260  53.4727730 107.5311260  23.6565641
  46.7903511 109.2269703  39.2579693  47.5318195 109.7654747  38.9814517
  46.0840496 109.8535991  39.4151245  52.2658850 111.3698843  37.8551855
  52.6742206 110.9281254  37.1106487  51.5436112 110.7951471  38.1086048
  48.6189920 106.3071450  35.2285412  49.4651115 106.7310863  35.3720061
  48.5588558 105.6505074  35.9223975  52.5887665 111.9300034  31.6104144
  51.9596527 112.0945748  30.9080212  52.2013327 112.3441643  32.3815108
  56.4676897 112.8654472  28.9648507  55.7827935 113.2453373  28.4145541
  56.5520746 113.4749798  29.6980455  51.7689366 103.9675818  36.8866585
  51.5250297 104.7217879  36.3500861  52.0449296 104.3461166  37.7213832
  53.7227828 110.5114431  35.5643851  53.9344724 111.1546191  34.8878232
  53.6757577 109.6776747  35.0965781  51.3254057 103.1232251  32.4680423
  50.4638536 103.4213505  32.7597161  51.3516492 103.3402650  31.5361456
  48.1415627 111.6674442  28.8754229  48.6053972 111.9462145  28.0858851
  47.8772425 110.7657886  28.6927320  45.0339708 111.2145923  31.8133992
  45.6041065 111.6433192  31.1751477  45.6247820 110.9328508  32.5118178
  47.0784513 107.7897594  25.6843794  47.7808556 108.2418638  26.1517720
  46.7465141 107.1481413  26.3123687  45.5264874 106.3809351  40.0595003
  44.8963535 107.0625632  40.2930400  45.4200962 106.2692432  39.1148142
  40.8209847 106.0481147  30.9860928  40.0308901 106.3038675  30.5101038
  41.3121094 106.8629485  31.0912968  54.8373656 113.3886386  33.7366208
  55.6591100 112.9866573  33.4548890  54.8336059 113.2854620  34.6882324
  42.7724592 106.4125726  27.9444404  41.9755755 106.5244420  28.4627900
  42.5450184 106.7512378  27.0785295  48.6030260 112.9370429  35.8926919
  48.6674692 113.3990837  36.7285091  47.8941184 112.3067794  36.0209229
  39.1047550 106.3011637  33.4175918  39.3555588 107.1858647  33.6833494
  39.6407098 106.1216239  32.6451010  62.9279649 109.7325135  30.0851180
  62.1743358 109.1632533  29.9295184  63.0627191 109.6987799  31.0321815
  48.3178277 114.6038537  25.7605899  48.1823952 115.4490073  26.1890747
  48.8588090 114.8057815  24.9971833  44.8045617 100.6830117  42.4220254
  44.4112563 100.1296315  43.0967899  45.6211757 100.9940695  42.8126772
  41.7707675 112.1213975  26.3333824  42.2832195 112.9157225  26.4839389
  42.4230388 111.4240265  26.2667426  43.5802559 115.2379731  28.4156577
  43.7569188 116.1597696  28.2277561  44.3759393 114.9238150  28.8450957
  47.7213578 102.0987996  40.0140511  48.4623291 102.6995149  39.9344973
  47.9531501 101.3565634  39.4558554  42.8654916 107.2844363  38.2918741
  42.7508431 106.3829620  38.5925840  42.0099434 107.5308060  37.9403557
  49.9446754 115.2262103  39.8906241  49.5010608 114.4398482  39.5727146
  50.6063967 115.4141254  39.2250132  44.7033875 116.7557905  34.4166920
  45.2541300 116.6274968  33.6443914  43.8645351 117.0552794  34.0661813
  52.0427992 115.5064903  37.9187643  52.0246467 116.3273784  37.4267912
  52.9647912 115.3818979  38.1437784  48.5001046 113.0209033  38.7611151
  49.0329383 112.2597321  38.5310459  47.9715127 112.7282685  39.5035305
  51.6670741  98.1269099  34.2904793  51.3235010  99.0170740  34.2143903
  52.0349704  97.9370756  33.4274378  39.7356592 110.4502629  27.1093395
  40.5731814 110.8599638  26.8927103  39.9134859 109.5102071  27.0793589
  51.6321024 108.1177710  22.7977228  51.1167647 108.8882315  23.0365615
  51.3598332 107.4442846  23.4210289  49.2168135 102.9627411  27.8562466
  48.3609731 102.5734261  27.6768105  49.6295086 103.0419371  26.9962252
  50.7467281 100.4973754  32.2554026  50.2432077 100.4603889  31.4421831
  51.0397888 101.4066497  32.3150683  46.9910167 100.5812484  31.2620208
  47.8563164 100.3855292  30.9026097  47.0587676 100.3522835  32.1889564
  56.6055298 110.8710065  24.7330401  55.8284741 110.5321224  24.2885563
  57.2846779 110.8762688  24.0585366  51.4207327 105.9904802  24.6237009
  51.1157462 106.3050951  25.4747152  52.3737769 106.0686222  24.6664342
  49.8653759 112.1495025  26.2729963  49.3375120 111.4147785  25.9603200
  49.3641261 112.9269702  26.0269931  54.8446605 110.3444046  31.3897009
  54.1870279 111.0343307  31.4777138  55.6487004 110.7340478  31.7330996
  44.5972486 102.8114692  28.6336574  45.1716238 102.5889873  27.9009767
  45.1843469 102.8803386  29.3865176  53.6552063 108.6988418  29.4400951
  54.1683945 109.3318410  29.9422661  54.3053287 108.0989614  29.0744311
  44.9242073 104.8419153  22.6532460  44.0879386 105.1793839  22.9741734
  44.7846843 104.7068132  21.7159597  46.8995154  99.6855940  27.3611644
  46.2459566  99.3704958  26.7368259  46.8575628  99.0631681  28.0871467
  48.0106359 109.9675236  19.2764936  47.1033421 109.7364489  19.4756085
  48.5077391 109.1712855  19.4638918  50.9174438 118.6772743  22.1961622
  50.2436136 118.9804439  22.8046580  51.3040260 119.4801823  21.8467079
  50.1332894 106.1737874  31.6859292  49.2155456 106.3952821  31.5280980
  50.5493038 106.2484184  30.8270999  50.9167942 107.5729290  26.8161972
  51.6639761 108.0850687  26.5069094  51.1859532 107.2513342  27.6766365
  49.1894592 110.0687830  23.7988926  48.2805812 109.7846863  23.8961396
  49.2189676 110.4886909  22.9392233  54.4213860 113.6794420  27.5680094
  53.9676187 112.8385330  27.6245284  53.7907826 114.3155818  27.9054874
  53.3646779 104.6086406  28.7980761  52.6269536 104.0963792  29.1291004
  53.6173553 104.1686788  27.9864038  52.8646799 115.5170917  28.5029912
  53.1569773 116.0775974  27.7842277  53.3745420 115.8099478  29.2583071
  53.4658407  97.3862658  29.3922530  53.7717283  96.5260021  29.1048445
  54.1911011  97.9780278  29.1921524  39.7582763 107.7893345  27.7804128
  39.5607162 107.1962705  27.0555195  39.2029427 107.4845555  28.4980067
  47.7379486 107.6816451  29.8998721  47.7928096 106.7290287  29.8241198
  46.9270688 107.8375890  30.3840020  48.8870680 111.6096574  21.1377005
  48.4490110 110.8932433  20.6782642  49.6281121 111.8372689  20.5762096
  45.6771846 106.2993511  27.6589100  44.8639712 106.5987681  28.0654292
  46.1730840 105.9049200  28.3763583  47.8280424 116.2951268  29.5923365
  47.7856603 116.5212114  28.6631897  48.7443123 116.0614642  29.7409166
  51.2746058 106.7635335  36.4903994  51.6295446 106.9906808  37.3498460
  51.9218189 107.0953712  35.8681249  57.0043795 109.8853771  27.1953323
  56.8661693 110.0755367  26.2674512  56.6480014 110.6473154  27.6521374
  45.1685921 103.8711866  33.2750335  45.8085300 103.7300625  32.5773299
  44.3363452 103.5846380  32.8988937  57.0313174 111.9530298  32.2064595
  57.4649681 111.8605587  33.0547649  57.7444755 111.9287799  31.5684611
  45.9446225 113.1714297  29.3885328  46.7386823 112.6764617  29.1867903
  45.2337917 112.6432160  29.0253033  50.7641069 115.5532392  33.7397695
  50.8178092 116.1223329  34.5075411  49.8955851 115.7234277  33.3751732
  42.2528988 107.3157378  25.4645080  41.3226576 107.2541834  25.6815042
  42.3486460 106.7933331  24.6681722  42.1714537 103.8412191  28.0523322
  42.4321355 104.7557525  27.9432482  42.9931710 103.3736634  28.2019935
  43.6439463 105.2549948  35.2222147  44.3162516 105.0467311  34.5734795
  42.8169249 105.0572034  34.7827379  57.8928724 111.9953999  34.7397480
  58.0864614 112.8999809  34.9856755  57.7929342 111.5361418  35.5736065
  49.5465035 101.8811889  37.2387807  48.8992950 102.5801839  37.1452284
  50.3166050 102.3148033  37.6064056  52.9543833 112.1460742  40.3138361
  52.8029339 111.9171293  39.3968444  52.9448512 113.1031343  40.3269706
  49.7229169 109.7192654  35.2984627  50.6521229 109.8703814  35.1253594
  49.3020199 109.8076675  34.4433274  48.5217501 113.7443319  33.0683165
  48.3828587 113.3762103  33.9409103  47.7332097 114.2590958  32.8967123
  49.1165653 118.8452415  24.4108701  49.2917409 118.3740458  25.2254324
  48.4298441 119.4718181  24.6389962  50.0722716 113.1224921  30.4572003
  49.7372549 113.0825691  31.3529652  49.5726662 112.4569637  29.9842413
  44.0466960 108.5292551  35.9824584  43.9086758 107.7972790  36.5836123
  44.9571883 108.4401452  35.7008771  53.0081908 110.4680956  20.7309062
  52.3911078 109.7427784  20.6342115  52.5398396 111.2290316  20.3876136
  46.6749261 108.2412511  35.4708263  47.3848879 107.6005703  35.4294882
  46.6318569 108.4925406  36.3934444  54.6636039 115.1779864  38.3914843
  54.6048586 114.4939084  37.7245426  55.0655558 115.9198854  37.9395469
  45.3878195 105.2277729  37.2903903  44.8515552 104.7768467  37.9425499
  44.7994903 105.3623637  36.5474367  43.6826738 121.9941778  31.1848561
  43.9223336 122.6260302  31.8627580  42.8395935 121.6429818  31.4713921
  44.7980454 104.6866380  19.8530366  43.9209920 104.5655181  19.4892613
  45.2738207 103.8952458  19.6009255  54.6653447 113.1419448  36.6228822
  53.7780225 112.8045370  36.7455221  55.2351998 112.4102479  36.8597588
  36.3182594 109.4743540  29.9471874  37.0053634 109.1605270  29.3592889
  36.1630722 110.3784904  29.6739125  41.1217316 104.3633736  34.3756897
  41.0375505 103.7559406  33.6407307  40.3000022 104.8542755  34.3766394
  48.1954600 117.8020900  33.5890065  48.1224772 118.6075872  34.1009370
  47.7531993 118.0012866  32.7638087  47.9844380 117.0392670  27.0992887
  47.2011902 117.5814351  27.1931112  48.6837125 117.5566650  27.4987128
  51.2941030 102.8487300  29.7427092  51.7909729 102.0957262  29.4228163
  50.5228011 102.8851617  29.1770302  59.1470787 108.5527665  31.3845384
  59.1360663 109.4352381  31.0139317  58.2788167 108.1999216  31.1899921
  50.6553284 117.7007734  35.7448224  51.3681256 118.3355199  35.6724126
  50.1643312 117.7971600  34.9288226  52.3770810 111.6058987  27.3165516
  51.4427089 111.7260450  27.1470220  52.5547479 110.7031454  27.0525526
  47.8775999 104.9904683  29.4698777  47.5073786 104.4375723  30.1579683
  48.3735091 104.3862816  28.9173777  55.7643362 107.4476306  27.8515550
  56.2303814 108.2804298  27.7775853  56.2150862 106.9821288  28.5560808
  45.7065197 115.4502178  36.5653795  46.4074657 116.0838661  36.7183189
  45.2360312 115.7916909  35.8049434  53.8319593 113.7920128  24.8501702
  54.1079437 113.6776722  25.7595576  52.9624092 113.3937612  24.8113875
  53.7360025  99.8156893  31.8906451  52.8223104 100.0461120  32.0588658
  54.1653126  99.8995337  32.7420484  53.5066483 108.0046785  34.3906345
  52.8537933 108.2522693  33.7358798  53.8846863 107.1910923  34.0568823
  50.4673657 118.0406478  28.4934516  50.6496051 117.2228134  28.9562268
  51.2906643 118.2574171  28.0559406  50.8015822 116.9674664  25.7549564
  51.3303589 116.4567118  25.1419726  51.0644042 116.6517194  26.6195097
  49.5554056 108.7466596  40.8772382  48.8794693 108.6460726  41.5474758
  50.3781690 108.5905810  41.3408380  41.3032915 114.9838533  33.4984898
  41.8886352 114.2382221  33.6312802  41.1057754 115.2942490  34.3821562
  44.1571570 118.0189780  28.5147340  43.4881946 118.5035908  28.0311380
  44.0184440 118.2659001  29.4290719  35.8950570 107.5544133  32.2189341
  35.9334669 107.0207724  33.0126459  35.3890863 107.0279339  31.6000318
  48.2976839 120.0533524  35.1129998  48.8495147 120.2165145  35.8779084
  48.6383032 120.6437962  34.4410023  43.2741332 102.4008674  35.7151883
  43.3382659 103.2623505  35.3029281  43.2108452 101.7882675  34.9824242
  42.7493605 104.4731806  39.3624917  43.3765644 104.0908883  39.9762442
  41.8921524 104.2546008  39.7280610  53.1487713 114.8794781  40.9678653
  53.6927617 115.4924740  40.4733608  52.5674558 115.4374360  41.4845666
  39.5259147 106.2808235  25.2943272  39.8212589 105.3718914  25.2410326
  38.6247183 106.2595975  24.9724275  51.4345226 118.0015499  32.0993681
  51.3096366 117.2005239  31.5904626  52.0924317 118.4961693  31.6107650
  43.0553394 104.3564232  31.2770821  42.3339980 104.9700200  31.1378294
  43.8446650 104.8921997  31.1987467  53.4980135 115.8024519  33.7273231
  52.5510470 115.6829871  33.6551557  53.8462908 114.9147017  33.8099492
  45.8579708 101.6918658  37.5511473  46.3814110 101.9380955  38.3137782
  45.6392041 102.5238693  37.1314610  41.2546989 103.9622333  25.4182597
  40.9259695 103.0819712  25.2357703  41.6086360 103.9070002  26.3058987
  50.5026568 115.5977236  29.9277583  50.3551530 114.6693943  30.1085153
  51.3280061 115.6197326  29.4434658  44.3688812 104.2495303  25.7858075
  44.7084885 104.7781224  25.0636683  44.8160933 104.5875709  26.5616642
  54.1060690 116.4205794  31.0142456  55.0307237 116.2148656  30.8766907
  53.9375993 116.1722196  31.9231797  47.0632253 102.6332353  35.2361143
  46.7229073 101.8340167  35.6381823  46.3571259 102.9334064  34.6637976
  47.7148725  99.7181666  33.6888466  48.5374794  99.2442144  33.5667356
  47.9586788 100.4972150  34.1887152  46.3556959 102.7469924  23.9851368
  47.0765322 103.1251177  23.4815085  45.7322263 103.4658801  24.0886346
  50.4988082 103.4515073  24.9209700  50.7151697 104.3339711  24.6198528
  50.0182149 103.0601287  24.1915342  45.2387304 106.4100787  31.4980445
  45.0931884 106.7241090  32.3904726  44.7612507 107.0285687  30.9451343
  47.0983686 103.4003335  31.5461334  47.0845255 102.5044428  31.2093632
  47.8156115 103.4073998  32.1799620  48.9509817 103.8340675  33.5914462
  48.6927595 104.7557745  33.5898792  48.4194858 103.4371109  34.2814926
  53.8956006 116.9391462  26.3704547  54.0692883 116.3737884  25.6178400
  54.3884897 117.7392357  26.1884037  39.7132966 108.9506131  34.4368106
  39.1686434 109.7265939  34.5688380  40.5912316 109.2976935  34.2787227
  46.5020582 102.2817715  26.8148904  46.6236494 101.3534361  27.0139792
  46.2122625 102.2956401  25.9027220  49.3711773  99.9672625  29.9515624
  49.3933470 100.0311958  28.9967604  49.7879832  99.1277134  30.1456130
  59.7495397 109.7027885  27.9894847  60.1926543 108.9535210  27.5913970
  58.8721907 109.6938021  27.6068579  54.8831178 116.2558226  23.4701445
  55.5782083 116.8764919  23.6888760  55.2254329 115.4053577  23.7453823
  40.4998988 108.0776027  37.3298263  39.7580724 108.2258663  37.9162893
  40.1791732 108.3384293  36.4665012  56.7822602 113.7057932  24.9988776
  57.3073926 114.0445205  24.2738096  56.6944954 112.7704947  24.8151911
  48.4442650 117.6192005  37.1278653  48.7529777 117.3741152  38.0001352
  49.2418132 117.8238644  36.6397523  48.4663262 119.7729915  29.3584029
  48.0268253 119.2806294  30.0516886  49.2171379 119.2302883  29.1176105
  40.9455601 115.9641456  29.3608657  41.7713621 115.6645228  28.9807301
  40.5949653 115.1949078  29.8098446  45.9137134 115.3167924  31.4306331
  45.2917144 114.6538629  31.1308559  46.5842001 115.3429056  30.7479979
  39.1464206 113.8827782  30.3197591  38.3096115 113.4549957  30.1381592
  39.1187852 114.0760226  31.2568382  45.9861662 103.7949712  41.0238837
  46.0349817 104.6711835  40.6416607  46.5284176 103.2527105  40.4510480
  56.4716508 114.3390835  40.3039974  55.6812051 114.3214974  39.7644473
  56.2349862 114.8779129  41.0589011  56.5914383 111.1883302  37.6172703
  56.6412388 111.0233309  38.5588225  56.4828306 110.3210561  37.2270583
  45.4750641 113.8671847  24.9064792  45.6238762 114.5507312  24.2531464
  46.2817085 113.8476938  25.4214247  53.8818145 107.1714230  38.9332009
  54.7828008 107.0320695  38.6416007  53.9566120 107.3368685  39.8730187
  48.2160950 104.5481085  37.7785196  47.3464260 104.8414651  37.5067784
  48.4520431 105.1321530  38.4992459  58.0932580 113.6080243  37.8614724
  57.8017388 113.9710224  38.6978185  57.4804711 112.8947252  37.6828056
  59.2928262 111.1733123  30.3817294  60.1275153 111.6122927  30.5454855
  59.4287391 110.6971776  29.5625540  56.3419768 108.7312858  36.3294782
  56.8173889 108.9240504  35.5213634  55.4185333 108.7872044  36.0838166
  43.2303274 109.8937025  25.9125860  42.9849316 108.9899355  26.1106071
  43.3999189 109.8954176  24.9705338  50.9199984 100.7660701  35.2950616
  51.4381928 101.5021728  34.9697105  50.5655117 101.0724695  36.1297375
  42.4998922 105.6265383  23.4112022  41.8068167 105.7009738  22.7552058
  42.2550674 104.8625726  23.9333539  51.1712578  97.1860984  30.8151513
  51.4514332  96.5184173  31.4411939  51.9563185  97.3790080  30.3026176
  48.9746047 116.3619978  22.3776539  48.4020014 116.9810165  21.9247011
  49.5478841 116.9119340  22.9116461  55.0421437 105.6078618  34.5623088
  55.9938860 105.7076716  34.5835312  54.8724887 104.8156887  35.0721172
  53.0635816 102.6934201  34.7482489  52.4685748 102.9739214  34.0528977
  52.7785513 103.1828102  35.5199230  52.1943307 116.6457128  23.5085121
  53.1273980 116.5802690  23.7117997  52.1066520 117.4813395  23.0499654
  54.8231323 115.9622998  20.4689069  54.7444955 115.6282862  21.3624827
  55.6440990 116.4544766  20.4680541  57.5209515 108.8284738  33.6765387
  57.4885835 107.8900738  33.8625071  58.1310138 108.9068774  32.9431212
  49.3592845 107.6980791  19.7192591  50.3051950 107.5686999  19.7881009
  48.9807090 106.9595453  20.1962020  57.6704003 105.6195781  33.7223671
  57.1543052 104.8354238  33.5353599  58.5543952 105.2914498  33.8870190
  55.3314730  99.3636797  29.6819483  55.1339551  99.0551885  30.5662815
  55.9414436 100.0898436  29.8117413  63.3386064 109.8900745  32.8171424
  64.0689453 109.6286033  33.3779127  62.7293010 109.1529466  32.8573492
  61.4201362 108.0308607  33.4145875  60.6934525 107.8964572  32.8062367
  61.0048648 108.3385436  34.2202593  49.2431538 111.7498537  41.1793248
  50.1634547 111.9277136  41.3733295  49.2081121 110.8054582  41.0272948
  47.5435763 105.6230767  19.6547477  46.6367218 105.3263880  19.7310190
  47.8211744 105.3260585  18.7881763  38.4613703 106.9437130  30.1046523
  38.1416487 106.0902439  29.8120897  37.9147131 107.1585709  30.8604490
  42.2393610 109.6599571  33.8216030  42.4579620 110.5916679  33.8404063
  42.6519384 109.3007546  34.6070833  49.1597828 100.1667657  25.8091718
  48.3498557  99.8214742  26.1846964  49.8482245  99.8575201  26.3979330
  51.0888377  99.2445704  27.4316015  51.6419415  99.6641157  28.0906038
  51.3258463  98.3181452  27.4738971  47.1121476 105.2332777  43.2118778
  47.0118203 106.1827134  43.1430870  46.8943018 104.9051016  42.3394849
  46.3134547 102.4817702  19.7959456  47.1753711 102.8072601  20.0555273
  46.4984891 101.6949198  19.2832522  38.3301963 110.5640042  32.0739645
  37.6365434 110.1493995  31.5609599  39.0774954 110.6060578  31.4773064
  54.4667184 101.3546229  26.9394679  53.8865853 102.0131033  26.5572731
  54.2003116 100.5323573  26.5282096  52.9170750 100.7551286  29.1415999
  53.4170528 100.8667821  28.3330318  53.5606358 100.4512339  29.7816808
  46.9752746 108.6629916  42.0283840  46.4919828 109.4630276  42.2347729
  47.0613685 108.6737861  41.0751284  40.2438705 110.4958296  29.9505659
  40.2209394 110.5945983  28.9987543  40.5539342 111.3423447  30.2722826
  42.9026083 112.5534451  34.0652274  43.8569337 112.5218393  33.9982205
  42.7038607 112.0925075  34.8802500  43.4925465 111.1235567  36.6323072
  44.3118354 111.6179645  36.6557909  43.7662273 110.2067535  36.6040639
  53.2492062 103.5146319  25.9951027  52.3617917 103.7995970  25.7771222
  53.6646051 103.3540082  25.1478304  56.6006598 103.5392840  29.7105366
  57.3766988 104.0289293  29.9829983  55.8754732 103.9650894  30.1677236
  59.0379156 104.2520459  30.7679307  59.6323647 104.0116195  30.0572615
  59.1105740 103.5327590  31.3952843  41.2576312 118.0954070  31.0822472
  41.1230780 117.3354471  30.5160470  40.8408374 118.8194970  30.6151261
  52.3935275 113.2790994  20.0899047  53.0971125 113.4840996  20.7056703
  51.6697924 113.8467756  20.3548131  53.2233085 109.0300855  26.2101317
  53.1668287 109.4869406  25.3708950  53.7761428 108.2691540  26.0324160
  57.0337891 104.8190587  27.0351437  56.7774826 104.4187223  27.8659644
  56.4090759 105.5334381  26.9101576  61.3450229 107.5586660  29.5422728
  60.7849787 107.6279849  30.3154290  60.7393733 107.3827645  28.8222224
  44.4145438 118.9923387  31.2940914  44.2977822 119.9368820  31.1919605
  43.5937884 118.6896949  31.6826714  54.3021973 113.7173523  22.1397507
  55.1367576 113.2854721  21.9574982  54.1406315 113.5455537  23.0674402
  53.9567865 110.2205636  23.5053846  53.9016669 110.0549908  22.5642291
  53.3313920 110.9281669  23.6616036  38.7460380 105.4573701  37.3315269
  39.3919243 104.9472655  37.8202494  38.5377531 106.1942382  37.9058694
  51.2713772 112.5254548  42.8307409  52.1404932 112.6995200  42.4694044
  50.7920523 113.3448965  42.7083139  47.2663990  99.7213745  23.0839165
  47.2542660 100.6655585  23.2407436  48.1587412  99.5383891  22.7898626
  45.4399952 119.6451649  34.5096843  46.3427199 119.6775259  34.8263338
  45.2137322 118.7152100  34.5243179  47.1953554 118.3982636  31.1706921
  46.2449185 118.3984497  31.0571294  47.4986040 117.6515370  30.6542956
  51.0816110  96.3156522  27.3385102  50.3148505  95.7615009  27.4841784
  51.4926815  96.3878391  28.1999253  43.0857871 102.6041318  41.4290283
  43.9489332 102.2478123  41.6393607  42.5123281 102.2655213  42.1165687
  62.9306248 124.2343174  32.2352684  63.5684658 124.1149921  31.5316024
  62.8127091 125.1824018  32.2940636  59.7395954 124.1870602  32.1714209
  59.4014465 124.0711667  31.2834743  60.6085722 123.7861767  32.1515215
  55.5982770 126.0406079  28.1611100  55.0347635 125.9496016  27.3927387
  55.4835165 125.2205983  28.6413592  60.2215737 125.3405454  38.1300414
  60.2104378 124.9458252  37.2580918  60.3836376 124.6071527  38.7234186
  53.1447202 127.5357270  30.9995320  53.9368493 127.1948095  30.5841619
  53.3843852 127.6452245  31.9197473  61.1782328 129.7077046  23.4725564
  60.5270308 130.2931127  23.0859578  61.9726691 130.2383241  23.5320602
  55.1037955 126.7966183  23.8712699  55.8768831 126.2495171  23.7325575
  55.4563354 127.6610433  24.0827160  56.9422998 128.1242566  37.0779598
  56.6512864 129.0288197  36.9626264  57.5779982 128.1659093  37.7923668
  57.8679205 125.5019414  33.6680958  58.4642777 125.2775437  32.9537921
  57.9254176 124.7604160  34.2706406  57.4404233 122.9558850  21.5031149
  57.6929754 122.4340371  20.7414612  56.5028792 122.7924995  21.6057832
  62.4847516 121.9594628  29.3105892  63.2710605 121.5414051  28.9596309
  62.7486220 122.8640720  29.4787540  62.6557593 127.3967478  24.0094549
  62.0203426 127.4702105  24.7215453  62.3255000 127.9861077  23.3313628
  67.8855943 121.8969861  30.2138870  68.6181115 121.3269078  30.4476700
  67.1295299 121.5091462  30.6545376  57.1600522 124.8586956  23.7055524
  57.0436780 124.1831859  24.3736608  57.2702782 124.3719329  22.8887677
  59.5032063 124.3197103  27.4102213  59.1390270 123.7927724  28.1215134
  60.3599179 123.9295572  27.2368698  65.4081364 115.6091435  34.6733479
  65.0764688 116.4786846  34.4494694  64.8126977 115.2927719  35.3527509
  59.1437550 119.3487002  22.4063561  59.3111952 120.2167239  22.7734032
  58.9534719 119.5114284  21.4824851  61.9012883 127.8103981  34.0729392
  61.6013606 128.7129020  33.9645199  61.5563943 127.5436164  34.9250545
  55.3525365 124.2617778  30.1066096  54.4275861 124.1293992  30.3143788
  55.6009778 125.0411997  30.6036039  65.3010027 120.3286521  31.7526829
  64.3926904 120.2601930  31.4585590  65.2497623 120.8058466  32.5808655
  59.1226771 121.8044660  23.3910228  59.0026396 122.2501711  24.2295709
  58.4279359 122.1529978  22.8323766  52.7134176 123.9051052  30.9409885
  52.8426557 124.1585531  31.8549297  52.0331627 124.4978760  30.6214540
  56.8833663 134.5748302  27.0400359  56.8057693 135.5256127  27.1188840
  56.2795307 134.2294174  27.6975286  59.3750893 121.7476167  39.6961726
  58.5984227 122.3070087  39.6864591  60.0141456 122.2332950  40.2176596
  67.1671673 118.5302960  33.5304703  66.5246054 118.8235493  32.8844498
  66.6626602 118.4155880  34.3357900  64.8211837 122.2766133  24.2190562
  65.7329693 122.5093520  24.0438260  64.3121484 122.8603177  23.6565641
  57.6297265 124.5561620  39.2579693  58.3711949 125.0946664  38.9814517
  56.9234250 125.1827909  39.4151245  63.1052605 126.6990761  37.8551855
  63.5135961 126.2573171  37.1106487  62.3829866 126.1243388  38.1086048
  59.4583675 121.6363368  35.2285412  60.3044870 122.0602781  35.3720061
  59.3982312 120.9796992  35.9223975  63.4281419 127.2591951  31.6104144
  62.7990282 127.4237666  30.9080212  63.0407081 127.6733561  32.3815108
  67.3070651 128.1946389  28.9648507  66.6221689 128.5745291  28.4145541
  67.3914501 128.8041716  29.6980455  62.6083120 119.2967736  36.8866585
  62.3644052 120.0509797  36.3500861  62.8843051 119.6753084  37.7213832
  64.5621583 125.8406348  35.5643851  64.7738478 126.4838108  34.8878232
  64.5151331 125.0068665  35.0965781  62.1647812 118.4524169  32.4680423
  61.3032291 118.7505423  32.7597161  62.1910246 118.6694568  31.5361456
  58.9809381 126.9966360  28.8754229  59.4447727 127.2754063  28.0858851
  58.7166179 126.0949804  28.6927320  55.8733462 126.5437841  31.8133992
  56.4434819 126.9725109  31.1751477  56.4641574 126.2620426  32.5118178
  57.9178267 123.1189512  25.6843794  58.6202311 123.5710556  26.1517720
  57.5858896 122.4773331  26.3123687  56.3658629 121.7101269  40.0595003
  55.7357289 122.3917549  40.2930400  56.2594717 121.5984350  39.1148142
  51.6603601 121.3773065  30.9860928  50.8702655 121.6330593  30.5101038
  52.1514849 122.1921402  31.0912968  65.6767411 128.7178304  33.7366208
  66.4984854 128.3158491  33.4548890  65.6729814 128.6146538  34.6882324
  53.6118347 121.7417644  27.9444404  52.8149510 121.8536338  28.4627900
  53.3843939 122.0804296  27.0785295  59.4424014 128.2662347  35.8926919
  59.5068447 128.7282754  36.7285091  58.7334938 127.6359712  36.0209229
  49.9441304 121.6303555  33.4175918  50.1949343 122.5150565  33.6833494
  50.4800853 121.4508157  32.6451010  73.7673404 125.0617052  30.0851180
  73.0137112 124.4924450  29.9295184  73.9020945 125.0279717  31.0321815
  59.1572032 129.9330455  25.7605899  59.0217707 130.7781990  26.1890747
  59.6981844 130.1349732  24.9971833  55.6439371 116.0122034  42.4220254
  55.2506317 115.4588233  43.0967899  56.4605512 116.3232613  42.8126772
  52.6101429 127.4505893  26.3333824  53.1225950 128.2449143  26.4839389
  53.2624142 126.7532183  26.2667426  54.4196314 130.5671649  28.4156577
  54.5962942 131.4889614  28.2277561  55.2153147 130.2530068  28.8450957
  58.5607332 117.4279913  40.0140511  59.3017046 118.0287067  39.9344973
  58.7925255 116.6857551  39.4558554  53.7048670 122.6136281  38.2918741
  53.5902186 121.7121538  38.5925840  52.8493188 122.8599978  37.9403557
  60.7840508 130.5554021  39.8906241  60.3404362 129.7690400  39.5727146
  61.4457722 130.7433172  39.2250132  55.5427629 132.0849823  34.4166920
  56.0935055 131.9566886  33.6443914  54.7039105 132.3844712  34.0661813
  62.8821746 130.8356821  37.9187643  62.8640222 131.6565702  37.4267912
  63.8041666 130.7110896  38.1437784  59.3394800 128.3500950  38.7611151
  59.8723137 127.5889239  38.5310459  58.8108882 128.0574602  39.5035305
  62.5064495 113.4561016  34.2904793  62.1628765 114.3462658  34.2143903
  62.8743458 113.2662674  33.4274378  50.5750346 125.7794547  27.1093395
  51.4125568 126.1891555  26.8927103  50.7528614 124.8393989  27.0793589
  62.4714778 123.4469628  22.7977228  61.9561402 124.2174232  23.0365615
  62.1992087 122.7734764  23.4210289  60.0561889 118.2919328  27.8562466
  59.2003486 117.9026179  27.6768105  60.4688841 118.3711289  26.9962252
  61.5861036 115.8265672  32.2554026  61.0825831 115.7895807  31.4421831
  61.8791643 116.7358414  32.3150683  57.8303922 115.9104401  31.2620208
  58.6956918 115.7147210  30.9026097  57.8981431 115.6814753  32.1889564
  67.4449052 126.2001982  24.7330401  66.6678495 125.8613142  24.2885563
  68.1240533 126.2054605  24.0585366  62.2601081 121.3196720  24.6237009
  61.9551217 121.6342869  25.4747152  63.2131523 121.3978140  24.6664342
  60.7047513 127.4786943  26.2729963  60.1768875 126.7439703  25.9603200
  60.2035016 128.2561619  26.0269931  65.6840359 125.6735963  31.3897009
  65.0264034 126.3635225  31.4777138  66.4880758 126.0632395  31.7330996
  55.4366241 118.1406609  28.6336574  56.0109993 117.9181791  27.9009767
  56.0237223 118.2095304  29.3865176  64.4945818 124.0280336  29.4400951
  65.0077700 124.6610328  29.9422661  65.1447042 123.4281532  29.0744311
  55.7635828 120.1711070  22.6532460  54.9273140 120.5085757  22.9741734
  55.6240598 120.0360050  21.7159597  57.7388908 115.0147858  27.3611644
  57.0853321 114.6996875  26.7368259  57.6969383 114.3923599  28.0871467
  58.8500113 125.2967153  19.2764936  57.9427175 125.0656407  19.4756085
  59.3471145 124.5004772  19.4638918  61.7568192 134.0064660  22.1961622
  61.0829891 134.3096357  22.8046580  62.1434014 134.8093741  21.8467079
  60.9726649 121.5029792  31.6859292  60.0549210 121.7244739  31.5280980
  61.3886792 121.5776102  30.8270999  61.7561697 122.9021207  26.8161972
  62.5033516 123.4142605  26.5069094  62.0253286 122.5805260  27.6766365
  60.0288347 125.3979748  23.7988926  59.1199566 125.1138781  23.8961396
  60.0583431 125.8178827  22.9392233  65.2607614 129.0086338  27.5680094
  64.8069941 128.1677247  27.6245284  64.6301581 129.6447736  27.9054874
  64.2040534 119.9378324  28.7980761  63.4663291 119.4255710  29.1291004
  64.4567307 119.4978705  27.9864038  63.7040553 130.8462834  28.5029912
  63.9963528 131.4067891  27.7842277  64.2139174 131.1391395  29.2583071
  64.3052161 112.7154576  29.3922530  64.6111038 111.8551939  29.1048445
  65.0304766 113.3072196  29.1921524  50.5976517 123.1185262  27.7804128
  50.4000917 122.5254623  27.0555195  50.0423181 122.8137472  28.4980067
  58.5773241 123.0108369  29.8998721  58.6321851 122.0582205  29.8241198
  57.7664443 123.1667808  30.3840020  59.7264435 126.9388492  21.1377005
  59.2883865 126.2224351  20.6782642  60.4674875 127.1664607  20.5762096
  56.5165601 121.6285428  27.6589100  55.7033466 121.9279599  28.0654292
  57.0124595 121.2341117  28.3763583  58.6674179 131.6243185  29.5923365
  58.6250357 131.8504032  28.6631897  59.5836877 131.3906560  29.7409166
  62.1139812 122.0927253  36.4903994  62.4689200 122.3198726  37.3498460
  62.7611944 122.4245630  35.8681249  67.8437549 125.2145689  27.1953323
  67.7055448 125.4047285  26.2674512  67.4873768 125.9765072  27.6521374
  56.0079675 119.2003784  33.2750335  56.6479055 119.0592543  32.5773299
  55.1757206 118.9138297  32.8988937  67.8706929 127.2822216  32.2064595
  68.3043436 127.1897505  33.0547649  68.5838510 127.2579716  31.5684611
  56.7839979 128.5006214  29.3885328  57.5780578 128.0056535  29.1867903
  56.0731672 127.9724078  29.0253033  61.6034824 130.8824310  33.7397695
  61.6571846 131.4515246  34.5075411  60.7349605 131.0526195  33.3751732
  53.0922743 122.6449296  25.4645080  52.1620331 122.5833752  25.6815042
  53.1880215 122.1225249  24.6681722  53.0108292 119.1704109  28.0523322
  53.2715109 120.0849442  27.9432482  53.8325464 118.7028552  28.2019935
  54.4833217 120.5841866  35.2222147  55.1556271 120.3759228  34.5734795
  53.6563004 120.3863952  34.7827379  68.7322479 127.3245916  34.7397480
  68.9258369 128.2291727  34.9856755  68.6323097 126.8653336  35.5736065
  60.3858789 117.2103807  37.2387807  59.7386704 117.9093757  37.1452284
  61.1559805 117.6439951  37.6064056  63.7937587 127.4752659  40.3138361
  63.6423094 127.2463211  39.3968444  63.7842267 128.4323261  40.3269706
  60.5622924 125.0484572  35.2984627  61.4914984 125.1995732  35.1253594
  60.1413954 125.1368593  34.4433274  59.3611255 129.0735236  33.0683165
  59.2222341 128.7054021  33.9409103  58.5725852 129.5882876  32.8967123
  59.9559407 134.1744333  24.4108701  60.1311163 133.7032376  25.2254324
  59.2692195 134.8010099  24.6389962  60.9116471 128.4516839  30.4572003
  60.5766303 128.4117609  31.3529652  60.4120416 127.7861555  29.9842413
  54.8860715 123.8584469  35.9824584  54.7480512 123.1264708  36.5836123
  55.7965638 123.7693369  35.7008771  63.8475662 125.7972873  20.7309062
  63.2304833 125.0719702  20.6342115  63.3792151 126.5582234  20.3876136
  57.5143015 123.5704428  35.4708263  58.2242634 122.9297621  35.4294882
  57.4712323 123.8217323  36.3934444  65.5029794 130.5071782  38.3914843
  65.4442340 129.8231002  37.7245426  65.9049312 131.2490772  37.9395469
  56.2271949 120.5569646  37.2903903  55.6909306 120.1060385  37.9425499
  55.6388658 120.6915555  36.5474367  54.5220493 137.3233696  31.1848561
  54.7617091 137.9552220  31.8627580  53.6789689 136.9721736  31.4713921
  55.6374208 120.0158298  19.8530366  54.7603674 119.8947098  19.4892613
  56.1131961 119.2244376  19.6009255  65.5047201 128.4711366  36.6228822
  64.6173980 128.1337287  36.7455221  66.0745752 127.7394397  36.8597588
  47.1576348 124.8035457  29.9471874  47.8447388 124.4897187  29.3592889
  47.0024477 125.7076822  29.6739125  51.9611070 119.6925654  34.3756897
  51.8769259 119.0851324  33.6407307  51.1393777 120.1834672  34.3766394
  59.0348355 133.1312818  33.5890065  58.9618526 133.9367790  34.1009370
  58.5925748 133.3304784  32.7638087  58.8238134 132.3684588  27.0992887
  58.0405656 132.9106268  27.1931112  59.5230879 132.8858568  27.4987128
  62.1334784 118.1779218  29.7427092  62.6303484 117.4249180  29.4228163
  61.3621766 118.2143534  29.1770302  69.9864542 123.8819583  31.3845384
  69.9754418 124.7644298  31.0139317  69.1181921 123.5291134  31.1899921
  61.4947038 133.0299652  35.7448224  62.2075010 133.6647117  35.6724126
  61.0037067 133.1263518  34.9288226  63.2164565 126.9350905  27.3165516
  62.2820844 127.0552367  27.1470220  63.3941233 126.0323372  27.0525526
  58.7169753 120.3196601  29.4698777  58.3467541 119.7667641  30.1579683
  59.2128845 119.7154734  28.9173777  66.6037116 122.7768224  27.8515550
  67.0697568 123.6096216  27.7775853  67.0544617 122.3113206  28.5560808
  56.5458952 130.7794096  36.5653795  57.2468411 131.4130579  36.7183189
  56.0754067 131.1208827  35.8049434  64.6713347 129.1212045  24.8501702
  64.9473191 129.0068640  25.7595576  63.8017846 128.7229530  24.8113875
  64.5753779 115.1448811  31.8906451  63.6616859 115.3753038  32.0588658
  65.0046880 115.2287255  32.7420484  64.3460238 123.3338703  34.3906345
  63.6931688 123.5814610  33.7358798  64.7240617 122.5202841  34.0568823
  61.3067411 133.3698396  28.4934516  61.4889806 132.5520052  28.9562268
  62.1300397 133.5866088  28.0559406  61.6409577 132.2966581  25.7549564
  62.1697343 131.7859036  25.1419726  61.9037796 131.9809112  26.6195097
  60.3947811 124.0758514  40.8772382  59.7188448 123.9752643  41.5474758
  61.2175444 123.9197728  41.3408380  52.1426670 130.3130451  33.4984898
  52.7280106 129.5674138  33.6312802  51.9451508 130.6234407  34.3821562
  54.9965325 133.3481698  28.5147340  54.3275700 133.8327826  28.0311380
  54.8578195 133.5950918  29.4290719  46.7344324 122.8836051  32.2189341
  46.7728424 122.3499641  33.0126459  46.2284617 122.3571256  31.6000318
  59.1370593 135.3825441  35.1129998  59.6888901 135.5457063  35.8779084
  59.4776787 135.9729879  34.4410023  54.1135087 117.7300591  35.7151883
  54.1776413 118.5915422  35.3029281  54.0502207 117.1174593  34.9824242
  53.5887359 119.8023724  39.3624917  54.2159398 119.4200801  39.9762442
  52.7315278 119.5837926  39.7280610  63.9881468 130.2086699  40.9678653
  64.5321372 130.8216657  40.4733608  63.4068313 130.7666277  41.4845666
  50.3652902 121.6100153  25.2943272  50.6606343 120.7010831  25.2410326
  49.4640938 121.5887892  24.9724275  62.2738981 133.3307417  32.0993681
  62.1490120 132.5297157  31.5904626  62.9318072 133.8253610  31.6107650
  53.8947149 119.6856150  31.2770821  53.1733735 120.2992117  31.1378294
  54.6840405 120.2213914  31.1987467  64.3373889 131.1316437  33.7273231
  63.3904225 131.0121788  33.6551557  64.6856662 130.2438935  33.8099492
  56.6973462 117.0210576  37.5511473  57.2207864 117.2672873  38.3137782
  56.4785796 117.8530611  37.1314610  52.0940744 119.2914251  25.4182597
  51.7653450 118.4111630  25.2357703  52.4480114 119.2361919  26.3058987
  61.3420322 130.9269153  29.9277583  61.1945285 129.9985861  30.1085153
  62.1673816 130.9489244  29.4434658  55.2082567 119.5787220  25.7858075
  55.5478639 120.1073142  25.0636683  55.6554687 119.9167627  26.5616642
  64.9454444 131.7497712  31.0142456  65.8700992 131.5440573  30.8766907
  64.7769748 131.5014113  31.9231797  57.9026008 117.9624271  35.2361143
  57.5622828 117.1632084  35.6381823  57.1965014 118.2625982  34.6637976
  58.5542479 115.0473584  33.6888466  59.3768549 114.5734062  33.5667356
  58.7980543 115.8264067  34.1887152  57.1950714 118.0761842  23.9851368
  57.9159076 118.4543095  23.4815085  56.5716018 118.7950719  24.0886346
  61.3381837 118.7806991  24.9209700  61.5545451 119.6631629  24.6198528
  60.8575904 118.3893204  24.1915342  56.0781058 121.7392704  31.4980445
  55.9325639 122.0533007  32.3904726  55.6006262 122.3577605  30.9451343
  57.9377441 118.7295252  31.5461334  57.9239010 117.8336345  31.2093632
  58.6549869 118.7365916  32.1799620  59.7903572 119.1632592  33.5914462
  59.5321350 120.0849663  33.5898792  59.2588612 118.7663027  34.2814926
  64.7349760 132.2683379  26.3704547  64.9086638 131.7029802  25.6178400
  65.2278652 133.0684274  26.1884037  50.5526720 124.2798049  34.4368106
  50.0080188 125.0557857  34.5688380  51.4306070 124.6268853  34.2787227
  57.3414337 117.6109632  26.8148904  57.4630248 116.6826279  27.0139792
  57.0516379 117.6248318  25.9027220  60.2105527 115.2964543  29.9515624
  60.2327224 115.3603876  28.9967604  60.6273586 114.4569052  30.1456130
  70.5889152 125.0319802  27.9894847  71.0320298 124.2827128  27.5913970
  69.7115662 125.0229939  27.6068579  65.7224933 131.5850144  23.4701445
  66.4175838 132.2056837  23.6888760  66.0648083 130.7345495  23.7453823
  51.3392742 123.4067945  37.3298263  50.5974478 123.5550580  37.9162893
  51.0185486 123.6676210  36.4665012  67.6216356 129.0349849  24.9988776
  68.1467680 129.3737122  24.2738096  67.5338709 128.0996865  24.8151911
  59.2836405 132.9483923  37.1278653  59.5923531 132.7033070  38.0001352
  60.0811887 133.1530562  36.6397523  59.3057017 135.1021833  29.3584029
  58.8662007 134.6098211  30.0516886  60.0565134 134.5594800  29.1176105
  51.7849356 131.2933374  29.3608657  52.6107376 130.9937145  28.9807301
  51.4343408 130.5240996  29.8098446  56.7530889 130.6459842  31.4306331
  56.1310898 129.9830547  31.1308559  57.4235756 130.6720974  30.7479979
  49.9857961 129.2119700  30.3197591  49.1489869 128.7841874  30.1381592
  49.9581606 129.4052143  31.2568382  56.8255416 119.1241630  41.0238837
  56.8743572 120.0003753  40.6416607  57.3677931 118.5819023  40.4510480
  67.3110262 129.6682753  40.3039974  66.5205806 129.6506892  39.7644473
  67.0743617 130.2071047  41.0589011  67.4308137 126.5175219  37.6172703
  67.4806142 126.3525227  38.5588225  67.3222061 125.6502478  37.2270583
  56.3144396 129.1963765  24.9064792  56.4632516 129.8799230  24.2531464
  57.1210839 129.1768855  25.4214247  64.7211900 122.5006147  38.9332009
  65.6221762 122.3612612  38.6416007  64.7959874 122.6660602  39.8730187
  59.0554705 119.8773002  37.7785196  58.1858014 120.1706568  37.5067784
  59.2914185 120.4613447  38.4992459  68.9326334 128.9372161  37.8614724
  68.6411142 129.3002142  38.6978185  68.3198465 128.2239169  37.6828056
  70.1322016 126.5025041  30.3817294  70.9668908 126.9414845  30.5454855
  70.2681145 126.0263694  29.5625540  67.1813522 124.0604776  36.3294782
  67.6567644 124.2532422  35.5213634  66.2579088 124.1163961  36.0838166
  54.0697029 125.2228943  25.9125860  53.8243071 124.3191273  26.1106071
  54.2392943 125.2246093  24.9705338  61.7593739 116.0952619  35.2950616
  62.2775683 116.8313646  34.9697105  61.4048872 116.4016612  36.1297375
  53.3392676 120.9557300  23.4112022  52.6461921 121.0301655  22.7552058
  53.0944428 120.1917644  23.9333539  62.0106333 112.5152902  30.8151513
  62.2908087 111.8476091  31.4411939  62.7956940 112.7081997  30.3026176
  59.8139801 131.6911896  22.3776539  59.2413768 132.3102083  21.9247011
  60.3872595 132.2411257  22.9116461  65.8815191 120.9370536  34.5623088
  66.8332614 121.0368633  34.5835312  65.7118642 120.1448804  35.0721172
  63.9029571 118.0226119  34.7482489  63.3079503 118.3031132  34.0528977
  63.6179267 118.5120020  35.5199230  63.0337061 131.9749046  23.5085121
  63.9667734 131.9094607  23.7117997  62.9460274 132.8105313  23.0499654
  65.6625078 131.2914916  20.4689069  65.5838709 130.9574780  21.3624827
  66.4834745 131.7836684  20.4680541  68.3603269 124.1576655  33.6765387
  68.3279589 123.2192656  33.8625071  68.9703893 124.2360692  32.9431212
  60.1986600 123.0272708  19.7192591  61.1445705 122.8978916  19.7881009
  59.8200845 122.2887370  20.1962020  68.5097758 120.9487699  33.7223671
  67.9936806 120.1646155  33.5353599  69.3937706 120.6206415  33.8870190
  66.1708484 114.6928714  29.6819483  65.9733306 114.3843803  30.5662815
  66.7808190 115.4190353  29.8117413  74.1779819 125.2192662  32.8171424
  74.9083207 124.9577950  33.3779127  73.5686764 124.4821384  32.8573492
  72.2595116 123.3600525  33.4145875  71.5328280 123.2256490  32.8062367
  71.8442403 123.6677353  34.2202593  60.0825292 127.0790454  41.1793248
  61.0028302 127.2569053  41.3733295  60.0474875 126.1346500  41.0272948
  58.3829517 120.9522685  19.6547477  57.4760972 120.6555797  19.7310190
  58.6605498 120.6552503  18.7881763  49.3007457 122.2729048  30.1046523
  48.9810242 121.4194356  29.8120897  48.7540886 122.4877626  30.8604490
  53.0787365 124.9891489  33.8216030  53.2973375 125.9208597  33.8404063
  53.4913139 124.6299464  34.6070833  59.9991583 115.4959574  25.8091718
  59.1892311 115.1506659  26.1846964  60.6876000 115.1867118  26.3979330
  61.9282131 114.5737621  27.4316015  62.4813170 114.9933075  28.0906038
  62.1652217 113.6473369  27.4738971  57.9515230 120.5624695  43.2118778
  57.8511957 121.5119052  43.1430870  57.7336772 120.2342934  42.3394849
  57.1528302 117.8109620  19.7959456  58.0147466 118.1364518  20.0555273
  57.3378646 117.0241116  19.2832522  49.1695717 125.8931960  32.0739645
  48.4759189 125.4785912  31.5609599  49.9168708 125.9352496  31.4773064
  65.3060938 116.6838146  26.9394679  64.7259607 117.3422950  26.5572731
  65.0396871 115.8615491  26.5282096  63.7564505 116.0843204  29.1415999
  64.2564283 116.1959739  28.3330318  64.4000112 115.7804257  29.7816808
  57.8146500 123.9921834  42.0283840  57.3313582 124.7922194  42.2347729
  57.9007439 124.0029779  41.0751284  51.0832460 125.8250213  29.9505659
  51.0603148 125.9237901  28.9987543  51.3933096 126.6715364  30.2722826
  53.7419838 127.8826368  34.0652274  54.6963091 127.8510311  33.9982205
  53.5432361 127.4216992  34.8802500  54.3319220 126.4527484  36.6323072
  55.1512109 126.9471563  36.6557909  54.6056028 125.5359453  36.6040639
  64.0885816 118.8438237  25.9951027  63.2011671 119.1287887  25.7771222
  64.5039805 118.6832000  25.1478304  67.4400352 118.8684758  29.7105366
  68.2160742 119.3581210  29.9829983  66.7148486 119.2942812  30.1677236
  69.8772911 119.5812377  30.7679307  70.4717402 119.3408113  30.0572615
  69.9499495 118.8619508  31.3952843  52.0970067 133.4245988  31.0822472
  51.9624535 132.6646389  30.5160470  51.6802129 134.1486888  30.6151261
  63.2329030 128.6082911  20.0899047  63.9364880 128.8132914  20.7056703
  62.5091678 129.1759673  20.3548131  64.0626840 124.3592773  26.2101317
  64.0062041 124.8161324  25.3708950  64.6155182 123.5983457  26.0324160
  67.8731646 120.1482505  27.0351437  67.6168580 119.7479140  27.8659644
  67.2484514 120.8626299  26.9101576  72.1843984 122.8878578  29.5422728
  71.6243542 122.9571767  30.3154290  71.5787487 122.7119562  28.8222224
  55.2539192 134.3215305  31.2940914  55.1371577 135.2660737  31.1919605
  54.4331639 134.0188867  31.6826714  65.1415727 129.0465441  22.1397507
  65.9761331 128.6146639  21.9574982  64.9800070 128.8747454  23.0674402
  64.7961619 125.5497554  23.5053846  64.7410423 125.3841825  22.5642291
  64.1707674 126.2573587  23.6616036  49.5854134 120.7865618  37.3315269
  50.2312998 120.2764572  37.8202494  49.3771285 121.5234300  37.9058694
  62.1107526 127.8546466  42.8307409  62.9798686 128.0287118  42.4694044
  61.6314278 128.6740883  42.7083139  58.1057745 115.0505663  23.0839165
  58.0936415 115.9947503  23.2407436  58.9981167 114.8675808  22.7898626
  56.2793707 134.9743567  34.5096843  57.1820953 135.0067177  34.8263338
  56.0531077 134.0444018  34.5243179  58.0347309 133.7274553  31.1706921
  57.0842940 133.7276415  31.0571294  58.3379795 132.9807288  30.6542956
  61.9209864 111.6448440  27.3385102  61.1542260 111.0906926  27.4841784
  62.3320569 111.7170308  28.1999253  53.9251625 117.9333235  41.4290283
  54.7883087 117.5770040  41.6393607  53.3517036 117.5947130  42.1165687
  73.7700002 139.5635092  32.2352684  74.4078412 139.4441839  31.5316024
  73.6520845 140.5115936  32.2940636  70.5789708 139.5162520  32.1714209
  70.2408220 139.4003585  31.2834743  71.4479477 139.1153685  32.1515215
  66.4376524 141.3697996  28.1611100  65.8741389 141.2787933  27.3927387
  66.3228919 140.5497901  28.6413592  71.0609491 140.6697372  38.1300414
  71.0498132 140.2750170  37.2580918  71.2230131 139.9363444  38.7234186
  63.9840956 142.8649188  30.9995320  64.7762248 142.5240013  30.5841619
  64.2237606 142.9744163  31.9197473  68.7072959 140.8311332  33.6680958
  69.3036532 140.6067354  32.9537921  68.7647931 140.0896077  34.2706406
  73.3241271 137.2886546  29.3105892  74.1104360 136.8705969  28.9596309
  73.5879975 138.1932638  29.4787540  78.7249698 137.2261779  30.2138870
  79.4574870 136.6560996  30.4476700  77.9689053 136.8383379  30.6545376
  70.3425817 139.6489020  27.4102213  69.9784025 139.1219641  28.1215134
  71.1992933 139.2587489  27.2368698  76.2475118 130.9383353  34.6733479
  75.9158443 131.8078764  34.4494694  75.6520731 130.6219637  35.3527509
  69.9831304 134.6778920  22.4063561  70.1505707 135.5459156  22.7734032
  69.7928474 134.8406202  21.4824851  72.7406638 143.1395899  34.0729392
  72.4407361 144.0420938  33.9645199  72.3957697 142.8728082  34.9250545
  66.1919119 139.5909696  30.1066096  65.2669616 139.4585910  30.3143788
  66.4403532 140.3703915  30.6036039  76.1403781 135.6578439  31.7526829
  75.2320659 135.5893848  31.4585590  76.0891377 136.1350384  32.5808655
  69.9620525 137.1336578  23.3910228  69.8420151 137.5793628  24.2295709
  69.2673114 137.4821895  22.8323766  63.5527930 139.2342969  30.9409885
  63.6820311 139.4877448  31.8549297  62.8725381 139.8270677  30.6214540
  70.2144647 137.0768085  39.6961726  69.4377981 137.6362005  39.6864591
  70.8535210 137.5624868  40.2176596  78.0065428 133.8594878  33.5304703
  77.3639808 134.1527411  32.8844498  77.5020356 133.7447798  34.3357900
  68.4691019 139.8853538  39.2579693  69.2105704 140.4238582  38.9814517
  67.7628005 140.5119827  39.4151245  73.9446359 142.0282679  37.8551855
  74.3529715 141.5865089  37.1106487  73.2223621 141.4535306  38.1086048
  70.2977429 136.9655285  35.2285412  71.1438624 137.3894699  35.3720061
  70.2376067 136.3088910  35.9223975  74.2675174 142.5883869  31.6104144
  73.6384036 142.7529583  30.9080212  73.8800836 143.0025479  32.3815108
  73.4476875 134.6259654  36.8866585  73.2037806 135.3801714  36.3500861
  73.7236805 135.0045001  37.7213832  75.4015337 141.1698266  35.5643851
  75.6132233 141.8130026  34.8878232  75.3545086 140.3360583  35.0965781
  73.0041566 133.7816087  32.4680423  72.1426045 134.0797340  32.7597161
  73.0304001 133.9986486  31.5361456  69.8203136 142.3258277  28.8754229
  70.2841481 142.6045980  28.0858851  69.5559934 141.4241722  28.6927320
  66.7127217 141.8729759  31.8133992  67.2828574 142.3017027  31.1751477
  67.3035329 141.5912343  32.5118178  68.7572022 138.4481430  25.6843794
  69.4596065 138.9002473  26.1517720  68.4252650 137.8065248  26.3123687
  67.2052383 137.0393186  40.0595003  66.5751044 137.7209467  40.2930400
  67.0988471 136.9276268  39.1148142  62.4997356 136.7064982  30.9860928
  61.7096410 136.9622511  30.5101038  62.9908603 137.5213320  31.0912968
  76.5161165 144.0470221  33.7366208  77.3378609 143.6450409  33.4548890
  76.5123568 143.9438456  34.6882324  64.4512101 137.0709562  27.9444404
  63.6543264 137.1828256  28.4627900  64.2237693 137.4096214  27.0785295
  70.2817769 143.5954265  35.8926919  70.3462201 144.0574672  36.7285091
  69.5728693 142.9651630  36.0209229  60.7835059 136.9595473  33.4175918
  61.0343097 137.8442483  33.6833494  61.3194607 136.7800074  32.6451010
  66.4833126 131.3413952  42.4220254  66.0900072 130.7880151  43.0967899
  67.2999266 131.6524531  42.8126772  69.4001087 132.7571831  40.0140511
  70.1410800 133.3578984  39.9344973  69.6319010 132.0149469  39.4558554
  64.5442425 137.9428198  38.2918741  64.4295940 137.0413456  38.5925840
  63.6886943 138.1891895  37.9403557  70.1788555 143.6792868  38.7611151
  70.7116892 142.9181156  38.5310459  69.6502636 143.3866520  39.5035305
  73.3458250 128.7852934  34.2904793  73.0022519 129.6754576  34.2143903
  73.7137213 128.5954592  33.4274378  61.4144101 141.1086465  27.1093395
  62.2519323 141.5183473  26.8927103  61.5922368 140.1685907  27.0793589
  70.8955644 133.6211246  27.8562466  70.0397240 133.2318096  27.6768105
  71.3082595 133.7003207  26.9962252  72.4254790 131.1557589  32.2554026
  71.9219586 131.1187724  31.4421831  72.7185397 132.0650332  32.3150683
  68.6697676 131.2396319  31.2620208  69.5350673 131.0439128  30.9026097
  68.7375185 131.0106671  32.1889564  73.0994836 136.6488637  24.6237009
  72.7944971 136.9634786  25.4747152  74.0525278 136.7270057  24.6664342
  76.5234114 141.0027881  31.3897009  75.8657788 141.6927143  31.4777138
  77.3274513 141.3924313  31.7330996  66.2759995 133.4698527  28.6336574
  66.8503747 133.2473708  27.9009767  66.8630978 133.5387221  29.3865176
  75.3339572 139.3572254  29.4400951  75.8471454 139.9902246  29.9422661
  75.9840796 138.7573449  29.0744311  66.6029582 135.5002988  22.6532460
  65.7666895 135.8377674  22.9741734  66.4634352 135.3651968  21.7159597
  68.5782663 130.3439776  27.3611644  67.9247075 130.0288793  26.7368259
  68.5363137 129.7215516  28.0871467  71.8120403 136.8321709  31.6859292
  70.8942965 137.0536656  31.5280980  72.2280547 136.9068020  30.8270999
  72.5955451 138.2313125  26.8161972  73.3427270 138.7434522  26.5069094
  72.8647041 137.9097178  27.6766365  75.0434288 135.2670241  28.7980761
  74.3057045 134.7547628  29.1291004  75.2961062 134.8270623  27.9864038
  75.1445916 128.0446493  29.3922530  75.4504792 127.1843857  29.1048445
  75.8698520 128.6364113  29.1921524  61.4370272 138.4477180  27.7804128
  61.2394671 137.8546541  27.0555195  60.8816936 138.1429390  28.4980067
  69.4166995 138.3400286  29.8998721  69.4715605 137.3874123  29.8241198
  68.6058197 138.4959725  30.3840020  67.3559355 136.9577346  27.6589100
  66.5427221 137.2571517  28.0654292  67.8518349 136.5633035  28.3763583
  72.9533567 137.4219171  36.4903994  73.3082955 137.6490644  37.3498460
  73.6005698 137.7537547  35.8681249  66.8473430 134.5295702  33.2750335
  67.4872809 134.3884461  32.5773299  66.0150961 134.2430215  32.8988937
  78.7100683 142.6114133  32.2064595  79.1437190 142.5189423  33.0547649
  79.4232264 142.5871634  31.5684611  67.6233734 143.8298132  29.3885328
  68.4174332 143.3348452  29.1867903  66.9125426 143.3015995  29.0253033
  63.9316497 137.9741214  25.4645080  63.0014085 137.9125669  25.6815042
  64.0273969 137.4517167  24.6681722  63.8502046 134.4996027  28.0523322
  64.1108864 135.4141360  27.9432482  64.6719219 134.0320469  28.2019935
  65.3226972 135.9133784  35.2222147  65.9950025 135.7051146  34.5734795
  64.4956758 135.7155870  34.7827379  79.5716233 142.6537834  34.7397480
  79.7652123 143.5583645  34.9856755  79.4716851 142.1945253  35.5736065
  71.2252544 132.5395725  37.2387807  70.5780459 133.2385674  37.1452284
  71.9953559 132.9731869  37.6064056  74.6331342 142.8044577  40.3138361
  74.4816848 142.5755129  39.3968444  74.6236021 143.7615178  40.3269706
  71.4016678 140.3776490  35.2984627  72.3308738 140.5287649  35.1253594
  70.9807708 140.4660510  34.4433274  71.7510225 143.7808757  30.4572003
  71.4160058 143.7409527  31.3529652  71.2514171 143.1153473  29.9842413
  65.7254469 139.1876387  35.9824584  65.5874267 138.4556626  36.5836123
  66.6359392 139.0985287  35.7008771  68.3536770 138.8996346  35.4708263
  69.0636388 138.2589538  35.4294882  68.3106078 139.1509241  36.3934444
  76.3423548 145.8363699  38.3914843  76.2836094 145.1522920  37.7245426
  76.7443067 146.5782689  37.9395469  67.0665704 135.8861564  37.2903903
  66.5303061 135.4352302  37.9425499  66.4782412 136.0207473  36.5474367
  76.3440956 143.8003283  36.6228822  75.4567734 143.4629205  36.7455221
  76.9139507 143.0686315  36.8597588  62.8004825 135.0217572  34.3756897
  62.7163014 134.4143241  33.6407307  61.9787531 135.5126590  34.3766394
  72.9728539 133.5071135  29.7427092  73.4697238 132.7541098  29.4228163
  72.2015520 133.5435452  29.1770302  80.8258296 139.2111501  31.3845384
  80.8148172 140.0936216  31.0139317  79.9575676 138.8583052  31.1899921
  74.0558319 142.2642822  27.3165516  73.1214598 142.3844285  27.1470220
  74.2334988 141.3615289  27.0525526  69.5563507 135.6488518  29.4698777
  69.1861295 135.0959559  30.1579683  70.0522600 135.0446652  28.9173777
  77.4430871 138.1060142  27.8515550  77.9091323 138.9388133  27.7775853
  77.8938371 137.6405123  28.5560808  75.4147534 130.4740729  31.8906451
  74.5010613 130.7044956  32.0588658  75.8440635 130.5579173  32.7420484
  75.1853992 138.6630621  34.3906345  74.5325442 138.9106528  33.7358798
  75.5634372 137.8494759  34.0568823  71.2341565 139.4050432  40.8772382
  70.5582202 139.3044561  41.5474758  72.0569199 139.2489645  41.3408380
  57.5738079 138.2127968  32.2189341  57.6122178 137.6791559  33.0126459
  57.0678372 137.6863174  31.6000318  64.9528841 133.0592509  35.7151883
  65.0170168 133.9207340  35.3029281  64.8895961 132.4466511  34.9824242
  64.4281114 135.1315642  39.3624917  65.0553152 134.7492719  39.9762442
  63.5709033 134.9129843  39.7280610  74.8275222 145.5378617  40.9678653
  75.3715126 146.1508575  40.4733608  74.2462067 146.0958195  41.4845666
  61.2046656 136.9392071  25.2943272  61.5000098 136.0302749  25.2410326
  60.3034692 136.9179810  24.9724275  64.7340903 135.0148067  31.2770821
  64.0127489 135.6284035  31.1378294  65.5234159 135.5505832  31.1987467
  75.1767644 146.4608355  33.7273231  74.2297979 146.3413706  33.6551557
  75.5250417 145.5730853  33.8099492  67.5367217 132.3502494  37.5511473
  68.0601619 132.5964790  38.3137782  67.3179550 133.1822529  37.1314610
  62.9334498 134.6206168  25.4182597  62.6047204 133.7403547  25.2357703
  63.2873869 134.5653837  26.3058987  66.0476321 134.9079138  25.7858075
  66.3872394 135.4365059  25.0636683  66.4948442 135.2459544  26.5616642
  75.7848199 147.0789630  31.0142456  76.7094746 146.8732491  30.8766907
  75.6163502 146.8306031  31.9231797  68.7419762 133.2916189  35.2361143
  68.4016582 132.4924002  35.6381823  68.0358768 133.5917900  34.6637976
  69.3936234 130.3765501  33.6888466  70.2162303 129.9025979  33.5667356
  69.6374297 131.1555985  34.1887152  68.0344468 133.4053760  23.9851368
  68.7552831 133.7835012  23.4815085  67.4109772 134.1242636  24.0886346
  72.1775591 134.1098909  24.9209700  72.3939206 134.9923547  24.6198528
  71.6969658 133.7185122  24.1915342  66.9174813 137.0684622  31.4980445
  66.7719393 137.3824925  32.3904726  66.4400016 137.6869522  30.9451343
  68.7771195 134.0587170  31.5461334  68.7632764 133.1628263  31.2093632
  69.4943624 134.0657834  32.1799620  70.6297326 134.4924510  33.5914462
  70.3715104 135.4141581  33.5898792  70.0982367 134.0954945  34.2814926
  61.3920475 139.6089966  34.4368106  60.8473943 140.3849774  34.5688380
  62.2699825 139.9560771  34.2787227  68.1808091 132.9401550  26.8148904
  68.3024003 132.0118196  27.0139792  67.8910134 132.9540236  25.9027220
  71.0499282 130.6256461  29.9515624  71.0720979 130.6895794  28.9967604
  71.4667341 129.7860969  30.1456130  62.1786497 138.7359863  37.3298263
  61.4368233 138.8842498  37.9162893  61.8579241 138.9968128  36.4665012
  67.6649171 134.4533548  41.0238837  67.7137326 135.3295670  40.6416607
  68.2071685 133.9110941  40.4510480  78.1504017 144.9974671  40.3039974
  77.3599560 144.9798810  39.7644473  77.9137371 145.5362964  41.0589011
  78.2701892 141.8467137  37.6172703  78.3199897 141.6817145  38.5588225
  78.1615815 140.9794396  37.2270583  75.5605654 137.8298065  38.9332009
  76.4615517 137.6904530  38.6416007  75.6353629 137.9952520  39.8730187
  69.8948459 135.2064920  37.7785196  69.0251769 135.4998486  37.5067784
  70.1307940 135.7905365  38.4992459  79.7720088 144.2664079  37.8614724
  79.4804897 144.6294059  38.6978185  79.1592220 143.5531087  37.6828056
  80.9715771 141.8316958  30.3817294  81.8062662 142.2706762  30.5454855
  81.1074900 141.3555612  29.5625540  78.0207277 139.3896693  36.3294782
  78.4961398 139.5824340  35.5213634  77.0972842 139.4455879  36.0838166
  64.9090783 140.5520860  25.9125860  64.6636825 139.6483190  26.1106071
  65.0786698 140.5538011  24.9705338  72.5987493 131.4244537  35.2950616
  73.1169437 132.1605564  34.9697105  72.2442626 131.7308530  36.1297375
  64.1786431 136.2849218  23.4112022  63.4855676 136.3593573  22.7552058
  63.9338183 135.5209562  23.9333539  72.8500087 127.8444819  30.8151513
  73.1301841 127.1768008  31.4411939  73.6350694 128.0373915  30.3026176
  76.7208946 136.2662453  34.5623088  77.6726369 136.3660551  34.5835312
  76.5512396 135.4740722  35.0721172  74.7423325 133.3518037  34.7482489
  74.1473257 133.6323049  34.0528977  74.4573022 133.8411938  35.5199230
  79.1997024 139.4868573  33.6765387  79.1673344 138.5484574  33.8625071
  79.8097647 139.5652610  32.9431212  79.3491512 136.2779616  33.7223671
  78.8330561 135.4938073  33.5353599  80.2331461 135.9498333  33.8870190
  77.0102239 130.0220632  29.6819483  76.8127060 129.7135720  30.5662815
  77.6201944 130.7482271  29.8117413  85.0173573 140.5484580  32.8171424
  85.7476962 140.2869868  33.3779127  84.4080519 139.8113302  32.8573492
  83.0988870 138.6892442  33.4145875  82.3722034 138.5548407  32.8062367
  82.6836157 138.9969271  34.2202593  70.9219047 142.4082372  41.1793248
  71.8422056 142.5860971  41.3733295  70.8868630 141.4638418  41.0272948
  60.1401212 137.6020966  30.1046523  59.8203996 136.7486274  29.8120897
  59.5934640 137.8169544  30.8604490  63.9181119 140.3183407  33.8216030
  64.1367129 141.2500515  33.8404063  64.3306893 139.9591381  34.6070833
  70.8385337 130.8251492  25.8091718  70.0286066 130.4798577  26.1846964
  71.5269754 130.5159036  26.3979330  72.7675886 129.9029539  27.4316015
  73.3206924 130.3224992  28.0906038  73.0045972 128.9765287  27.4738971
  68.7908985 135.8916613  43.2118778  68.6905712 136.8410970  43.1430870
  68.5730527 135.5634851  42.3394849  67.9922056 133.1401538  19.7959456
  68.8541220 133.4656436  20.0555273  68.1772400 132.3533034  19.2832522
  60.0089472 141.2223877  32.0739645  59.3152943 140.8077830  31.5609599
  60.7562463 141.2644414  31.4773064  76.1454693 132.0130064  26.9394679
  75.5653362 132.6714868  26.5572731  75.8790625 131.1907409  26.5282096
  74.5958259 131.4135122  29.1415999  75.0958037 131.5251656  28.3330318
  75.2393867 131.1096175  29.7816808  68.6540255 139.3213751  42.0283840
  68.1707337 140.1214112  42.2347729  68.7401194 139.3321696  41.0751284
  61.9226214 141.1542131  29.9505659  61.8996903 141.2529818  28.9987543
  62.2326851 142.0007282  30.2722826  65.1712974 141.7819402  36.6323072
  65.9905863 142.2763481  36.6557909  65.4449782 140.8651370  36.6040639
  74.9279571 134.1730154  25.9951027  74.0405426 134.4579805  25.7771222
  75.3433560 134.0123918  25.1478304  78.2794107 134.1976675  29.7105366
  79.0554497 134.6873128  29.9829983  77.5542241 134.6234730  30.1677236
  80.7166665 134.9104295  30.7679307  81.3111156 134.6700031  30.0572615
  80.7893249 134.1911425  31.3952843  78.7125400 135.4774422  27.0351437
  78.4562335 135.0771058  27.8659644  78.0878268 136.1918216  26.9101576
  83.0237738 138.2170496  29.5422728  82.4637296 138.2863685  30.3154290
  82.4181242 138.0411480  28.8222224  60.4247889 136.1157536  37.3315269
  61.0706752 135.6056490  37.8202494  60.2165040 136.8526218  37.9058694
  72.9501281 143.1838384  42.8307409  73.8192441 143.3579036  42.4694044
  72.4708032 144.0032800  42.7083139  68.9451499 130.3797581  23.0839165
  68.9330169 131.3239421  23.2407436  69.8374921 130.1967726  22.7898626
  72.7603619 126.9740357  27.3385102  71.9936014 126.4198844  27.4841784
  73.1714324 127.0462226  28.1999253  64.7645380 133.2625153  41.4290283
  65.6276841 132.9061958  41.6393607  64.1910790 132.9239048  42.1165687
  77.3226880 146.6705870  42.4220254  76.9293826 146.1172068  43.0967899
  78.1393021 146.9816448  42.8126772  80.2394841 148.0863749  40.0140511
  80.9804555 148.6870902  39.9344973  80.4712764 147.3441387  39.4558554
  84.1852004 144.1144852  34.2904793  83.8416274 145.0046493  34.2143903
  84.5530967 143.9246509  33.4274378  82.0646298 147.8687642  37.2387807
  81.4174213 148.5677592  37.1452284  82.8347314 148.3023786  37.6064056
  80.2329988 145.7057419  33.6888466  81.0556058 145.2317897  33.5667356
  80.4768052 146.4847903  34.1887152  83.4381248 146.7536455  35.2950616
  83.9563192 147.4897481  34.9697105  83.0836380 147.0600448  36.1297375
  16.8640720  41.0299906  24.8545721  16.8529361  40.6352704  23.9826224
  17.0261360  40.2965978  25.4479492  13.5847981  43.8137018  23.8024905
  13.2937847  44.7182648  23.6871571  14.2204966  43.8553545  24.5168974
  16.0175876  37.4370619  26.4207033  15.2409210  37.9964539  26.4109898
  16.6566439  37.9227402  26.9421903  14.2722248  40.2456072  25.9825000
  15.0136933  40.7841116  25.7059824  13.5659234  40.8722361  26.1396552
  19.7477588  42.3885213  24.5797161  20.1560944  41.9467623  23.8351794
  19.0254849  41.8137840  24.8331354  22.3192394  44.4072756  20.4611515
  23.1409838  44.0052943  20.1794197  22.3154797  44.3040990  21.4127631
  17.4265492  46.2448473  26.6151548  16.9829346  45.4584852  26.2972452
  18.0882705  46.4327623  25.9495439  19.5246730  46.5251273  24.6432949
  19.5065205  47.3460154  24.1513218  20.4466650  46.4005348  24.8683090
  15.9819784  44.0395402  25.4856458  16.5148121  43.2783691  25.2555766
  15.4533865  43.7469054  26.2280612  25.3747462  43.0140368  21.4642787
  25.5683352  43.9186179  21.7102062  25.2748080  42.5547787  22.2981372
  20.4362570  43.1647111  27.0383667  20.2848077  42.9357663  26.1213751
  20.4267250  44.1217713  27.0515012  22.1454777  46.1966234  25.1160149
  22.0867323  45.5125454  24.4490732  22.5474296  46.9385224  24.6640775
  22.1472184  44.1605818  23.3474129  21.2598963  43.8231739  23.4700528
  22.7170735  43.4288849  23.5842894  18.1372021  48.7194104  22.4693531
  18.8499994  49.3541569  22.3969432  17.6462050  48.8157970  21.6533533
  13.1883935  46.4688547  23.2899102  13.8893394  47.1025030  23.4428496
  12.7179050  46.8103279  22.5294741  17.0372794  39.7652966  27.6017689
  16.3613431  39.6647095  28.2720064  17.8600428  39.6092180  28.0653686
  15.7795577  51.0719893  21.8375305  16.3313885  51.2351515  22.6024390
  16.1201770  51.6624331  21.1655330  20.6306451  45.8981151  27.6923959
  21.1746355  46.5111109  27.1978914  20.0493296  46.4560729  28.2090972
  20.9798872  46.8210889  20.4518537  20.0329208  46.7016240  20.3796864
  21.3281645  45.9333387  20.5344799  15.9261388  48.6378375  23.8523959
  16.2348514  48.3927522  24.7246659  16.7236870  48.8425013  23.3642830
  23.9535245  45.3577205  27.0285281  23.1630789  45.3401344  26.4889780
  23.7168600  45.8965499  27.7834317  24.0733120  42.2069671  24.3418009
  24.1231125  42.0419679  25.2833532  23.9647044  41.3396930  23.9515890
  21.3636883  38.1900599  25.6577316  22.2646746  38.0507064  25.3661314
  21.4384857  38.3555054  26.5975493  25.5751317  44.6266613  24.5860031
  25.2836126  44.9896593  25.4223492  24.9623449  43.9133621  24.4073363
  23.8238506  39.7499227  23.0540089  24.2992627  39.9426874  22.2458940
  22.9004071  39.8058413  22.8083472  30.8204802  40.9087114  19.5416731
  31.5508191  40.6472402  20.1024434  30.2111748  40.1715836  19.5818799
  16.7250276  42.7684906  27.9038555  17.6453285  42.9463505  28.0978602
  16.6899859  41.8240952  27.7518254  14.5940214  36.2519147  29.9364085
  14.4936940  37.2013504  29.8676176  14.3761756  35.9237386  29.0640155
  14.4571484  39.6816286  28.7529147  13.9738565  40.4816646  28.9593036
  14.5432423  39.6924230  27.7996591  18.7532510  43.5440918  29.5552716
  19.6223669  43.7181570  29.1939351  18.2739261  44.3635335  29.4328445
  12.9218690  50.6638019  21.2342149  13.8245937  50.6961629  21.5508644
  12.6956060  49.7338470  21.2488485  30.4124985  55.2529544  18.9597991
  31.0503395  55.1336291  18.2561331  30.2945828  56.2010388  19.0185943
  27.2214692  55.2056972  18.8959515  26.8833203  55.0898036  18.0080050
  28.0904460  54.8048137  18.8760521  23.0801507  57.0592448  14.8856406
  22.5166373  56.9682385  14.1172694  22.9653902  56.2392353  15.3658899
  27.7034475  56.3591823  24.8545721  27.6923115  55.9644622  23.9826224
  27.8655114  55.6257896  25.4479492  20.6265939  58.5543640  17.7240627
  21.4187231  58.2134464  17.3086926  20.8662589  58.6638615  18.6442780
  28.6601066  60.7263416  10.1970871  28.0089046  61.3117496   9.8104885
  29.4545429  61.2569611  10.2565909  24.4241736  59.1428935  23.8024905
  24.1331602  60.0474566  23.6871571  25.0598720  59.1845463  24.5168974
  25.3497943  56.5205784  20.3926264  25.9461515  56.2961806  19.6783227
  25.4072914  55.7790529  20.9951712  29.9666254  52.9780998  16.0351199
  30.7529343  52.5600421  15.6841616  30.2304958  53.8827090  16.2032847
  30.1376331  58.4153848  10.7339855  29.5022164  58.4888474  11.4460760
  29.8073738  59.0047447  10.0558935  35.3674681  52.9156231  16.9384177
  36.0999853  52.3455448  17.1722007  34.6114037  52.5277831  17.3790683
  26.9850801  55.3383472  14.1347520  26.6209008  54.8114093  14.8460441
  27.8417917  54.9481941  13.9614005  32.8900101  46.6277805  21.3978786
  32.5583426  47.4973216  21.1740001  32.2945715  46.3114089  22.0772816
  29.3831621  58.8290351  20.7974698  29.0832344  59.7315390  20.6890506
  29.0382680  58.5622534  21.6495851  22.8344102  55.2804148  16.8311403
  21.9094599  55.1480362  17.0389095  23.0828516  56.0598367  17.3281345
  32.7828765  51.3472891  18.4772136  31.8745642  51.2788299  18.1830897
  32.7316360  51.8244836  19.3053961  20.1952913  54.9237421  17.6655192
  20.3245295  55.1771900  18.5794604  19.5150365  55.5165129  17.3459847
  24.3652401  65.5934671  13.7645666  24.2876430  66.5442496  13.8434147
  23.7614044  65.2480544  14.4220592  26.8569630  52.7662537  26.4207033
  26.0802965  53.3256457  26.4109898  27.4960194  53.2519320  26.9421903
  34.6490411  49.5489329  20.2550010  34.0064791  49.8421863  19.6089804
  34.1445340  49.4342250  21.0603206  32.3030575  53.2952503  10.9435869
  33.2148431  53.5279889  10.7683566  31.7940222  53.8789547  10.3810948
  25.1116003  55.5747990  25.9825000  25.8530687  56.1133034  25.7059824
  24.4052988  56.2014279  26.1396552  30.5871342  57.7177130  24.5797161
  30.9954698  57.2759541  23.8351794  29.8648604  57.1429758  24.8331354
  26.9402412  52.6549737  21.9530718  27.7863608  53.0789151  22.0965367
  26.8801050  51.9983362  22.6469282  30.9100157  58.2778321  18.3349450
  30.2809020  58.4424035  17.6325518  30.5225819  58.6919931  19.1060414
  34.7889389  59.2132759  15.6893814  34.1040427  59.5931660  15.1390847
  34.8733238  59.8228086  16.4225762  30.0901858  50.3154106  23.6111892
  29.8462790  51.0696166  23.0746168  30.3661788  50.6939453  24.4459139
  32.0440321  56.8592718  22.2889158  32.2557216  57.5024478  21.6123539
  31.9970069  56.0255034  21.8211088  29.6466550  49.4710539  19.1925730
  28.7851029  49.7691792  19.4842467  29.6728984  49.6880937  18.2606762
  26.4628119  58.0152729  15.5999535  26.9266464  58.2940432  14.8104158
  26.1984917  57.1136174  15.4172626  23.3552200  57.5624211  18.5379299
  23.9253557  57.9911479  17.8996783  23.9460312  57.2806795  19.2363484
  23.8477367  52.7287638  26.7840310  23.2176027  53.4103919  27.0175707
  23.7413454  52.6170720  25.8393448  19.1422339  52.3959434  17.7106234
  18.3521393  52.6516963  17.2346345  19.6333586  53.2107772  17.8158275
  33.1586149  59.7364673  20.4611515  33.9803592  59.3344861  20.1794197
  33.1548551  59.6332908  21.4127631  26.9242752  59.2848717  22.6172226
  26.9887184  59.7469124  23.4530397  26.2153676  58.6546082  22.7454535
  17.4260042  52.6489925  20.1421225  17.6768080  53.5336935  20.4078801
  17.9619590  52.4694526  19.3696317  41.2492142  56.0803422  16.8096486
  40.4955850  55.5110820  16.6540491  41.3839683  56.0466086  17.7567121
  26.6390770  60.9516824  12.4851206  26.5036444  61.7968360  12.9136054
  27.1800582  61.1536102  11.7217140  23.1258109  47.0308404  29.1465561
  22.7325055  46.4774603  29.8213205  23.9424250  47.3418982  29.5372079
  20.0920167  58.4692262  13.0579131  20.6044688  59.2635512  13.2084696
  20.7442880  57.7718553  12.9912732  21.9015052  61.5858018  15.1401884
  22.0781680  62.5075983  14.9522868  22.6971885  61.2716438  15.5696264
  26.0426070  48.4466283  26.7385818  26.7835784  49.0473436  26.6590280
  26.2743993  47.7043921  26.1803860  21.1867408  53.6322650  25.0164047
  21.0720923  52.7307908  25.3171146  20.3311926  53.8786347  24.6648864
  28.2659246  61.5740391  26.6151548  27.8223100  60.7876769  26.2972452
  28.9276460  61.7619541  25.9495439  23.0246367  63.1036192  21.1412226
  23.5753792  62.9753256  20.3689220  22.1857843  63.4031081  20.7907119
  30.3640484  61.8543191  24.6432949  30.3458959  62.6752072  24.1513218
  31.2860404  61.7297266  24.8683090  26.8213538  59.3687320  25.4856458
  27.3541875  58.6075608  25.2555766  26.2927619  59.0760972  26.2280612
  29.9883233  44.4747386  21.0150099  29.6447503  45.3649028  20.9389210
  30.3562196  44.2849044  20.1519684  29.0679774  46.8452041  18.9799333
  28.5644569  46.8082176  18.1667138  29.3610380  47.7544784  19.0395989
  25.3122659  46.9290771  17.9865514  26.1775656  46.7333580  17.6271404
  25.3800168  46.7001123  18.9134871  34.9267790  57.2188352  11.4575708
  34.1497233  56.8799511  11.0130870  35.6059271  57.2240975  10.7830673
  28.1866251  58.4973313  12.9975270  27.6587613  57.7626072  12.6848507
  27.6853754  59.2747989  12.7515238  33.1659097  56.6922333  18.1142316
  32.5082771  57.3821594  18.2022444  33.9699496  57.0818765  18.4576302
  31.9764556  55.0466706  16.1646258  32.4896438  55.6796698  16.6667967
  32.6265780  54.4467901  15.7989618  29.2386930  65.0251030   8.9206929
  28.5648629  65.3282727   9.5291887  29.6252752  65.8280110   8.5712386
  28.4545387  52.5216161  18.4104598  27.5367948  52.7431108  18.2526286
  28.8705530  52.5962472  17.5516305  29.2380434  53.9207577  13.5407278
  29.9852253  54.4328974  13.2314400  29.5072024  53.5991630  14.4011672
  32.7426352  60.0272707  14.2925400  32.2888679  59.1863617  14.3490591
  32.1120319  60.6634106  14.6300180  31.6859272  50.9564693  15.5226068
  30.9482028  50.4442079  15.8536310  31.9386045  50.5165075  14.7109345
  31.1859291  61.8649204  15.2275218  31.4782266  62.4254261  14.5087584
  31.6957912  62.1577765  15.9828377  26.0591979  54.0294738  16.6244028
  26.1140588  53.0768575  16.5486505  25.2483181  54.1854177  17.1085326
  23.9984339  52.6471798  14.3834407  23.1852204  52.9465969  14.7899599
  24.4943333  52.2527487  15.1008889  26.1492916  62.6429555  16.3168672
  26.1069095  62.8690401  15.3877204  27.0655615  62.4092930  16.4654473
  29.5958550  53.1113622  23.2149301  29.9507938  53.3385096  24.0743767
  30.2430681  53.4431999  22.5926556  35.3256287  56.2332058  13.9198630
  35.1874186  56.4233654  12.9919819  34.9692506  56.9951441  14.3766681
  23.4898413  50.2190154  19.9995642  24.1297793  50.0778913  19.3018605
  22.6575944  49.9324667  19.6234244  35.3525667  58.3008585  18.9309901
  35.7862173  58.2083874  19.7792955  36.0657247  58.2766086  18.2929917
  24.2658717  59.5192584  16.1130634  25.0599316  59.0242904  15.9113209
  23.5550410  58.9910447  15.7498340  29.0853562  61.9010679  20.4643002
  29.1390584  62.4701616  21.2320718  28.2168343  62.0712565  20.0997039
  21.9651955  51.6028236  21.9467453  22.6375008  51.3945598  21.2980102
  21.1381742  51.4050322  21.5072685  36.2141216  58.3432286  21.4642787
  36.4077106  59.2478097  21.7102062  36.1141834  57.8839705  22.2981372
  27.8677527  48.2290177  23.9633114  27.2205442  48.9280126  23.8697590
  28.6378542  48.6626321  24.3309362  31.2756325  58.4939029  27.0383667
  31.1241831  58.2649580  26.1213751  31.2661004  59.4509630  27.0515012
  28.0441661  56.0670942  22.0229934  28.9733721  56.2182101  21.8498901
  27.6232691  56.1554962  21.1678580  26.8429993  60.0921606  19.7928471
  26.7041079  59.7240390  20.6654410  26.0544589  60.6069245  19.6212429
  27.4378145  65.1930702  11.1354008  27.6129901  64.7218746  11.9499631
  26.7510933  65.8196469  11.3635269  28.3935208  59.4703209  17.1817309
  28.0585041  59.4303979  18.0774959  27.8939154  58.8047925  16.7087719
  22.3679452  54.8770839  22.7069890  22.2299250  54.1451077  23.3081429
  23.2784376  54.7879739  22.4254078  24.9961753  54.5890798  22.1953570
  25.7061371  53.9483990  22.1540188  24.9531061  54.8403693  23.1179751
  32.9848532  61.5258151  25.1160149  32.9261078  60.8417371  24.4490732
  33.3868050  62.2677141  24.6640775  23.7090687  51.5756016  24.0149209
  23.1728044  51.1246754  24.6670806  23.1207395  51.7101925  23.2719674
  22.0039230  68.3420065  17.9093868  22.2435829  68.9738589  18.5872887
  21.1608427  67.9908105  18.1959227  32.9865939  59.4897735  23.3474129
  32.0992718  59.1523657  23.4700528  33.5564490  58.7580766  23.5842894
  14.6395086  55.8221827  16.6717180  15.3266126  55.5083557  16.0838196
  14.4843215  56.7263192  16.3984432  19.4429808  50.7112024  21.1002204
  19.3587997  50.1037693  20.3652614  18.6212515  51.2021042  21.1011700
  26.5167092  64.1499188  20.3135372  26.4437264  64.9554159  20.8254677
  26.0744485  64.3491153  19.4883393  26.3056872  63.3870958  13.8238194
  25.5224394  63.9292638  13.9176418  27.0049617  63.9044937  14.2232435
  29.6153522  49.1965587  16.4672399  30.1122222  48.4435549  16.1473469
  28.8440504  49.2329904  15.9015608  37.4683279  54.9005953  18.1090691
  37.4573156  55.7830668  17.7384624  36.6000659  54.5477503  17.9145228
  28.9765776  64.0486022  22.4693531  29.6893748  64.6833486  22.3969432
  28.4855804  64.1449888  21.6533533  30.6983303  57.9537274  14.0410822
  29.7639581  58.0738737  13.8715527  30.8759971  57.0509741  13.7770832
  26.1988491  51.3382970  16.1944084  25.8286278  50.7854010  16.8824989
  26.6947583  50.7341104  15.6419084  34.0855854  53.7954594  14.5760857
  34.5516306  54.6282585  14.5021159  34.5363355  53.3299575  15.2806115
  24.0277689  61.7980465  23.2899102  24.7287149  62.4316948  23.4428496
  23.5572804  62.1395197  22.5294741  32.1532085  60.1398415  11.5747009
  32.4291929  60.0255009  12.4840883  31.2836584  59.7415900  11.5359182
  32.0572517  46.1635181  18.6151758  31.1435597  46.3939407  18.7833965
  32.4865618  46.2473625  19.4665790  31.8278975  54.3525073  21.1151652
  31.1750426  54.6000980  20.4604105  32.2059355  53.5389211  20.7814129
  28.7886149  64.3884766  15.2179822  28.9708544  63.5706422  15.6807575
  29.6119135  64.6052458  14.7804712  29.1228315  63.3152951  12.4794871
  29.6516081  62.8045405  11.8665033  29.3856534  62.9995481  13.3440404
  27.8766548  55.0944884  27.6017689  27.2007185  54.9939013  28.2720064
  28.6994182  54.9384097  28.0653686  19.6245407  61.3316820  20.2230204
  20.2098844  60.5860508  20.3558108  19.4270246  61.6420777  21.1066868
  22.4784063  64.3668068  15.2392647  21.8094438  64.8514195  14.7556687
  22.3396932  64.6137288  16.1536025  14.2163062  53.9022420  18.9434647
  14.2547162  53.3686011  19.7371766  13.7103355  53.3757626  18.3245625
  26.6189331  66.4011811  21.8375305  27.1707639  66.5643433  22.6024390
  26.9595525  66.9916249  21.1655330  21.5953824  48.7486961  22.4397190
  21.6595151  49.6101792  22.0274587  21.5320945  48.1360963  21.7069548
  21.0706097  50.8210093  26.0870224  21.6978136  50.4387171  26.7007748
  20.2134016  50.6024295  26.4525916  31.4700206  61.2273069  27.6923959
  32.0140110  61.8403027  27.1978914  30.8887050  61.7852647  28.2090972
  29.7557718  64.3493787  18.8238987  29.6308858  63.5483526  18.3149933
  30.4136810  64.8439980  18.3352957  21.3765887  50.7042519  18.0016127
  20.6552472  51.3178487  17.8623601  22.1659142  51.2400284  17.9232773
  31.8192627  62.1502807  20.4518537  30.8722962  62.0308158  20.3796864
  32.1675400  61.2625305  20.5344799  24.1792200  48.0396946  24.2756779
  24.7026602  48.2859242  25.0383088  23.9604534  48.8716980  23.8559916
  28.8239060  61.9455523  16.6522889  28.6764023  61.0172230  16.8330460
  29.6492554  61.9675614  16.1679965  32.4273182  62.7684082  17.7387762
  33.3519729  62.5626943  17.6012213  32.2588485  62.5200483  18.6477104
  25.3844745  48.9810641  21.9606450  25.0441566  48.1818454  22.3627130
  24.6783752  49.2812352  21.3883283  26.0361217  46.0659953  20.4133773
  26.8587286  45.5920431  20.2912663  26.2799281  46.8450437  20.9132459
  23.5599796  52.7579074  18.2225751  23.4144377  53.0719377  19.1150033
  23.0825000  53.3763974  17.6696650  25.4196179  49.7481622  18.2706641
  25.4057748  48.8522715  17.9338939  26.1368607  49.7552285  18.9044927
  27.2722309  50.1818962  20.3159768  27.0140087  51.1036033  20.3144099
  26.7407350  49.7849396  21.0060232  32.2168498  63.2869749  13.0949854
  32.3905376  62.7216172  12.3423706  32.7097389  64.0870644  12.9129344
  18.0345458  55.2984418  21.1613412  17.4898926  56.0744226  21.2933687
  18.9124808  55.6455223  21.0032534  38.0707889  56.0506172  14.7140153
  38.5139035  55.3013497  14.3159277  37.1934400  56.0416308  14.3313885
  33.2043671  62.6036513  10.1946752  33.8994575  63.2243206  10.4134067
  33.5466821  61.7531865  10.4699130  18.8211480  54.4254314  24.0543569
  18.0793216  54.5736950  24.6408200  18.5004224  54.6862580  23.1910319
  35.1035094  60.0536219  11.7234083  35.6286418  60.3923492  10.9983403
  35.0157446  59.1183234  11.5397217  26.7655143  63.9670293  23.8523959
  27.0742269  63.7219439  24.7246659  27.5630625  64.1716931  23.3642830
  26.7875755  66.1208202  16.0829336  26.3480745  65.6284581  16.7762193
  27.5383872  65.5781170  15.8421411  19.2668094  62.3119743  16.0853964
  20.0926113  62.0123515  15.7052608  18.9162146  61.5427366  16.5343753
  24.2349627  61.6646211  18.1551638  23.6129636  61.0016916  17.8553865
  24.9054494  61.6907343  17.4725285  17.4676699  60.2306070  17.0442898
  16.6308607  59.8028244  16.8626899  17.4400344  60.4238513  17.9813689
  24.3074154  50.1427999  27.7484144  24.3562310  51.0190122  27.3661913
  24.8496668  49.6005392  27.1755787  34.7929000  60.6869123  27.0285281
  34.0024544  60.6693261  26.4889780  34.5562354  61.2257416  27.7834317
  34.9126875  57.5361589  24.3418009  34.9624880  57.3711596  25.2833532
  34.8040798  56.6688848  23.9515890  23.7963134  60.2150135  11.6310098
  23.9451254  60.8985599  10.9776771  24.6029577  60.1955225  12.1459554
  32.2030637  53.5192517  25.6577316  33.1040500  53.3798982  25.3661314
  32.2778612  53.6846972  26.5975493  26.5373443  50.8959372  24.5030502
  25.6676752  51.1892938  24.2313091  26.7732923  51.4799817  25.2237766
  36.4145072  59.9558531  24.5860031  36.1229880  60.3188511  25.4223492
  35.8017203  59.2425539  24.4073363  37.6140754  57.5211410  17.1062601
  38.4487645  57.9601214  17.2700161  37.7499883  57.0450064  16.2870847
  34.6632260  55.0791145  23.0540089  35.1386382  55.2718791  22.2458940
  33.7397825  55.1350331  22.8083472  29.2412477  47.1138989  22.0195923
  29.7594420  47.8500016  21.6942411  28.8867609  47.4202982  22.8542682
  29.4925071  43.5339271  17.5396819  29.7726824  42.8662460  18.1657246
  30.2775678  43.7268367  17.0271483  27.2958539  62.7098265   9.1021846
  26.7232506  63.3288452   8.6492317  27.8691333  63.2597627   9.6361767
  33.3633929  51.9556905  21.2868394  34.3151352  52.0555003  21.3080618
  33.1937379  51.1635174  21.7966479  31.3848308  49.0412488  21.4727795
  30.7898241  49.3217501  20.7774284  31.0998005  49.5306389  22.2444536
  30.5155799  62.9935415  10.2330428  31.4486472  62.9280977  10.4363303
  30.4279012  63.8291682   9.7744960  33.1443816  62.3101286   7.1934375
  33.0657447  61.9761149   8.0870133  33.9653482  62.8023054   7.1925848
  35.8422007  55.1763025  20.4010694  35.8098327  54.2379026  20.5870378
  36.4522630  55.2547062  19.6676519  35.9916495  51.9674068  20.4468977
  35.4755544  51.1832525  20.2598906  36.8756444  51.6392785  20.6115497
  33.6527222  45.7115084  16.4064790  33.4552043  45.4030172  17.2908122
  34.2626928  46.4376723  16.5362720  41.6598557  56.2379032  19.5416731
  42.3901945  55.9764320  20.1024434  41.0505502  55.5007754  19.5818799
  39.7413854  54.3786894  20.1391182  39.0147017  54.2442859  19.5307674
  39.3261141  54.6863723  20.9447900  27.5644030  58.0976824  27.9038555
  28.4847040  58.2755423  28.0978602  27.5293613  57.1532869  27.7518254
  20.5606103  56.0077859  20.5461336  20.7792113  56.9394967  20.5649370
  20.9731877  55.6485833  21.3316140  25.4333968  51.5811064  29.9364085
  25.3330695  52.5305421  29.8676176  25.2155510  51.2529303  29.0640155
  16.6514455  56.9118329  18.7984951  15.9577927  56.4972282  18.2854906
  17.3987446  56.9538866  18.2018370  31.2383242  47.1029574  15.8661306
  31.7383021  47.2146108  15.0575625  31.8818850  46.7990627  16.5062114
  25.2965238  55.0108203  28.7529147  24.8132320  55.8108563  28.9593036
  25.3826177  55.0216148  27.7996591  18.5651198  56.8436583  16.6750966
  18.5421886  56.9424270  15.7232849  18.8751834  57.6901734  16.9968132
  21.2238576  58.9012738  20.7897581  22.1781829  58.8696680  20.7227512
  21.0251099  58.4403362  21.6047806  21.8137958  57.4713854  23.3568378
  22.6330847  57.9657933  23.3803216  22.0874765  56.5545822  23.3285946
  34.9219090  49.8871127  16.4350673  35.6979480  50.3767580  16.7075290
  34.1967224  50.3129182  16.8922542  37.3591649  50.5998747  17.4924614
  37.9536140  50.3594483  16.7817922  37.4318232  49.8805877  18.1198150
  19.5788804  64.4432358  17.8067778  19.4443272  63.6832758  17.2405776
  19.1620867  65.1673257  17.3396567  31.5445578  55.3779142  12.9346624
  31.4880779  55.8347694  12.0954256  32.0973920  54.6169827  12.7569467
  35.3550384  51.1668874  13.7596743  35.0987318  50.7665510  14.5904951
  34.7303252  51.8812668  13.6346883  39.6662721  53.9064947  16.2668035
  39.1062279  53.9758137  17.0399597  39.0606225  53.7305932  15.5467531
  22.7357930  65.3401675  18.0186221  22.6190314  66.2847107  17.9164911
  21.9150377  65.0375236  18.4072020  32.6234465  60.0651810   8.8642814
  33.4580069  59.6333009   8.6820289  32.4618808  59.8933824   9.7919708
  32.2780357  56.5683924  10.2299153  32.2229161  56.4028195   9.2887597
  31.6526412  57.2759956  10.3861343  17.0672872  51.8051988  24.0560575
  17.7131736  51.2950942  24.5447800  16.8590023  52.5420670  24.6304001
  29.5926264  58.8732835  29.5552716  30.4617424  59.0473488  29.1939351
  29.1133016  59.6927252  29.4328445  23.7612444  65.9929936  21.2342149
  24.6639691  66.0253547  21.5508644  23.5349814  65.0630387  21.2488485
  25.5166046  64.7460923  17.8952228  24.5661677  64.7462785  17.7816600
  25.8198533  63.9993658  17.3788263  21.4070363  48.9519605  28.1535590
  22.2701825  48.5956410  28.3638914  20.8335774  48.6133500  28.8410994
  41.2518740  70.5821461  18.9597991  41.8897150  70.4628209  18.2561331
  41.1339583  71.5302305  19.0185943  38.0608446  70.5348889  18.8959515
  37.7226958  70.4189954  18.0080050  38.9298214  70.1340055  18.8760521
  33.9195262  72.3884366  14.8856406  33.3560127  72.2974303  14.1172694
  33.8047657  71.5684270  15.3658899  38.5428229  71.6883741  24.8545721
  38.5316870  71.2936539  23.9826224  38.7048869  70.9549814  25.4479492
  31.4659694  73.8835557  17.7240627  32.2580986  73.5426382  17.3086926
  31.7056344  73.9930533  18.6442780  39.4994821  76.0555334  10.1970871
  38.8482800  76.6409414   9.8104885  40.2939183  76.5861528  10.2565909
  33.4250448  73.1444471  10.5958005  34.1981324  72.5973458  10.4570881
  33.7775847  74.0088720  10.8072467  35.2635490  74.4720853  23.8024905
  34.9725356  75.3766484  23.6871571  35.8992475  74.5137381  24.5168974
  36.1891697  71.8497702  20.3926264  36.7855269  71.6253724  19.6783227
  36.2466669  71.1082447  20.9951712  35.7616726  69.3037137   8.2276455
  36.0142246  68.7818658   7.4659918  34.8241285  69.1403282   8.3303139
  40.8060008  68.3072915  16.0351199  41.5923098  67.8892338  15.6841616
  41.0698713  69.2119007  16.2032847  40.9770086  73.7445766  10.7339855
  40.3415919  73.8180392  11.4460760  40.6467492  74.3339364  10.0558935
  46.2068436  68.2448148  16.9384177  46.9393607  67.6747365  17.1722007
  45.4507791  67.8569749  17.3790683  35.4813014  71.2065243  10.4300830
  35.3649272  70.5310146  11.0981915  35.5915274  70.7197617   9.6132983
  37.8244555  70.6675390  14.1347520  37.4602762  70.1406011  14.8460441
  38.6811671  70.2773859  13.9614005  43.7293856  61.9569723  21.3978786
  43.3977181  62.8265133  21.1740001  43.1339469  61.6406007  22.0772816
  37.4650042  65.6965290   9.1308868  37.6324445  66.5645526   9.4979339
  37.2747211  65.8592571   8.2070157  40.2225375  74.1582268  20.7974698
  39.9226098  75.0607307  20.6890506  39.8776435  73.8914452  21.6495851
  33.6737857  70.6096065  16.8311403  32.7488353  70.4772279  17.0389095
  33.9222270  71.3890285  17.3281345  43.6222519  66.6764809  18.4772136
  42.7139397  66.6080217  18.1830897  43.5710115  67.1536754  19.3053961
  37.4439263  68.1522947  10.1155535  37.3238888  68.5979998  10.9541015
  36.7491851  68.5008265   9.5569073  31.0346668  70.2529339  17.6655192
  31.1639049  70.5063818  18.5794604  30.3544119  70.8457047  17.3459847
  35.2046155  80.9226589  13.7645666  35.1270185  81.8734414  13.8434147
  34.6007799  80.5772461  14.4220592  37.6963385  68.0954454  26.4207033
  36.9196719  68.6548374  26.4109898  38.3353948  68.5811237  26.9421903
  45.4884166  64.8781247  20.2550010  44.8458546  65.1713780  19.6089804
  44.9839094  64.7634167  21.0603206  43.1424329  68.6244420  10.9435869
  44.0542185  68.8571807  10.7683566  42.6333976  69.2081464  10.3810948
  35.9509757  70.9039908  25.9825000  36.6924442  71.4424952  25.7059824
  35.2446743  71.5306196  26.1396552  41.4265097  73.0469048  24.5797161
  41.8348453  72.6051459  23.8351794  40.7042358  72.4721676  24.8331354
  37.7796167  67.9841655  21.9530718  38.6257362  68.4081068  22.0965367
  37.7194805  67.3275279  22.6469282  41.7493912  73.6070239  18.3349450
  41.1202774  73.7715953  17.6325518  41.3619574  74.0211848  19.1060414
  45.6283143  74.5424677  15.6893814  44.9434182  74.9223578  15.1390847
  45.7126993  75.1520003  16.4225762  40.9295612  65.6446023  23.6111892
  40.6856544  66.3988084  23.0746168  41.2055543  66.0231371  24.4459139
  42.8834075  72.1884636  22.2889158  43.0950970  72.8316395  21.6123539
  42.8363823  71.3546952  21.8211088  40.4860304  64.8002456  19.1925730
  39.6244783  65.0983710  19.4842467  40.5122739  65.0172855  18.2606762
  37.3021873  73.3444647  15.5999535  37.7660219  73.6232350  14.8104158
  37.0378672  72.4428091  15.4172626  34.1945955  72.8916128  18.5379299
  34.7647312  73.3203397  17.8996783  34.7854066  72.6098713  19.2363484
  36.2390760  69.4667799  12.4089101  36.9414803  69.9188843  12.8763027
  35.9071388  68.8251618  13.0368994  34.6871121  68.0579556  26.7840310
  34.0569782  68.7395837  27.0175707  34.5807209  67.9462637  25.8393448
  29.9816093  67.7251352  17.7106234  29.1915147  67.9808880  17.2346345
  30.4727341  68.5399690  17.8158275  43.9979903  75.0656591  20.4611515
  44.8197347  74.6636778  20.1794197  43.9942306  74.9624825  21.4127631
  31.9330839  68.0895931  14.6689711  31.1362002  68.2014625  15.1873207
  31.7056431  68.4282583  13.8030601  37.7636506  74.6140634  22.6172226
  37.8280939  75.0761042  23.4530397  37.0547430  73.9837999  22.7454535
  28.2653796  67.9781842  20.1421225  28.5161835  68.8628852  20.4078801
  28.8013345  67.7986444  19.3696317  52.0885896  71.4095339  16.8096486
  51.3349604  70.8402738  16.6540491  52.2233437  71.3758004  17.7567121
  37.4784524  76.2808742  12.4851206  37.3430199  77.1260278  12.9136054
  38.0194337  76.4828019  11.7217140  33.9651864  62.3600322  29.1465561
  33.5718809  61.8066520  29.8213205  34.7818004  62.6710900  29.5372079
  30.9313922  73.7984180  13.0579131  31.4438442  74.5927430  13.2084696
  31.5836634  73.1010470  12.9912732  32.7408806  76.9149936  15.1401884
  32.9175435  77.8367901  14.9522868  33.5365640  76.6008355  15.5696264
  36.8819825  63.7758201  26.7385818  37.6229538  64.3765354  26.6590280
  37.1137748  63.0335839  26.1803860  32.0261163  68.9614568  25.0164047
  31.9114678  68.0599825  25.3171146  31.1705681  69.2078265  24.6648864
  39.1053001  76.9032308  26.6151548  38.6616855  76.1168687  26.2972452
  39.7670214  77.0911459  25.9495439  33.8640122  78.4328110  21.1412226
  34.4147547  78.3045173  20.3689220  33.0251598  78.7322999  20.7907119
  41.2034239  77.1835108  24.6432949  41.1852714  78.0043989  24.1513218
  42.1254159  77.0589183  24.8683090  37.6607293  74.6979238  25.4856458
  38.1935630  73.9367526  25.2555766  37.1321374  74.4052890  26.2280612
  40.8276988  59.8039304  21.0150099  40.4841257  60.6940945  20.9389210
  41.1955950  59.6140961  20.1519684  28.8962838  72.1272834  13.8338701
  29.7338060  72.5369843  13.6172409  29.0741106  71.1872276  13.8038895
  40.7927270  69.7947915   9.5222534  40.2773894  70.5652519   9.7610922
  40.5204579  69.1213051  10.1455596  38.3774381  64.6397616  14.5807773
  37.5215978  64.2504466  14.4013411  38.7901333  64.7189576  13.7207558
  39.9073528  62.1743959  18.9799333  39.4038324  62.1374094  18.1667138
  40.2004135  63.0836702  19.0395989  36.1516414  62.2582689  17.9865514
  37.0169411  62.0625497  17.6271404  36.2193923  62.0293040  18.9134871
  45.7661545  72.5480269  11.4575708  44.9890987  72.2091429  11.0130870
  46.4453026  72.5532893  10.7830673  40.5813574  67.6675007  11.3482316
  40.2763709  67.9821156  12.1992459  41.5344016  67.7456427  11.3909649
  39.0260005  73.8265230  12.9975270  38.4981367  73.0917990  12.6848507
  38.5247508  74.6039907  12.7515238  44.0052851  72.0214251  18.1142316
  43.3476526  72.7113512  18.2022444  44.8093251  72.4110683  18.4576302
  33.7578733  64.4884896  15.3581881  34.3322485  64.2660078  14.6255074
  34.3449715  64.5573591  16.1110482  42.8158310  70.3758623  16.1646258
  43.3290192  71.0088615  16.6667967  43.4659534  69.7759819  15.7989618
  34.0848320  66.5189358   9.3777766  33.2485632  66.8564044   9.6987041
  33.9453090  66.3838337   8.4404903  36.0601401  61.3626145  14.0856951
  35.4065813  61.0475163  13.4613565  36.0181875  60.7401886  14.8116773
  37.1712606  71.6445440   6.0010243  36.2639667  71.4134694   6.2001392
  37.6683638  70.8483060   6.1884224  40.0780684  80.3542948   8.9206929
  39.4042383  80.6574644   9.5291887  40.4646506  81.1572028   8.5712386
  39.2939141  67.8508079  18.4104598  38.3761702  68.0723026  18.2526286
  39.7099285  67.9254389  17.5516305  40.0774189  69.2499495  13.5407278
  40.8246008  69.7620892  13.2314400  40.3465778  68.9283547  14.4011672
  38.3500839  71.7458035  10.5234233  37.4412058  71.4617068  10.6206702
  38.3795923  72.1657114   9.6637540  43.5820106  75.3564625  14.2925400
  43.1282434  74.5155535  14.3490591  42.9514073  75.9926023  14.6300180
  42.5253026  66.2856611  15.5226068  41.7875783  65.7733997  15.8536310
  42.7779800  65.8456992  14.7109345  42.0253046  77.1941122  15.2275218
  42.3176020  77.7546179  14.5087584  42.5351666  77.4869683  15.9828377
  42.6264653  59.0632863  16.1167837  42.9323530  58.2030226  15.8293752
  43.3517258  59.6550483  15.9166831  28.9189009  69.4663549  14.5049435
  28.7213409  68.8732910  13.7800501  28.3635673  69.1615760  15.2225374
  36.8985733  69.3586656  16.6244028  36.9534343  68.4060492  16.5486505
  36.0876935  69.5146095  17.1085326  38.0476927  73.2866779   7.8622311
  37.6096357  72.5702638   7.4027949  38.7887368  73.5142894   7.3007403
  34.8378093  67.9763716  14.3834407  34.0245959  68.2757886  14.7899599
  35.3337087  67.5819404  15.1008889  36.9886671  77.9721473  16.3168672
  36.9462850  78.1982319  15.3877204  37.9049370  77.7384847  16.4654473
  40.4352305  68.4405540  23.2149301  40.7901692  68.6677013  24.0743767
  41.0824436  68.7723917  22.5926556  46.1650042  71.5623976  13.9198630
  46.0267940  71.7525572  12.9919819  45.8086260  72.3243359  14.3766681
  34.3292168  65.5482071  19.9995642  34.9691547  65.4070830  19.3018605
  33.4969698  65.2616585  19.6234244  46.1919421  73.6300503  18.9309901
  46.6255928  73.5375792  19.7792955  46.9051002  73.6058004  18.2929917
  35.1052472  74.8484502  16.1130634  35.8993070  74.3534822  15.9113209
  34.3944164  74.3202365  15.7498340  39.9247316  77.2302597  20.4643002
  39.9784338  77.7993533  21.2320718  39.0562098  77.4004482  20.0997039
  31.4135235  68.9927583  12.1890387  30.4832823  68.9312039  12.4060349
  31.5092707  68.4703536  11.3927028  31.3320784  65.5182396  14.7768629
  31.5927601  66.4327729  14.6677789  32.1537957  65.0506839  14.9265241
  32.8045710  66.9320153  21.9467453  33.4768763  66.7237515  21.2980102
  31.9775496  66.7342239  21.5072685  47.0534971  73.6724204  21.4642787
  47.2470861  74.5770014  21.7102062  46.9535589  73.2131623  22.2981372
  38.7071282  63.5582094  23.9633114  38.0599197  64.2572044  23.8697590
  39.4772297  63.9918238  24.3309362  42.1150079  73.8230946  27.0383667
  41.9635586  73.5941498  26.1213751  42.1054759  74.7801548  27.0515012
  38.8835416  71.3962859  22.0229934  39.8127476  71.5474019  21.8498901
  38.4626446  71.4846880  21.1678580  37.6823748  75.4213524  19.7928471
  37.5434833  75.0532308  20.6654410  36.8938344  75.9361163  19.6212429
  38.2771900  80.5222620  11.1354008  38.4523655  80.0510663  11.9499631
  37.5904688  81.1488386  11.3635269  39.2328963  74.7995126  17.1817309
  38.8978795  74.7595896  18.0774959  38.7332908  74.1339842  16.7087719
  33.2073207  70.2062756  22.7069890  33.0693005  69.4742995  23.3081429
  34.1178130  70.1171656  22.4254078  42.1688154  72.1451161   7.4554369
  41.5517325  71.4197989   7.3587422  41.7004643  72.9060521   7.1121443
  35.8355507  69.9182716  22.1953570  36.5455126  69.2775908  22.1540188
  35.7924816  70.1695611  23.1179751  43.8242286  76.8550069  25.1160149
  43.7654832  76.1709289  24.4490732  44.2261805  77.5969059  24.6640775
  34.5484441  66.9047934  24.0149209  34.0121798  66.4538672  24.6670806
  33.9601150  67.0393842  23.2719674  32.8432985  83.6711983  17.9093868
  33.0829583  84.3030507  18.5872887  32.0002181  83.3200023  18.1959227
  33.9586700  66.3636585   6.5775673  33.0816167  66.2425386   6.2137920
  34.4344453  65.5722663   6.3254562  43.8259693  74.8189653  23.3474129
  42.9386472  74.4815575  23.4700528  44.3958244  74.0872684  23.5842894
  25.4788841  71.1513745  16.6717180  26.1659880  70.8375475  16.0838196
  25.3236969  72.0555109  16.3984432  30.2823563  66.0403941  21.1002204
  30.1981751  65.4329611  20.3652614  29.4606269  66.5312960  21.1011700
  37.3560847  79.4791105  20.3135372  37.2831018  80.2846077  20.8254677
  36.9138240  79.6783071  19.4883393  37.1450626  78.7162875  13.8238194
  36.3618148  79.2584555  13.9176418  37.8443372  79.2336855  14.2232435
  40.4547277  64.5257505  16.4672399  40.9515976  63.7727467  16.1473469
  39.6834258  64.5621821  15.9015608  48.3077034  70.2297870  18.1090691
  48.2966910  71.1122586  17.7384624  47.4394413  69.8769421  17.9145228
  39.8159530  79.3777939  22.4693531  40.5287503  80.0125404  22.3969432
  39.3249559  79.4741805  21.6533533  41.5377057  73.2829192  14.0410822
  40.6033336  73.4030654  13.8715527  41.7153726  72.3801659  13.7770832
  37.0382245  66.6674888  16.1944084  36.6680033  66.1145928  16.8824989
  37.5341338  66.0633021  15.6419084  44.9249609  69.1246511  14.5760857
  45.3910061  69.9574503  14.5021159  45.3757109  68.6591493  15.2806115
  34.8671444  77.1272383  23.2899102  35.5680903  77.7608866  23.4428496
  34.3966559  77.4687114  22.5294741  42.9925840  75.4690333  11.5747009
  43.2685684  75.3546927  12.4840883  42.1230338  75.0707817  11.5359182
  42.8966271  61.4927098  18.6151758  41.9829351  61.7231325  18.7833965
  43.3259373  61.5765542  19.4665790  42.6672730  69.6816990  21.1151652
  42.0144180  69.9292898  20.4604105  43.0453110  68.8681128  20.7814129
  39.6279904  79.7176683  15.2179822  39.8102298  78.8998339  15.6807575
  40.4512890  79.9344376  14.7804712  39.9622069  78.6444869  12.4794871
  40.4909836  78.1337323  11.8665033  40.2250289  78.3287399  13.3440404
  38.7160303  70.4236801  27.6017689  38.0400940  70.3230931  28.2720064
  39.5387937  70.2676015  28.0653686  30.4639162  76.6608738  20.2230204
  31.0492599  75.9152426  20.3558108  30.2664000  76.9712695  21.1066868
  33.3177817  79.6959985  15.2392647  32.6488192  80.1806113  14.7556687
  33.1790687  79.9429206  16.1536025  25.0556817  69.2314338  18.9434647
  25.0940916  68.6977929  19.7371766  24.5497109  68.7049544  18.3245625
  37.4583086  81.7303729  21.8375305  38.0101394  81.8935350  22.6024390
  37.7989279  82.3208167  21.1655330  32.4347579  64.0778879  22.4397190
  32.4988905  64.9393709  22.0274587  32.3714699  63.4652880  21.7069548
  31.9099851  66.1502011  26.0870224  32.5371890  65.7679088  26.7007748
  31.0527770  65.9316213  26.4525916  42.3093960  76.5564986  27.6923959
  42.8533864  77.1694945  27.1978914  41.7280805  77.1144565  28.2090972
  28.6865394  67.9578440  12.0188579  28.9818835  67.0489119  11.9655632
  27.7853430  67.9366180  11.6969581  40.5951473  79.6785704  18.8238987
  40.4702612  78.8775444  18.3149933  41.2530564  80.1731898  18.3352957
  32.2159641  66.0334437  18.0016127  31.4946227  66.6470404  17.8623601
  33.0052897  66.5692202  17.9232773  42.6586381  77.4794724  20.4518537
  41.7116717  77.3600076  20.3796864  43.0069154  76.5917222  20.5344799
  35.0185955  63.3688863  24.2756779  35.5420357  63.6151160  25.0383088
  34.7998288  64.2008898  23.8559916  30.4153236  65.6392538  12.1427904
  30.0865942  64.7589917  11.9603010  30.7692606  65.5840207  13.0304293
  39.6632815  77.2747441  16.6522889  39.5157777  76.3464148  16.8330460
  40.4886308  77.2967531  16.1679965  33.5295059  65.9265508  12.5103382
  33.8691131  66.4551429  11.7881990  33.9767179  66.2645914  13.2861948
  43.2666937  78.0975999  17.7387762  44.1913484  77.8918861  17.6012213
  43.0982240  77.8492400  18.6477104  36.2238500  64.3102558  21.9606450
  35.8835320  63.5110371  22.3627130  35.5177506  64.6104269  21.3883283
  36.8754972  61.3951871  20.4133773  37.6981041  60.9212349  20.2912663
  37.1193035  62.1742355  20.9132459  35.5163206  64.4240129  10.7096674
  36.2371569  64.8021382  10.2060391  34.8928510  65.1429006  10.8131652
  39.6594329  65.1285278  11.6455007  39.8757943  66.0109916  11.3443835
  39.1788396  64.7371492  10.9160649  34.3993550  68.0870991  18.2225751
  34.2538131  68.4011295  19.1150033  33.9218754  68.7055892  17.6696650
  36.2589933  65.0773539  18.2706641  36.2451502  64.1814633  17.9338939
  36.9762361  65.0844203  18.9044927  38.1116064  65.5110880  20.3159768
  37.8533842  66.4327950  20.3144099  37.5801104  65.1141314  21.0060232
  43.0562253  78.6161667  13.0949854  43.2299130  78.0508089  12.3423706
  43.5491144  79.4162562  12.9129344  28.8739213  70.6276336  21.1613412
  28.3292681  71.4036144  21.2933687  29.7518562  70.9747140  21.0032534
  35.6626829  63.9587920  13.5394211  35.7842740  63.0304566  13.7385099
  35.3728872  63.9726606  12.6272526  38.5318020  61.6442830  16.6760931
  38.5539716  61.7082163  15.7212910  38.9486079  60.8047339  16.8701437
  48.9101644  71.3798090  14.7140153  49.3532790  70.6305415  14.3159277
  48.0328154  71.3708226  14.3313885  44.0437425  77.9328431  10.1946752
  44.7388330  78.5535124  10.4134067  44.3860575  77.0823782  10.4699130
  29.6605234  69.7546232  24.0543569  28.9186970  69.9028867  24.6408200
  29.3397979  70.0154498  23.1910319  45.9428848  75.3828137  11.7234083
  46.4680172  75.7215409  10.9983403  45.8551201  74.4475152  11.5397217
  37.6048897  79.2962210  23.8523959  37.9136023  79.0511357  24.7246659
  38.4024379  79.5008849  23.3642830  37.6269509  81.4500120  16.0829336
  37.1874499  80.9576499  16.7762193  38.3777626  80.9073088  15.8421411
  30.1061848  77.6411661  16.0853964  30.9319868  77.3415433  15.7052608
  29.7555900  76.8719283  16.5343753  35.0743381  76.9938129  18.1551638
  34.4523391  76.3308834  17.8553865  35.7448248  77.0199261  17.4725285
  28.3070453  75.5597987  17.0442898  27.4702361  75.1320162  16.8626899
  28.2794099  75.7530431  17.9813689  35.1467909  65.4719917  27.7484144
  35.1956064  66.3482040  27.3661913  35.6890423  64.9297310  27.1755787
  45.6322754  76.0161040  27.0285281  44.8418298  75.9985179  26.4889780
  45.3956109  76.5549334  27.7834317  45.7520629  72.8653507  24.3418009
  45.8018634  72.7003514  25.2833532  45.6434553  71.9980766  23.9515890
  34.6356888  75.5442052  11.6310098  34.7845009  76.2277517  10.9776771
  35.4423332  75.5247142  12.1459554  43.0424392  68.8484435  25.6577316
  43.9434255  68.7090900  25.3661314  43.1172366  69.0138890  26.5975493
  37.3767197  66.2251289  24.5030502  36.5070507  66.5184856  24.2313091
  37.6126678  66.8091734  25.2237766  47.2538826  75.2850448  24.5860031
  46.9623635  75.6480429  25.4223492  46.6410958  74.5717456  24.4073363
  48.4534509  72.8503328  17.1062601  49.2881400  73.2893132  17.2700161
  48.5893637  72.3741981  16.2870847  45.5026015  70.4083063  23.0540089
  45.9780136  70.6010709  22.2458940  44.5791580  70.4642249  22.8083472
  32.3909521  71.5707230  12.6371167  32.1455563  70.6669560  12.8351377
  32.5605436  71.5724380  11.6950645  40.0806231  62.4430906  22.0195923
  40.5988175  63.1791933  21.6942411  39.7261364  62.7494900  22.8542682
  31.6605169  67.3035588  10.1357329  30.9674414  67.3779943   9.4797364
  31.4156921  66.5395931  10.6578845  40.3318825  58.8631189  17.5396819
  40.6120579  58.1954378  18.1657246  41.1169432  59.0560285  17.0271483
  38.1352294  78.0390183   9.1021846  37.5626261  78.6580370   8.6492317
  38.7085087  78.5889545   9.6361767  44.2027684  67.2848823  21.2868394
  45.1545106  67.3846921  21.3080618  44.0331134  66.4927091  21.7966479
  42.2242063  64.3704406  21.4727795  41.6291995  64.6509419  20.7774284
  41.9391760  64.8598307  22.2444536  41.3549553  78.3227333  10.2330428
  42.2880227  78.2572895  10.4363303  41.2672766  79.1583600   9.7744960
  43.9837570  77.6393203   7.1934375  43.9051202  77.3053067   8.0870133
  44.8047237  78.1314971   7.1925848  46.6815761  70.5054943  20.4010694
  46.6492081  69.5670943  20.5870378  47.2916385  70.5838979  19.6676519
  38.5199092  69.3750996   6.4437898  39.4658197  69.2457204   6.5126316
  38.1413337  68.6365657   6.9207326  46.8310250  67.2965986  20.4468977
  46.3149298  66.5124443  20.2598906  47.7150198  66.9684703  20.6115497
  44.4920977  61.0407002  16.4064790  44.2945798  60.7322090  17.2908122
  45.1020682  61.7668641  16.5362720  52.4992311  71.5670949  19.5416731
  53.2295700  71.3056238  20.1024434  51.8899257  70.8299671  19.5818799
  50.5807608  69.7078812  20.1391182  49.8540772  69.5734777  19.5307674
  50.1654895  70.0155641  20.9447900  38.4037785  73.4268742  27.9038555
  39.3240794  73.6047341  28.0978602  38.3687368  72.4824787  27.7518254
  36.7042009  67.3000972   6.3792783  35.7973465  67.0034085   6.4555497
  36.9817990  67.0030790   5.5127070  27.6219950  68.6207335  16.8291830
  27.3022734  67.7672644  16.5366204  27.0753378  68.8355914  17.5849797
  31.3999857  71.3369776  20.5461336  31.6185867  72.2686884  20.5649370
  31.8125631  70.9777751  21.3316140  38.3204075  61.8437862  12.5337025
  37.5104803  61.4984947  12.9092271  39.0088492  61.5345405  13.1224636
  40.2494623  60.9215909  14.1561321  40.8025662  61.3411362  14.8151344
  40.4864710  59.9951657  14.1984277  36.2727723  66.9102982  29.9364085
  36.1724449  67.8597339  29.8676176  36.0549265  66.5821221  29.0640155
  35.4740794  64.1587907   6.5204762  36.3359958  64.4842806   6.7800580
  35.6591138  63.3719403   6.0077828  27.4908210  72.2410247  18.7984951
  26.7971681  71.8264200  18.2854906  28.2381201  72.2830783  18.2018370
  43.6273430  63.0316434  13.6639985  43.0472099  63.6901238  13.2818038
  43.3609363  62.2093778  13.2527403  42.0776997  62.4321491  15.8661306
  42.5776775  62.5438026  15.0575625  42.7212605  62.1282544  16.5062114
  36.1358993  70.3400121  28.7529147  35.6526074  71.1400481  28.9593036
  36.2219932  70.3508066  27.7996591  29.4044952  72.1728501  16.6750966
  29.3815640  72.2716188  15.7232849  29.7145589  73.0193651  16.9968132
  32.0632330  74.2304656  20.7897581  33.0175584  74.1988598  20.7227512
  31.8644854  73.7695279  21.6047806  32.6531712  72.8005772  23.3568378
  33.4724601  73.2949850  23.3803216  32.9268520  71.8837740  23.3285946
  42.4098308  65.1916524  12.7196334  41.5224163  65.4766175  12.5016528
  42.8252298  65.0310287  11.8723611  45.7612845  65.2163045  16.4350673
  46.5373235  65.7059497  16.7075290  45.0360979  65.6421099  16.8922542
  48.1985403  65.9290664  17.4924614  48.7929894  65.6886400  16.7817922
  48.2711987  65.2097795  18.1198150  30.4182559  79.7724275  17.8067778
  30.2837027  79.0124676  17.2405776  30.0014621  80.4965175  17.3396567
  41.5541522  74.9561199   6.8144354  42.2577372  75.1611201   7.4302009
  40.8304171  75.5237961   7.0793437  42.3839332  70.7071060  12.9346624
  42.3274534  71.1639611  12.0954256  42.9367675  69.9461745  12.7569467
  46.1944138  66.4960792  13.7596743  45.9381072  66.0957428  14.5904951
  45.5697006  67.2104586  13.6346883  50.5056476  69.2356865  16.2668035
  49.9456034  69.3050054  17.0399597  49.8999979  69.0597850  15.5467531
  33.5751685  80.6693592  18.0186221  33.4584069  81.6139025  17.9164911
  32.7544131  80.3667154  18.4072020  43.4628219  75.3943728   8.8642814
  44.2973823  74.9624926   8.6820289  43.3012562  75.2225742   9.7919708
  43.1174111  71.8975841  10.2299153  43.0622915  71.7320113   9.2887597
  42.4920167  72.6051874  10.3861343  27.9066626  67.1343906  24.0560575
  28.5525490  66.6242860  24.5447800  27.6983778  67.8712587  24.6304001
  40.4320019  74.2024753  29.5552716  41.3011178  74.3765405  29.1939351
  39.9526770  75.0219170  29.4328445  36.4270237  61.3983950   9.8084471
  36.4148907  62.3425790   9.9652742  37.3193659  61.2154096   9.5143933
  34.6006199  81.3221854  21.2342149  35.5033446  81.3545464  21.5508644
  34.3743569  80.3922305  21.2488485  36.3559801  80.0752841  17.8952228
  35.4055432  80.0754702  17.7816600  36.6592287  79.3285575  17.3788263
  40.2422356  57.9926727  14.0630408  39.4754752  57.4385214  14.2087091
  40.6533061  58.0648596  14.9244560  32.2464117  64.2811523  28.1535590
  33.1095579  63.9248328  28.3638914  31.6729528  63.9425417  28.8410994
  52.0912494  85.9113379  18.9597991  52.7290904  85.7920126  18.2561331
  51.9733337  86.8594223  19.0185943  48.9002201  85.8640807  18.8959515
  48.5620712  85.7481872  18.0080050  49.7691969  85.4631972  18.8760521
  44.7589016  87.7176284  14.8856406  44.1953882  87.6266220  14.1172694
  44.6441411  86.8976188  15.3658899  49.3821984  87.0175659  24.8545721
  49.3710624  86.6228457  23.9826224  49.5442623  86.2841731  25.4479492
  42.3053448  89.2127475  17.7240627  43.0974740  88.8718300  17.3086926
  42.5450098  89.3222450  18.6442780  50.3388575  91.3847251  10.1970871
  49.6876555  91.9701332   9.8104885  51.1332938  91.9153446  10.2565909
  44.2644202  88.4736388  10.5958005  45.0375078  87.9265375  10.4570881
  44.6169601  89.3380638  10.8072467  46.1029245  89.8012771  23.8024905
  45.8119111  90.7058402  23.6871571  46.7386229  89.8429298  24.5168974
  47.0285452  87.1789619  20.3926264  47.6249024  86.9545642  19.6783227
  47.0860423  86.4374365  20.9951712  46.6010480  84.6329055   8.2276455
  46.8536001  84.1110576   7.4659918  45.6635039  84.4695200   8.3303139
  51.6453763  83.6364833  16.0351199  52.4316852  83.2184256  15.6841616
  51.9092467  84.5410925  16.2032847  51.8163840  89.0737683  10.7339855
  51.1809673  89.1472310  11.4460760  51.4861247  89.6631282  10.0558935
  57.0462190  83.5740066  16.9384177  57.7787362  83.0039283  17.1722007
  56.2901546  83.1861667  17.3790683  46.3206769  86.5357160  10.4300830
  46.2043027  85.8602064  11.0981915  46.4309029  86.0489534   9.6132983
  48.6638310  85.9967308  14.1347520  48.2996517  85.4697929  14.8460441
  49.5205426  85.6065777  13.9614005  54.5687610  77.2861640  21.3978786
  54.2370935  78.1557051  21.1740001  53.9733224  76.9697924  22.0772816
  48.3043797  81.0257207   9.1308868  48.4718199  81.8937444   9.4979339
  48.1140966  81.1884489   8.2070157  51.0619130  89.4874186  20.7974698
  50.7619853  90.3899225  20.6890506  50.7170189  89.2206369  21.6495851
  44.5131611  85.9387983  16.8311403  43.5882108  85.8064197  17.0389095
  44.7616025  86.7182202  17.3281345  54.4616274  82.0056726  18.4772136
  53.5533151  81.9372135  18.1830897  54.4103869  82.4828671  19.3053961
  48.2833018  83.4814865  10.1155535  48.1632643  83.9271916  10.9541015
  47.5885606  83.8300182   9.5569073  41.8740422  85.5821257  17.6655192
  42.0032804  85.8355735  18.5794604  41.1937874  86.1748965  17.3459847
  46.0439910  96.2518507  13.7645666  45.9663939  97.2026332  13.8434147
  45.4401553  95.9064379  14.4220592  48.5357139  83.4246372  26.4207033
  47.7590474  83.9840292  26.4109898  49.1747703  83.9103155  26.9421903
  56.3277920  80.2073165  20.2550010  55.6852300  80.5005698  19.6089804
  55.8232849  80.0926085  21.0603206  53.9818084  83.9536338  10.9435869
  54.8935940  84.1863725  10.7683566  53.4727731  84.5373382  10.3810948
  46.7903512  86.2331825  25.9825000  47.5318196  86.7716869  25.7059824
  46.0840497  86.8598114  26.1396552  52.2658851  88.3760966  24.5797161
  52.6742207  87.9343376  23.8351794  51.5436113  87.8013593  24.8331354
  48.6189921  83.3133573  21.9530718  49.4651117  83.7372986  22.0965367
  48.5588559  82.6567197  22.6469282  52.5887666  88.9362156  18.3349450
  51.9596529  89.1007871  17.6325518  52.2013328  89.3503766  19.1060414
  56.4676898  89.8716594  15.6893814  55.7827936  90.2515496  15.1390847
  56.5520747  90.4811921  16.4225762  51.7689367  80.9737941  23.6111892
  51.5250299  81.7280001  23.0746168  52.0449297  81.3523289  24.4459139
  53.7227830  87.5176553  22.2889158  53.9344725  88.1608313  21.6123539
  53.6757578  86.6838870  21.8211088  51.3254059  80.1294374  19.1925730
  50.4638538  80.4275627  19.4842467  51.3516493  80.3464773  18.2606762
  48.1415628  88.6736564  15.5999535  48.6053973  88.9524267  14.8104158
  47.8772426  87.7720009  15.4172626  45.0339709  88.2208046  18.5379299
  45.6041066  88.6495314  17.8996783  45.6247821  87.9390631  19.2363484
  47.0784514  84.7959717  12.4089101  47.7808557  85.2480761  12.8763027
  46.7465142  84.1543536  13.0368994  45.5264876  83.3871473  26.7840310
  44.8963536  84.0687754  27.0175707  45.4200963  83.2754555  25.8393448
  40.8209848  83.0543270  17.7106234  40.0308902  83.3100798  17.2346345
  41.3121095  83.8691607  17.8158275  54.8373658  90.3948509  20.4611515
  55.6591101  89.9928696  20.1794197  54.8336060  90.2916743  21.4127631
  42.7724593  83.4187849  14.6689711  41.9755757  83.5306543  15.1873207
  42.5450186  83.7574501  13.8030601  48.6030261  89.9432552  22.6172226
  48.6674693  90.4052959  23.4530397  47.8941185  89.3129917  22.7454535
  39.1047551  83.3073760  20.1421225  39.3555589  84.1920770  20.4078801
  39.6407099  83.1278361  19.3696317  62.9279651  86.7387257  16.8096486
  62.1743359  86.1694655  16.6540491  63.0627192  86.7049922  17.7567121
  48.3178279  91.6100659  12.4851206  48.1823953  92.4552195  12.9136054
  48.8588091  91.8119937  11.7217140  44.8045618  77.6892239  29.1465561
  44.4112564  77.1358438  29.8213205  45.6211759  78.0002818  29.5372079
  41.7707676  89.1276098  13.0579131  42.2832197  89.9219348  13.2084696
  42.4230389  88.4302388  12.9912732  43.5802561  92.2441854  15.1401884
  43.7569189  93.1659818  14.9522868  44.3759394  91.9300273  15.5696264
  47.7213579  79.1050118  26.7385818  48.4623293  79.7057272  26.6590280
  47.9531502  78.3627756  26.1803860  42.8654917  84.2906486  25.0164047
  42.7508432  83.3891743  25.3171146  42.0099435  84.5370182  24.6648864
  49.9446755  92.2324226  26.6151548  49.5010609  91.4460605  26.2972452
  50.6063969  92.4203376  25.9495439  44.7033876  93.7620028  21.1412226
  45.2541301  93.6337091  20.3689220  43.8645352  94.0614917  20.7907119
  52.0427993  92.5127026  24.6432949  52.0246468  93.3335907  24.1513218
  52.9647913  92.3881101  24.8683090  48.5001047  90.0271155  25.4856458
  49.0329384  89.2659444  25.2555766  47.9715128  89.7344807  26.2280612
  51.6670742  75.1331221  21.0150099  51.3235012  76.0232863  20.9389210
  52.0349705  74.9432879  20.1519684  39.7356593  87.4564752  13.8338701
  40.5731815  87.8661760  13.6172409  39.9134860  86.5164194  13.8038895
  51.6321025  85.1239832   9.5222534  51.1167648  85.8944437   9.7610922
  51.3598333  84.4504969  10.1455596  49.2168136  79.9689533  14.5807773
  48.3609732  79.5796384  14.4013411  49.6295088  80.0481494  13.7207558
  50.7467283  77.5035877  18.9799333  50.2432078  77.4666012  18.1667138
  51.0397889  78.4128619  19.0395989  46.9910168  77.5874606  17.9865514
  47.8563165  77.3917415  17.6271404  47.0587677  77.3584958  18.9134871
  56.6055299  87.8772187  11.4575708  55.8284742  87.5383347  11.0130870
  57.2846780  87.8824810  10.7830673  51.4207328  82.9966925  11.3482316
  51.1157464  83.3113074  12.1992459  52.3737770  83.0748344  11.3909649
  49.8653760  89.1557148  12.9975270  49.3375121  88.4209907  12.6848507
  49.3641263  89.9331824  12.7515238  54.8446606  87.3506168  18.1142316
  54.1870280  88.0405430  18.2022444  55.6487005  87.7402600  18.4576302
  44.5972488  79.8176814  15.3581881  45.1716239  79.5951996  14.6255074
  45.1843470  79.8865509  16.1110482  53.6552065  85.7050541  16.1646258
  54.1683946  86.3380533  16.6667967  54.3053289  85.1051737  15.7989618
  44.9242075  81.8481275   9.3777766  44.0879387  82.1855962   9.6987041
  44.7846844  81.7130255   8.4404903  46.8995155  76.6918063  14.0856951
  46.2459568  76.3767080  13.4613565  46.8575629  76.0693804  14.8116773
  48.0106360  86.9737358   6.0010243  47.1033422  86.7426612   6.2001392
  48.5077392  86.1774977   6.1884224  50.9174439  95.6834865   8.9206929
  50.2436138  95.9866562   9.5291887  51.3040261  96.4863946   8.5712386
  50.1332896  83.1799997  18.4104598  49.2155457  83.4014944  18.2526286
  50.5493039  83.2546307  17.5516305  50.9167943  84.5791412  13.5407278
  51.6639762  85.0912809  13.2314400  51.1859533  84.2575465  14.4011672
  49.1894594  87.0749953  10.5234233  48.2805813  86.7908986  10.6206702
  49.2189677  87.4949032   9.6637540  54.4213861  90.6856543  14.2925400
  53.9676188  89.8447452  14.3490591  53.7907828  91.3217941  14.6300180
  53.3646781  81.6148529  15.5226068  52.6269537  81.1025915  15.8536310
  53.6173554  81.1748910  14.7109345  52.8646800  92.5233039  15.2275218
  53.1569775  93.0838096  14.5087584  53.3745421  92.8161600  15.9828377
  53.4658408  74.3924781  16.1167837  53.7717285  73.5322144  15.8293752
  54.1911013  74.9842401  15.9166831  39.7582764  84.7955467  14.5049435
  39.5607164  84.2024828  13.7800501  39.2029428  84.4907677  15.2225374
  47.7379488  84.6878574  16.6244028  47.7928097  83.7352410  16.5486505
  46.9270690  84.8438013  17.1085326  48.8870681  88.6158697   7.8622311
  48.4490111  87.8994556   7.4027949  49.6281122  88.8434811   7.3007403
  45.6771847  83.3055633  14.3834407  44.8639713  83.6049804  14.7899599
  46.1730842  82.9111322  15.1008889  47.8280425  93.3013390  16.3168672
  47.7856604  93.5274237  15.3877204  48.7443124  93.0676765  16.4654473
  51.2746059  83.7697458  23.2149301  51.6295447  83.9968931  24.0743767
  51.9218190  84.1015835  22.5926556  57.0043796  86.8915894  13.9198630
  56.8661695  87.0817490  12.9919819  56.6480015  87.6535277  14.3766681
  45.1685922  80.8773989  19.9995642  45.8085302  80.7362748  19.3018605
  44.3363453  80.5908502  19.6234244  57.0313176  88.9592421  18.9309901
  57.4649682  88.8667710  19.7792955  57.7444756  88.9349921  18.2929917
  45.9446226  90.1776419  16.1130634  46.7386825  89.6826739  15.9113209
  45.2337919  89.6494282  15.7498340  50.7641071  92.5594515  20.4643002
  50.8178093  93.1285451  21.2320718  49.8955852  92.7296400  20.0997039
  42.2528990  84.3219501  12.1890387  41.3226578  84.2603957  12.4060349
  42.3486462  83.7995454  11.3927028  42.1714539  80.8474314  14.7768629
  42.4321356  81.7619647  14.6677789  42.9931711  80.3798756  14.9265241
  43.6439464  82.2612071  21.9467453  44.3162517  82.0529433  21.2980102
  42.8169251  82.0634157  21.5072685  57.8928725  89.0016121  21.4642787
  58.0864615  89.9061932  21.7102062  57.7929343  88.5423540  22.2981372
  49.5465036  78.8874012  23.9633114  48.8992951  79.5863962  23.8697590
  50.3166051  79.3210156  24.3309362  52.9543834  89.1522864  27.0383667
  52.8029340  88.9233416  26.1213751  52.9448513  90.1093466  27.0515012
  49.7229170  86.7254777  22.0229934  50.6521230  86.8765936  21.8498901
  49.3020200  86.8138798  21.1678580  48.5217502  90.7505441  19.7928471
  48.3828588  90.3824226  20.6654410  47.7332098  91.2653081  19.6212429
  49.1165654  95.8514538  11.1354008  49.2917410  95.3802581  11.9499631
  48.4298442  96.4780304  11.3635269  50.0722717  90.1287044  17.1817309
  49.7372550  90.0887814  18.0774959  49.5726663  89.4631760  16.7087719
  44.0466961  85.5354674  22.7069890  43.9086759  84.8034913  23.3081429
  44.9571885  85.4463574  22.4254078  53.0081909  87.4743078   7.4554369
  52.3911080  86.7489906   7.3587422  52.5398397  88.2352439   7.1121443
  46.6749262  85.2474633  22.1953570  47.3848880  84.6067826  22.1540188
  46.6318570  85.4987528  23.1179751  54.6636041  92.1841987  25.1160149
  54.6048587  91.5001207  24.4490732  55.0655559  92.9260977  24.6640775
  45.3878196  82.2339851  24.0149209  44.8515553  81.7830590  24.6670806
  44.7994904  82.3685760  23.2719674  43.6826739  99.0003901  17.9093868
  43.9223338  99.6322425  18.5872887  42.8395936  98.6491941  18.1959227
  44.7980455  81.6928503   6.5775673  43.9209921  81.5717303   6.2137920
  45.2738208  80.9014581   6.3254562  54.6653448  90.1481571  23.3474129
  53.7780227  89.8107492  23.4700528  55.2351999  89.4164602  23.5842894
  36.3182595  86.4805662  16.6717180  37.0053635  86.1667392  16.0838196
  36.1630724  87.3847027  16.3984432  41.1217317  81.3695859  21.1002204
  41.0375506  80.7621528  20.3652614  40.3000024  81.8604877  21.1011700
  48.1954601  94.8083023  20.3135372  48.1224773  95.6137994  20.8254677
  47.7531994  95.0074989  19.4883393  47.9844381  94.0454793  13.8238194
  47.2011903  94.5876473  13.9176418  48.6837126  94.5628773  14.2232435
  51.2941031  79.8549422  16.4672399  51.7909731  79.1019385  16.1473469
  50.5228013  79.8913739  15.9015608  59.1470788  85.5589788  18.1090691
  59.1360665  86.4414503  17.7384624  58.2788168  85.2061339  17.9145228
  50.6553285  94.7069857  22.4693531  51.3681257  95.3417322  22.3969432
  50.1643313  94.8033723  21.6533533  52.3770812  88.6121110  14.0410822
  51.4427090  88.7322572  13.8715527  52.5547480  87.7093576  13.7770832
  47.8776000  81.9966805  16.1944084  47.5073787  81.4437846  16.8824989
  48.3735092  81.3924939  15.6419084  55.7643363  84.4538429  14.5760857
  56.2303815  85.2866421  14.5021159  56.2150864  83.9883411  15.2806115
  45.7065198  92.4564300  23.2899102  46.4074658  93.0900783  23.4428496
  45.2360313  92.7979032  22.5294741  53.8319594  90.7982250  11.5747009
  54.1079438  90.6838845  12.4840883  52.9624093  90.3999735  11.5359182
  53.7360026  76.8219016  18.6151758  52.8223106  77.0523243  18.7833965
  54.1653127  76.9057460  19.4665790  53.5066484  85.0108908  21.1151652
  52.8537935  85.2584815  20.4604105  53.8846864  84.1973046  20.7814129
  50.4673658  95.0468601  15.2179822  50.6496053  94.2290257  15.6807575
  51.2906644  95.2636293  14.7804712  50.8015824  93.9736786  12.4794871
  51.3303590  93.4629241  11.8665033  51.0644043  93.6579316  13.3440404
  49.5554057  85.7528719  27.6017689  48.8794694  85.6522848  28.2720064
  50.3781691  85.5967933  28.0653686  41.3032916  91.9900655  20.2230204
  41.8886353  91.2444343  20.3558108  41.1057755  92.3004612  21.1066868
  44.1571572  95.0251903  15.2392647  43.4881947  95.5098031  14.7556687
  44.0184441  95.2721123  16.1536025  35.8950571  84.5606256  18.9434647
  35.9334671  84.0269846  19.7371766  35.3890864  84.0341461  18.3245625
  48.2976840  97.0595646  21.8375305  48.8495148  97.2227268  22.6024390
  48.6383034  97.6500084  21.1655330  43.2741333  79.4070796  22.4397190
  43.3382660  80.2685627  22.0274587  43.2108454  78.7944798  21.7069548
  42.7493606  81.4793929  26.0870224  43.3765645  81.0971006  26.7007748
  41.8921525  81.2608131  26.4525916  53.1487715  91.8856904  27.6923959
  53.6927619  92.4986862  27.1978914  52.5674559  92.4436482  28.2090972
  39.5259149  83.2870358  12.0188579  39.8212590  82.3781036  11.9655632
  38.6247184  83.2658097  11.6969581  51.4345227  95.0077622  18.8238987
  51.3096367  94.2067362  18.3149933  52.0924319  95.5023815  18.3352957
  43.0553396  81.3626354  18.0016127  42.3339981  81.9762322  17.8623601
  43.8446651  81.8984119  17.9232773  53.4980136  92.8086642  20.4518537
  52.5510471  92.6891993  20.3796864  53.8462909  91.9209140  20.5344799
  45.8579709  78.6980781  24.2756779  46.3814111  78.9443077  25.0383088
  45.6392043  79.5300816  23.8559916  41.2546990  80.9684456  12.1427904
  40.9259696  80.0881834  11.9603010  41.6086361  80.9132124  13.0304293
  50.5026569  92.6039358  16.6522889  50.3551532  91.6756066  16.8330460
  51.3280063  92.6259449  16.1679965  44.3688813  81.2557425  12.5103382
  44.7084886  81.7843347  11.7881990  44.8160934  81.5937831  13.2861948
  54.1060691  93.4267917  17.7387762  55.0307238  93.2210778  17.6012213
  53.9375994  93.1784318  18.6477104  47.0632254  79.6394476  21.9606450
  46.7229075  78.8402289  22.3627130  46.3571261  79.9396187  21.3883283
  47.7148726  76.7243788  20.4133773  48.5374795  76.2504267  20.2912663
  47.9586790  77.5034272  20.9132459  46.3556961  79.7532047  10.7096674
  47.0765323  80.1313300  10.2060391  45.7322265  80.4720924  10.8131652
  50.4988083  80.4577196  11.6455007  50.7151698  81.3401834  11.3443835
  50.0182151  80.0663409  10.9160649  45.2387305  83.4162909  18.2225751
  45.0931886  83.7303212  19.1150033  44.7612508  84.0347809  17.6696650
  47.0983688  80.4065457  18.2706641  47.0845256  79.5106550  17.9338939
  47.8156116  80.4136121  18.9044927  48.9509818  80.8402797  20.3159768
  48.6927596  81.7619868  20.3144099  48.4194859  80.4433232  21.0060232
  53.8956007  93.9453584  13.0949854  54.0692885  93.3800007  12.3423706
  54.3884898  94.7454479  12.9129344  39.7132967  85.9568254  21.1613412
  39.1686435  86.7328061  21.2933687  40.5912317  86.3039058  21.0032534
  46.5020584  79.2879837  13.5394211  46.6236495  78.3596484  13.7385099
  46.2122626  79.3018523  12.6272526  49.3711774  76.9734748  16.6760931
  49.3933471  77.0374081  15.7212910  49.7879833  76.1339256  16.8701437
  59.7495398  86.7090007  14.7140153  60.1926544  85.9597333  14.3159277
  58.8721909  86.7000144  14.3313885  54.8831180  93.2620349  10.1946752
  55.5782084  93.8827042  10.4134067  55.2254330  92.4115700  10.4699130
  40.4998989  85.0838150  24.0543569  39.7580725  85.2320785  24.6408200
  40.1791733  85.3446415  23.1910319  56.7822603  90.7120054  11.7234083
  57.3073927  91.0507327  10.9983403  56.6944955  89.7767070  11.5397217
  48.4442652  94.6254128  23.8523959  48.7529778  94.3803275  24.7246659
  49.2418134  94.8300766  23.3642830  48.4663264  96.7792038  16.0829336
  48.0268254  96.2868416  16.7762193  49.2171381  96.2365005  15.8421411
  40.9455603  92.9703578  16.0853964  41.7713622  92.6707350  15.7052608
  40.5949655  92.2011201  16.5343753  45.9137136  92.3230047  18.1551638
  45.2917145  91.6600752  17.8553865  46.5842003  92.3491179  17.4725285
  39.1464208  90.8889905  17.0442898  38.3096116  90.4612079  16.8626899
  39.1187853  91.0822348  17.9813689  45.9861663  80.8011835  27.7484144
  46.0349819  81.6773958  27.3661913  46.5284177  80.2589228  27.1755787
  56.4716509  91.3452958  27.0285281  55.6812053  91.3277097  26.4889780
  56.2349863  91.8841252  27.7834317  56.5914384  88.1945424  24.3418009
  56.6412389  88.0295432  25.2833532  56.4828307  87.3272683  23.9515890
  45.4750643  90.8733970  11.6310098  45.6238763  91.5569434  10.9776771
  46.2817086  90.8539060  12.1459554  53.8818146  84.1776352  25.6577316
  54.7828009  84.0382817  25.3661314  53.9566121  84.3430807  26.5975493
  48.2160952  81.5543207  24.5030502  47.3464261  81.8476773  24.2313091
  48.4520432  82.1383652  25.2237766  58.0932581  90.6142366  24.5860031
  57.8017389  90.9772346  25.4223492  57.4804712  89.9009374  24.4073363
  59.2928263  88.1795246  17.1062601  60.1275154  88.6185050  17.2700161
  59.4287392  87.7033899  16.2870847  56.3419769  85.7374981  23.0540089
  56.8173891  85.9302627  22.2458940  55.4185334  85.7934166  22.8083472
  43.2303276  86.8999148  12.6371167  42.9849318  85.9961478  12.8351377
  43.3999190  86.9016298  11.6950645  50.9199985  77.7722824  22.0195923
  51.4381929  78.5083851  21.6942411  50.5655118  78.0786817  22.8542682
  42.4998923  82.6327505  10.1357329  41.8068168  82.7071860   9.4797364
  42.2550675  81.8687849  10.6578845  51.1712580  74.1923107  17.5396819
  51.4514333  73.5246296  18.1657246  51.9563187  74.3852202  17.0271483
  48.9746048  93.3682100   9.1021846  48.4020015  93.9872288   8.6492317
  49.5478842  93.9181462   9.6361767  55.0421438  82.6140741  21.2868394
  55.9938861  82.7138838  21.3080618  54.8724888  81.8219009  21.7966479
  53.0635817  79.6996324  21.4727795  52.4685750  79.9801337  20.7774284
  52.7785514  80.1890225  22.2444536  52.1943308  93.6519251  10.2330428
  53.1273981  93.5864812  10.4363303  52.1066521  94.4875517   9.7744960
  54.8231325  92.9685121   7.1934375  54.7444956  92.6344985   8.0870133
  55.6440991  93.4606889   7.1925848  57.5209516  85.8346860  20.4010694
  57.4885836  84.8962861  20.5870378  58.1310139  85.9130897  19.6676519
  49.3592847  84.7042913   6.4437898  50.3051951  84.5749121   6.5126316
  48.9807092  83.9657575   6.9207326  57.6704004  82.6257904  20.4468977
  57.1543053  81.8416360  20.2598906  58.5543953  82.2976620  20.6115497
  55.3314731  76.3698919  16.4064790  55.1339552  76.0614007  17.2908122
  55.9414437  77.0960558  16.5362720  63.3386066  86.8962867  19.5416731
  64.0689454  86.6348155  20.1024434  62.7293011  86.1591589  19.5818799
  61.4201363  85.0370730  20.1391182  60.6934526  84.9026695  19.5307674
  61.0048650  85.3447558  20.9447900  49.2431539  88.7560659  27.9038555
  50.1634549  88.9339258  28.0978602  49.2081122  87.8116705  27.7518254
  47.5435764  82.6292890   6.3792783  46.6367219  82.3326002   6.4555497
  47.8211745  82.3322708   5.5127070  38.4613704  83.9499253  16.8291830
  38.1416489  83.0964561  16.5366204  37.9147132  84.1647831  17.5849797
  42.2393612  86.6661694  20.5461336  42.4579622  87.5978802  20.5649370
  42.6519386  86.3069668  21.3316140  49.1597830  77.1729779  12.5337025
  48.3498558  76.8276864  12.9092271  49.8482246  76.8637323  13.1224636
  51.0888378  76.2507826  14.1561321  51.6419416  76.6703280  14.8151344
  51.3258464  75.3243574  14.1984277  47.1121477  82.2394900  29.9364085
  47.0118204  83.1889257  29.8676176  46.8943019  81.9113139  29.0640155
  46.3134548  79.4879825   6.5204762  47.1753712  79.8134723   6.7800580
  46.4984893  78.7011321   6.0077828  38.3301964  87.5702165  18.7984951
  37.6365436  87.1556117  18.2854906  39.0774955  87.6122701  18.2018370
  54.4667185  78.3608351  13.6639985  53.8865854  79.0193155  13.2818038
  54.2003118  77.5385696  13.2527403  52.9170751  77.7613409  15.8661306
  53.4170530  77.8729944  15.0575625  53.5606359  77.4574462  16.5062114
  46.9752747  85.6692039  28.7529147  46.4919829  86.4692399  28.9593036
  47.0613686  85.6799984  27.7996591  40.2438707  87.5020418  16.6750966
  40.2209395  87.6008106  15.7232849  40.5539343  88.3485569  16.9968132
  42.9026085  89.5596573  20.7897581  43.8569338  89.5280516  20.7227512
  42.7038608  89.0987197  21.6047806  43.4925467  88.1297689  23.3568378
  44.3118356  88.6241768  23.3803216  43.7662274  87.2129658  23.3285946
  53.2492063  80.5208442  12.7196334  52.3617918  80.8058092  12.5016528
  53.6646052  80.3602205  11.8723611  56.6006599  80.5454963  16.4350673
  57.3766989  81.0351415  16.7075290  55.8754733  80.9713017  16.8922542
  59.0379158  81.2582582  17.4924614  59.6323648  81.0178318  16.7817922
  59.1105741  80.5389712  18.1198150  41.2576313  95.1016193  17.8067778
  41.1230781  94.3416594  17.2405776  40.8408376  95.8257093  17.3396567
  52.3935276  90.2853116   6.8144354  53.0971127  90.4903119   7.4302009
  51.6697925  90.8529878   7.0793437  53.2233087  86.0362978  12.9346624
  53.1668288  86.4931529  12.0954256  53.7761429  85.2753662  12.7569467
  57.0337893  81.8252710  13.7596743  56.7774827  81.4249345  14.5904951
  56.4090761  82.5396503  13.6346883  61.3450230  84.5648783  16.2668035
  60.7849788  84.6341972  17.0399597  60.7393734  84.3889767  15.5467531
  44.4145439  95.9985510  18.0186221  44.2977823  96.9430942  17.9164911
  43.5937886  95.6959071  18.4072020  54.3021974  90.7235646   8.8642814
  55.1367578  90.2916844   8.6820289  54.1406317  90.5517659   9.7919708
  53.9567866  87.2267759  10.2299153  53.9016670  87.0612030   9.2887597
  53.3313921  87.9343792  10.3861343  38.7460381  82.4635823  24.0560575
  39.3919245  81.9534777  24.5447800  38.5377532  83.2004505  24.6304001
  51.2713773  89.5316671  29.5552716  52.1404933  89.7057323  29.1939351
  50.7920525  90.3511088  29.4328445  47.2663991  76.7275868   9.8084471
  47.2542661  77.6717708   9.9652742  48.1587413  76.5446013   9.5143933
  45.4399953  96.6513772  21.2342149  46.3427200  96.6837382  21.5508644
  45.2137323  95.7214223  21.2488485  47.1953555  95.4044758  17.8952228
  46.2449186  95.4046620  17.7816600  47.4986042  94.6577493  17.3788263
  51.0816111  73.3218645  14.0630408  50.3148507  72.7677131  14.2087091
  51.4926816  73.3940513  14.9244560  43.0857872  79.6103440  28.1535590
  43.9489334  79.2540245  28.3638914  42.5123283  79.2717335  28.8410994
  62.9306249 101.2405297  18.9597991  63.5684659 101.1212044  18.2561331
  62.8127092 102.1886141  19.0185943  59.7395955 101.1932725  18.8959515
  59.4014467 101.0773789  18.0080050  60.6085723 100.7923890  18.8760521
  55.5982771 103.0468201  14.8856406  55.0347636 102.9558138  14.1172694
  55.4835166 102.2268106  15.3658899  60.2215738 102.3467577  24.8545721
  60.2104379 101.9520375  23.9826224  60.3836378 101.6133649  25.4479492
  53.1447203 104.5419393  17.7240627  53.9368495 104.2010217  17.3086926
  53.3843853 104.6514368  18.6442780  61.1782330 106.7139169  10.1970871
  60.5270309 107.2993249   9.8104885  61.9726692 107.2445364  10.2565909
  55.1037957 103.8028306  10.5958005  55.8768833 103.2557293  10.4570881
  55.4563356 104.6672555  10.8072467  56.9422999 105.1304688  23.8024905
  56.6512865 106.0350319  23.6871571  57.5779984 105.1721216  24.5168974
  57.8679206 102.5081537  20.3926264  58.4642778 102.2837559  19.6783227
  57.9254178 101.7666282  20.9951712  57.4404235  99.9620972   8.2276455
  57.6929755  99.4402493   7.4659918  56.5028794  99.7987118   8.3303139
  62.4847517  98.9656751  16.0351199  63.2710607  98.5476174  15.6841616
  62.7486222  99.8702843  16.2032847  62.6557595 104.4029601  10.7339855
  62.0203428 104.4764227  11.4460760  62.3255001 104.9923200  10.0558935
  67.8855945  98.9031984  16.9384177  68.6181116  98.3331201  17.1722007
  67.1295300  98.5153584  17.3790683  57.1600523 101.8649078  10.4300830
  57.0436781 101.1893982  11.0981915  57.2702783 101.3781452   9.6132983
  59.5032064 101.3259225  14.1347520  59.1390271 100.7989846  14.8460441
  60.3599180 100.9357694  13.9614005  65.4081365  92.6153558  21.3978786
  65.0764690  93.4848969  21.1740001  64.8126978  92.2989842  22.0772816
  59.1437551  96.3549125   9.1308868  59.3111954  97.2229361   9.4979339
  58.9534720  96.5176407   8.2070157  61.9012884 104.8166104  20.7974698
  61.6013607 105.7191143  20.6890506  61.5563944 104.5498287  21.6495851
  55.3525366 101.2679901  16.8311403  54.4275862 101.1356115  17.0389095
  55.6009779 102.0474120  17.3281345  65.3010028  97.3348644  18.4772136
  64.3926906  97.2664052  18.1830897  65.2497624  97.8120589  19.3053961
  59.1226772  98.8106782  10.1155535  59.0026397  99.2563833  10.9541015
  58.4279360  99.1592100   9.5569073  52.7134177 100.9113174  17.6655192
  52.8426558 101.1647653  18.5794604  52.0331628 101.5040882  17.3459847
  56.8833664 111.5810424  13.7645666  56.8057694 112.5318249  13.8434147
  56.2795308 111.2356297  14.4220592  59.3750894  98.7538290  26.4207033
  58.5984228  99.3132210  26.4109898  60.0141457  99.2395073  26.9421903
  67.1671675  95.5365082  20.2550010  66.5246055  95.8297616  19.6089804
  66.6626603  95.4218003  21.0603206  64.8211838  99.2828256  10.9435869
  65.7329694  99.5155642  10.7683566  64.3121485  99.8665300  10.3810948
  57.6297266 101.5623743  25.9825000  58.3711951 102.1008787  25.7059824
  56.9234252 102.1890032  26.1396552  63.1052606 103.7052883  24.5797161
  63.5135962 103.2635294  23.8351794  62.3829867 103.1305511  24.8331354
  59.4583676  98.6425490  21.9530718  60.3044871  99.0664904  22.0965367
  59.3982314  97.9859115  22.6469282  63.4281421 104.2654074  18.3349450
  62.7990283 104.4299788  17.6325518  63.0407083 104.6795684  19.1060414
  67.3070652 105.2008512  15.6893814  66.6221691 105.5807413  15.1390847
  67.3914502 105.8103839  16.4225762  62.6083121  96.3029859  23.6111892
  62.3644053  97.0571919  23.0746168  62.8843052  96.6815206  24.4459139
  64.5621584 102.8468471  22.2889158  64.7738479 103.4900231  21.6123539
  64.5151332 102.0130788  21.8211088  62.1647813  95.4586292  19.1925730
  61.3032292  95.7567545  19.4842467  62.1910248  95.6756690  18.2606762
  58.9809382 104.0028482  15.5999535  59.4447728 104.2816185  14.8104158
  58.7166181 103.1011927  15.4172626  55.8733463 103.5499964  18.5379299
  56.4434821 103.9787232  17.8996783  56.4641575 103.2682548  19.2363484
  57.9178268 100.1251635  12.4089101  58.6202312 100.5772678  12.8763027
  57.5858897  99.4835453  13.0368994  56.3658630  98.7163391  26.7840310
  55.7357291  99.3979672  27.0175707  56.2594718  98.6046473  25.8393448
  51.6603602  98.3835187  17.7106234  50.8702656  98.6392716  17.2346345
  52.1514850  99.1983525  17.8158275  65.6767412 105.7240426  20.4611515
  66.4984856 105.3220614  20.1794197  65.6729815 105.6208661  21.4127631
  53.6118348  98.7479766  14.6689711  52.8149511  98.8598461  15.1873207
  53.3843940  99.0866419  13.8030601  59.4424015 105.2724470  22.6172226
  59.5068448 105.7344877  23.4530397  58.7334939 104.6421835  22.7454535
  49.9441305  98.6365678  20.1421225  50.1949344  99.5212688  20.4078801
  50.4800854  98.4570279  19.3696317  73.7673405 102.0679175  16.8096486
  73.0137113 101.4986573  16.6540491  73.9020946 102.0341839  17.7567121
  59.1572033 106.9392577  12.4851206  59.0217708 107.7844113  12.9136054
  59.6981846 107.1411855  11.7217140  55.6439373  93.0184157  29.1465561
  55.2506318  92.4650356  29.8213205  56.4605513  93.3294735  29.5372079
  52.6101430 104.4568015  13.0579131  53.1225951 105.2511265  13.2084696
  53.2624143 103.7594306  12.9912732  54.4196315 107.5733771  15.1401884
  54.5962944 108.4951736  14.9522868  55.2153149 107.2592191  15.5696264
  58.5607334  94.4342036  26.7385818  59.3017047  95.0349189  26.6590280
  58.7925257  93.6919674  26.1803860  53.7048672  99.6198403  25.0164047
  53.5902187  98.7183661  25.3171146  52.8493189  99.8662100  24.6648864
  60.7840509 107.5616144  26.6151548  60.3404364 106.7752522  26.2972452
  61.4457723 107.7495294  25.9495439  55.5427631 109.0911945  21.1412226
  56.0935056 108.9629009  20.3689220  54.7039107 109.3906834  20.7907119
  62.8821748 107.8418944  24.6432949  62.8640223 108.6627825  24.1513218
  63.8041668 107.7173019  24.8683090  59.3394802 105.3563073  25.4856458
  59.8723139 104.5951361  25.2555766  58.8108883 105.0636725  26.2280612
  62.5064497  90.4623139  21.0150099  62.1628766  91.3524781  20.9389210
  62.8743459  90.2724797  20.1519684  50.5750347 102.7856669  13.8338701
  51.4125569 103.1953678  13.6172409  50.7528615 101.8456112  13.8038895
  62.4714779 100.4531750   9.5222534  61.9561403 101.2236355   9.7610922
  62.1992088  99.7796886  10.1455596  60.0561890  95.2981451  14.5807773
  59.2003487  94.9088301  14.4013411  60.4688842  95.3773412  13.7207558
  61.5861037  92.8327794  18.9799333  61.0825833  92.7957929  18.1667138
  61.8791644  93.7420537  19.0395989  57.8303923  92.9166524  17.9865514
  58.6956920  92.7209333  17.6271404  57.8981432  92.6876876  18.9134871
  67.4449054 103.2064105  11.4575708  66.6678496 102.8675264  11.0130870
  68.1240534 103.2116728  10.7830673  62.2601083  98.3258842  11.3482316
  61.9551218  98.6404991  12.1992459  63.2131525  98.4040262  11.3909649
  60.7047514 104.4849066  12.9975270  60.1768876 103.7501825  12.6848507
  60.2035017 105.2623742  12.7515238  65.6840360 102.6798086  18.1142316
  65.0264035 103.3697347  18.2022444  66.4880760 103.0694518  18.4576302
  55.4366242  95.1468732  15.3581881  56.0109994  94.9243913  14.6255074
  56.0237224  95.2157426  16.1110482  64.4945819 101.0342459  16.1646258
  65.0077701 101.6672451  16.6667967  65.1447043 100.4343654  15.7989618
  55.7635829  97.1773193   9.3777766  54.9273141  97.5147879   9.6987041
  55.6240599  97.0422173   8.4404903  57.7388910  92.0209981  14.0856951
  57.0853322  91.7058998  13.4613565  57.6969384  91.3985721  14.8116773
  58.8500115 102.3029276   6.0010243  57.9427176 102.0718529   6.2001392
  59.3471147 101.5066895   6.1884224  61.7568193 111.0126783   8.9206929
  61.0829892 111.3158480   9.5291887  62.1434015 111.8155863   8.5712386
  60.9726650  98.5091914  18.4104598  60.0549211  98.7306861  18.2526286
  61.3886794  98.5838225  17.5516305  61.7561698  99.9083330  13.5407278
  62.5033517 100.4204727  13.2314400  62.0253287  99.5867383  14.4011672
  60.0288348 102.4041871  10.5234233  59.1199567 102.1200903  10.6206702
  60.0583432 102.8240949   9.6637540  65.2607615 106.0148460  14.2925400
  64.8069943 105.1739370  14.3490591  64.6301582 106.6509859  14.6300180
  64.2040535  96.9440446  15.5226068  63.4663292  96.4317832  15.8536310
  64.4567309  96.5040828  14.7109345  63.7040555 107.8524957  15.2275218
  63.9963529 108.4130014  14.5087584  64.2139175 108.1453518  15.9828377
  64.3052162  89.7216698  16.1167837  64.6111039  88.8614062  15.8293752
  65.0304767  90.3134318  15.9166831  50.5976518 100.1247385  14.5049435
  50.4000918  99.5316746  13.7800501  50.0423182  99.8199595  15.2225374
  58.5773242 100.0170491  16.6244028  58.6321852  99.0644328  16.5486505
  57.7664444 100.1729930  17.1085326  59.7264436 103.9450614   7.8622311
  59.2883866 103.2286473   7.4027949  60.4674877 104.1726729   7.3007403
  56.5165602  98.6347551  14.3834407  55.7033468  98.9341722  14.7899599
  57.0124596  98.2403240  15.1008889  58.6674180 108.6305308  16.3168672
  58.6250359 108.8566154  15.3877204  59.5836879 108.3968683  16.4654473
  62.1139814  99.0989376  23.2149301  62.4689201  99.3260849  24.0743767
  62.7611945  99.4307752  22.5926556  67.8437551 102.2207811  13.9198630
  67.7055449 102.4109407  12.9919819  67.4873769 102.9827194  14.3766681
  56.0079677  96.2065907  19.9995642  56.6479056  96.0654666  19.3018605
  55.1757207  95.9200420  19.6234244  67.8706930 104.2884338  18.9309901
  68.3043437 104.1959627  19.7792955  68.5838511 104.2641839  18.2929917
  56.7839981 105.5068337  16.1130634  57.5780579 105.0118657  15.9113209
  56.0731673 104.9786200  15.7498340  61.6034825 107.8886433  20.4643002
  61.6571847 108.4577369  21.2320718  60.7349606 108.0588318  20.0997039
  53.0922744  99.6511419  12.1890387  52.1620332  99.5895874  12.4060349
  53.1880216  99.1287371  11.3927028  53.0108293  96.1766232  14.7768629
  53.2715110  97.0911565  14.6677789  53.8325465  95.7090674  14.9265241
  54.4833219  97.5903989  21.9467453  55.1556272  97.3821351  21.2980102
  53.6563005  97.3926075  21.5072685  68.7322480 104.3308039  21.4642787
  68.9258370 105.2353850  21.7102062  68.6323098 103.8715458  22.2981372
  60.3858791  94.2165930  23.9633114  59.7386706  94.9155879  23.8697590
  61.1559806  94.6502074  24.3309362  63.7937588 104.4814782  27.0383667
  63.6423095 104.2525333  26.1213751  63.7842268 105.4385383  27.0515012
  60.5622925 102.0546695  22.0229934  61.4914985 102.2057854  21.8498901
  60.1413955 102.1430715  21.1678580  59.3611257 106.0797359  19.7928471
  59.2222342 105.7116143  20.6654410  58.5725853 106.5944998  19.6212429
  59.9559409 111.1806455  11.1354008  60.1311164 110.7094499  11.9499631
  59.2692197 111.8072222  11.3635269  60.9116472 105.4578962  17.1817309
  60.5766304 105.4179732  18.0774959  60.4120417 104.7923678  16.7087719
  54.8860716 100.8646592  22.7069890  54.7480514 100.1326831  23.3081429
  55.7965639 100.7755492  22.4254078  63.8475663 102.8034996   7.4554369
  63.2304834 102.0781824   7.3587422  63.3792152 103.5644356   7.1121443
  57.5143016 100.5766551  22.1953570  58.2242635  99.9359743  22.1540188
  57.4712325 100.8279446  23.1179751  65.5029795 107.5133904  25.1160149
  65.4442341 106.8293124  24.4490732  65.9049313 108.2552894  24.6640775
  56.2271950  97.5631769  24.0149209  55.6909307  97.1122507  24.6670806
  55.6388659  97.6977678  23.2719674  54.5220494 114.3295818  17.9093868
  54.7617092 114.9614342  18.5872887  53.6789690 113.9783858  18.1959227
  55.6374209  97.0220420   6.5775673  54.7603676  96.9009221   6.2137920
  56.1131962  96.2306499   6.3254562  65.5047202 105.4773488  23.3474129
  64.6173981 105.1399410  23.4700528  66.0745753 104.7456520  23.5842894
  47.1576349 101.8097580  16.6717180  47.8447389 101.4959310  16.0838196
  47.0024478 102.7138945  16.3984432  51.9611072  96.6987777  21.1002204
  51.8769260  96.0913446  20.3652614  51.1393778  97.1896795  21.1011700
  59.0348356 110.1374941  20.3135372  58.9618527 110.9429912  20.8254677
  58.5925749 110.3366906  19.4883393  58.8238135 109.3746711  13.8238194
  58.0405657 109.9168391  13.9176418  59.5230881 109.8920690  14.2232435
  62.1334785  95.1841340  16.4672399  62.6303485  94.4311302  16.1473469
  61.3621767  95.2205657  15.9015608  69.9864543 100.8881706  18.1090691
  69.9754419 101.7706421  17.7384624  69.1181922 100.5353256  17.9145228
  61.4947039 110.0361775  22.4693531  62.2075011 110.6709239  22.3969432
  61.0037068 110.1325641  21.6533533  63.2164566 103.9413027  14.0410822
  62.2820845 104.0614490  13.8715527  63.3941235 103.0385494  13.7770832
  58.7169754  97.3258723  16.1944084  58.3467542  96.7729763  16.8824989
  59.2128847  96.7216857  15.6419084  66.6037118  99.7830347  14.5760857
  67.0697570 100.6158338  14.5021159  67.0544618  99.3175328  15.2806115
  56.5458953 107.7856218  23.2899102  57.2468412 108.4192701  23.4428496
  56.0754068 108.1270950  22.5294741  64.6713349 106.1274168  11.5747009
  64.9473193 106.0130762  12.4840883  63.8017847 105.7291653  11.5359182
  64.5753780  92.1510934  18.6151758  63.6616860  92.3815160  18.7833965
  65.0046882  92.2349378  19.4665790  64.3460239 100.3400826  21.1151652
  63.6931689 100.5876733  20.4604105  64.7240619  99.5264964  20.7814129
  61.3067413 110.3760519  15.2179822  61.4889807 109.5582175  15.6807575
  62.1300399 110.5928211  14.7804712  61.6409578 109.3028704  12.4794871
  62.1697345 108.7921158  11.8665033  61.9037798 108.9871234  13.3440404
  60.3947812 101.0820637  27.6017689  59.7188449 100.9814766  28.2720064
  61.2175446 100.9259850  28.0653686  52.1426671 107.3192573  20.2230204
  52.7280108 106.5736261  20.3558108  51.9451509 107.6296530  21.1066868
  54.9965326 110.3543821  15.2392647  54.3275701 110.8389948  14.7556687
  54.8578196 110.6013041  16.1536025  46.7344326  99.8898173  18.9434647
  46.7728425  99.3561764  19.7371766  46.2284618  99.3633379  18.3245625
  59.1370595 112.3887564  21.8375305  59.6888903 112.5519186  22.6024390
  59.4776788 112.9792002  21.1655330  54.1135088  94.7362714  22.4397190
  54.1776414  95.5977545  22.0274587  54.0502208  94.1236716  21.7069548
  53.5887360  96.8085846  26.0870224  54.2159399  96.4262924  26.7007748
  52.7315279  96.5900048  26.4525916  63.9881469 107.2148822  27.6923959
  64.5321373 107.8278780  27.1978914  63.4068314 107.7728400  28.2090972
  50.3652903  98.6162276  12.0188579  50.6606344  97.7072954  11.9655632
  49.4640939  98.5950015  11.6969581  62.2738982 110.3369540  18.8238987
  62.1490121 109.5359279  18.3149933  62.9318073 110.8315733  18.3352957
  53.8947150  96.6918272  18.0016127  53.1733736  97.3054240  17.8623601
  54.6840406  97.2276037  17.9232773  64.3373890 108.1378560  20.4518537
  63.3904226 108.0183911  20.3796864  64.6856663 107.2501058  20.5344799
  56.6973464  94.0272699  24.2756779  57.2207866  94.2734995  25.0383088
  56.4785797  94.8592733  23.8559916  52.0940745  96.2976373  12.1427904
  51.7653451  95.4173752  11.9603010  52.4480115  96.2424042  13.0304293
  61.3420324 107.9331276  16.6522889  61.1945286 107.0047983  16.8330460
  62.1673817 107.9551367  16.1679965  55.2082568  96.5849343  12.5103382
  55.5478640  97.1135264  11.7881990  55.6554688  96.9229749  13.2861948
  64.9454445 108.7559835  17.7387762  65.8700993 108.5502696  17.6012213
  64.7769749 108.5076236  18.6477104  57.9026009  94.9686394  21.9606450
  57.5622829  94.1694207  22.3627130  57.1965015  95.2688105  21.3883283
  58.5542481  92.0535706  20.4133773  59.3768550  91.5796184  20.2912663
  58.7980544  92.8326190  20.9132459  57.1950715  95.0823965  10.7096674
  57.9159078  95.4605217  10.2060391  56.5716019  95.8012841  10.8131652
  61.3381838  95.7869114  11.6455007  61.5545452  96.6693751  11.3443835
  60.8575905  95.3955327  10.9160649  56.0781059  98.7454827  18.2225751
  55.9325640  99.0595130  19.1150033  55.6006263  99.3639727  17.6696650
  57.9377442  95.7357375  18.2706641  57.9239011  94.8398468  17.9338939
  58.6549870  95.7428039  18.9044927  59.7903573  96.1694715  20.3159768
  59.5321351  97.0911786  20.3144099  59.2588613  95.7725150  21.0060232
  64.7349762 109.2745502  13.0949854  64.9086639 108.7091925  12.3423706
  65.2278653 110.0746397  12.9129344  50.5526722 101.2860171  21.1613412
  50.0080190 102.0619979  21.2933687  51.4306071 101.6330976  21.0032534
  57.3414338  94.6171755  13.5394211  57.4630249  93.6888401  13.7385099
  57.0516381  94.6310441  12.6272526  60.2105529  92.3026665  16.6760931
  60.2327225  92.3665999  15.7212910  60.6273588  91.4631174  16.8701437
  70.5889153 102.0381925  14.7140153  71.0320299 101.2889250  14.3159277
  69.7115663 102.0292061  14.3313885  65.7224934 108.5912267  10.1946752
  66.4175839 109.2118959  10.4134067  66.0648084 107.7407618  10.4699130
  51.3392743 100.4130067  24.0543569  50.5974479 100.5612703  24.6408200
  51.0185488 100.6738333  23.1910319  67.6216357 106.0411972  11.7234083
  68.1467681 106.3799245  10.9983403  67.5338710 105.1058987  11.5397217
  59.2836406 109.9546046  23.8523959  59.5923532 109.7095192  24.7246659
  60.0811888 110.1592684  23.3642830  59.3057018 112.1083955  16.0829336
  58.8662008 111.6160334  16.7762193  60.0565135 111.5656923  15.8421411
  51.7849357 108.2995496  16.0853964  52.6107377 107.9999268  15.7052608
  51.4343409 107.5303119  16.5343753  56.7530890 107.6521964  18.1551638
  56.1310899 106.9892669  17.8553865  57.4235757 107.6783096  17.4725285
  49.9857962 106.2181823  17.0442898  49.1489870 105.7903997  16.8626899
  49.9581608 106.4114266  17.9813689  56.8255418  96.1303752  27.7484144
  56.8743573  97.0065875  27.3661913  57.3677932  95.5881145  27.1755787
  67.3110263 106.6744876  27.0285281  66.5205807 106.6569015  26.4889780
  67.0743618 107.2133169  27.7834317  67.4308138 103.5237342  24.3418009
  67.4806143 103.3587349  25.2833532  67.3222062 102.6564601  23.9515890
  56.3144397 106.2025888  11.6310098  56.4632517 106.8861352  10.9776771
  57.1210841 106.1830978  12.1459554  64.7211901  99.5068270  25.6577316
  65.6221764  99.3674735  25.3661314  64.7959875  99.6722725  26.5975493
  59.0554706  96.8835125  24.5030502  58.1858016  97.1768691  24.2313091
  59.2914187  97.4675570  25.2237766  68.9326335 105.9434284  24.5860031
  68.6411144 106.3064264  25.4223492  68.3198467 105.2301292  24.4073363
  70.1322018 103.5087163  17.1062601  70.9668909 103.9476967  17.2700161
  70.2681146 103.0325817  16.2870847  67.1813524 101.0666898  23.0540089
  67.6567645 101.2594544  22.2458940  66.2579089 101.1226084  22.8083472
  54.0697030 102.2291065  12.6371167  53.8243072 101.3253395  12.8351377
  54.2392945 102.2308216  11.6950645  61.7593740  93.1014742  22.0195923
  62.2775684  93.8375769  21.6942411  61.4048873  93.4078735  22.8542682
  53.3392678  97.9619423  10.1357329  52.6461923  98.0363778   9.4797364
  53.0944430  97.1979767  10.6578845  62.0106334  89.5215024  17.5396819
  62.2908088  88.8538213  18.1657246  62.7956941  89.7144120  17.0271483
  59.8139803 108.6974018   9.1021846  59.2413770 109.3164205   8.6492317
  60.3872596 109.2473380   9.6361767  65.8815192  97.9432658  21.2868394
  66.8332615  98.0430756  21.3080618  65.7118643  97.1510927  21.7966479
  63.9029572  95.0288241  21.4727795  63.3079504  95.3093254  20.7774284
  63.6179269  95.5182142  22.2444536  63.0337062 108.9811168  10.2330428
  63.9667736 108.9156730  10.4363303  62.9460275 109.8167435   9.7744960
  65.6625079 108.2977039   7.1934375  65.5838711 107.9636902   8.0870133
  66.4834746 108.7898807   7.1925848  68.3603270 101.1638778  20.4010694
  68.3279590 100.2254779  20.5870378  68.9703894 101.2422815  19.6676519
  60.1986601 100.0334831   6.4437898  61.1445706  99.9041039   6.5126316
  59.8200846  99.2949493   6.9207326  68.5097759  97.9549821  20.4468977
  67.9936807  97.1708278  20.2598906  69.3937707  97.6268538  20.6115497
  66.1708486  91.6990837  16.4064790  65.9733307  91.3905925  17.2908122
  66.7808191  92.4252476  16.5362720  74.1779820 102.2254785  19.5416731
  74.9083209 101.9640073  20.1024434  73.5686766 101.4883507  19.5818799
  72.2595117 100.3662647  20.1391182  71.5328281 100.2318612  19.5307674
  71.8442404 100.6739476  20.9447900  60.0825294 104.0852577  27.9038555
  61.0028303 104.2631176  28.0978602  60.0474877 103.1408622  27.7518254
  58.3829518  97.9584807   6.3792783  57.4760974  97.6617920   6.4555497
  58.6605499  97.6614625   5.5127070  49.3007459  99.2791171  16.8291830
  48.9810243  98.4256479  16.5366204  48.7540887  99.4939749  17.5849797
  53.0787366 101.9953612  20.5461336  53.2973376 102.9270720  20.5649370
  53.4913140 101.6361586  21.3316140  59.9991584  92.5021697  12.5337025
  59.1892312  92.1568782  12.9092271  60.6876001  92.1929241  13.1224636
  61.9282132  91.5799744  14.1561321  62.4813171  91.9995197  14.8151344
  62.1652219  90.6535492  14.1984277  57.9515232  97.5686817  29.9364085
  57.8511958  98.5181174  29.8676176  57.7336774  97.2405056  29.0640155
  57.1528303  94.8171743   6.5204762  58.0147467  95.1426641   6.7800580
  57.3378647  94.0303238   6.0077828  49.1695719 102.8994082  18.7984951
  48.4759190 102.4848035  18.2854906  49.9168710 102.9414619  18.2018370
  65.3060939  93.6900269  13.6639985  64.7259608  94.3485073  13.2818038
  65.0396872  92.8677614  13.2527403  63.7564506  93.0905327  15.8661306
  64.2564284  93.2021861  15.0575625  64.4000114  92.7866380  16.5062114
  57.8146502 100.9983956  28.7529147  57.3313583 101.7984316  28.9593036
  57.9007441 101.0091901  27.7996591  51.0832461 102.8312336  16.6750966
  51.0603149 102.9300023  15.7232849  51.3933098 103.6777487  16.9968132
  53.7419839 104.8888491  20.7897581  54.6963093 104.8572433  20.7227512
  53.5432363 104.4279115  21.6047806  54.3319221 103.4589607  23.3568378
  55.1512110 103.9533686  23.3803216  54.6056029 102.5421575  23.3285946
  64.0885817  95.8500359  12.7196334  63.2011672  96.1350010  12.5016528
  64.5039806  95.6894123  11.8723611  67.4400354  95.8746880  16.4350673
  68.2160744  96.3643333  16.7075290  66.7148488  96.3004935  16.8922542
  69.8772912  96.5874500  17.4924614  70.4717403  96.3470236  16.7817922
  69.9499496  95.8681630  18.1198150  52.0970068 110.4308111  17.8067778
  51.9624536 109.6708511  17.2405776  51.6802130 111.1549010  17.3396567
  63.2329031 105.6145034   6.8144354  63.9364881 105.8195037   7.4302009
  62.5091680 106.1821796   7.0793437  64.0626841 101.3654895  12.9346624
  64.0062043 101.8223447  12.0954256  64.6155184 100.6045580  12.7569467
  67.8731647  97.1544627  13.7596743  67.6168581  96.7541263  14.5904951
  67.2484515  97.8688421  13.6346883  72.1843985  99.8940700  16.2668035
  71.6243543  99.9633890  17.0399597  71.5787488  99.7181685  15.5467531
  55.2539194 111.3277428  18.0186221  55.1371578 112.2722860  17.9164911
  54.4331640 111.0250989  18.4072020  65.1415728 106.0527563   8.8642814
  65.9761332 105.6208762   8.6820289  64.9800071 105.8809577   9.7919708
  64.7961620 102.5559677  10.2299153  64.7410424 102.3903948   9.2887597
  64.1707676 103.2635709  10.3861343  49.5854135  97.7927741  24.0560575
  50.2312999  97.2826695  24.5447800  49.3771287  98.5296423  24.6304001
  62.1107528 104.8608588  29.5552716  62.9798687 105.0349241  29.1939351
  61.6314279 105.6803005  29.4328445  58.1057746  92.0567786   9.8084471
  58.0936416  93.0009625   9.9652742  58.9981168  91.8737931   9.5143933
  56.2793708 111.9805689  21.2342149  57.1820955 112.0129300  21.5508644
  56.0531078 111.0506140  21.2488485  58.0347310 110.7336676  17.8952228
  57.0842941 110.7338538  17.7816600  58.3379796 109.9869411  17.3788263
  61.9209865  88.6510562  14.0630408  61.1542261  88.0969049  14.2087091
  62.3320570  88.7232431  14.9244560  53.9251626  94.9395358  28.1535590
  54.7883088  94.5832163  28.3638914  53.3517037  94.6009253  28.8410994
  73.7700003 116.5697214  18.9597991  74.4078413 116.4503962  18.2561331
  73.6520846 117.5178058  19.0185943  70.5789710 116.5224642  18.8959515
  70.2408221 116.4065707  18.0080050  71.4479478 116.1215808  18.8760521
  66.4376525 118.3760119  14.8856406  65.8741390 118.2850056  14.1172694
  66.3228920 117.5560023  15.3658899  71.0609493 117.6759494  24.8545721
  71.0498133 117.2812292  23.9826224  71.2230132 116.9425567  25.4479492
  63.9840957 119.8711310  17.7240627  64.7762249 119.5302135  17.3086926
  64.2237607 119.9806286  18.6442780  67.7816754 120.4596606  23.8024905
  67.4906620 121.3642237  23.6871571  68.4173738 120.5013134  24.5168974
  68.7072961 117.8373455  20.3926264  69.3036533 117.6129477  19.6783227
  68.7647932 117.0958200  20.9951712  73.3241272 114.2948668  16.0351199
  74.1104361 113.8768091  15.6841616  73.5879976 115.1994760  16.2032847
  78.7249699 114.2323901  16.9384177  79.4574871 113.6623118  17.1722007
  77.9689055 113.8445502  17.3790683  70.3425819 116.6551143  14.1347520
  69.9784026 116.1281764  14.8460441  71.1992935 116.2649612  13.9614005
  76.2475119 107.9445476  21.3978786  75.9158444 108.8140886  21.1740001
  75.6520733 107.6281760  22.0772816  69.9831306 111.6841043   9.1308868
  70.1505708 112.5521279   9.4979339  69.7928475 111.8468324   8.2070157
  72.7406639 120.1458022  20.7974698  72.4407362 121.0483060  20.6890506
  72.3957698 119.8790205  21.6495851  66.1919120 116.5971818  16.8311403
  65.2669617 116.4648032  17.0389095  66.4403534 117.3766038  17.3281345
  76.1403783 112.6640562  18.4772136  75.2320660 112.5955970  18.1830897
  76.0891378 113.1412507  19.3053961  69.9620527 114.1398700  10.1155535
  69.8420152 114.5855751  10.9541015  69.2673115 114.4884018   9.5569073
  63.5527931 116.2405092  17.6655192  63.6820313 116.4939571  18.5794604
  62.8725383 116.8332800  17.3459847  70.2144648 114.0830207  26.4207033
  69.4377983 114.6424127  26.4109898  70.8535212 114.5686990  26.9421903
  78.0065429 110.8657000  20.2550010  77.3639809 111.1589533  19.6089804
  77.5020358 110.7509920  21.0603206  68.4691021 116.8915661  25.9825000
  69.2105705 117.4300705  25.7059824  67.7628006 117.5181949  26.1396552
  73.9446360 119.0344801  24.5797161  74.3529716 118.5927212  23.8351794
  73.2223622 118.4597429  24.8331354  70.2977430 113.9717408  21.9530718
  71.1438626 114.3956821  22.0965367  70.2376068 113.3151032  22.6469282
  74.2675175 119.5945992  18.3349450  73.6384037 119.7591706  17.6325518
  73.8800837 120.0087601  19.1060414  73.4476876 111.6321776  23.6111892
  73.2037808 112.3863837  23.0746168  73.7236806 112.0107124  24.4459139
  75.4015339 118.1760389  22.2889158  75.6132234 118.8192149  21.6123539
  75.3545087 117.3422705  21.8211088  73.0041568 110.7878209  19.1925730
  72.1426047 111.0859463  19.4842467  73.0304002 111.0048608  18.2606762
  69.8203137 119.3320400  15.5999535  70.2841482 119.6108103  14.8104158
  69.5559935 118.4303844  15.4172626  66.7127218 118.8791881  18.5379299
  67.2828575 119.3079150  17.8996783  67.3035330 118.5974466  19.2363484
  68.7572023 115.4543552  12.4089101  69.4596066 115.9064596  12.8763027
  68.4252651 114.8127371  13.0368994  67.2052385 114.0455309  26.7840310
  66.5751045 114.7271590  27.0175707  67.0988472 113.9338390  25.8393448
  62.4997357 113.7127105  17.7106234  61.7096411 113.9684633  17.2346345
  62.9908604 114.5275443  17.8158275  76.5161166 121.0532344  20.4611515
  77.3378610 120.6512531  20.1794197  76.5123569 120.9500578  21.4127631
  64.4512102 114.0771684  14.6689711  63.6543266 114.1890378  15.1873207
  64.2237695 114.4158336  13.8030601  70.2817770 120.6016387  22.6172226
  70.3462202 121.0636795  23.4530397  69.5728694 119.9713752  22.7454535
  60.7835060 113.9657595  20.1421225  61.0343098 114.8504605  20.4078801
  61.3194608 113.7862197  19.3696317  66.4833127 108.3476075  29.1465561
  66.0900073 107.7942273  29.8213205  67.2999268 108.6586653  29.5372079
  63.4495185 119.7859933  13.0579131  63.9619706 120.5803183  13.2084696
  64.1017898 119.0886223  12.9912732  65.2590070 122.9025689  15.1401884
  65.4356698 123.8243654  14.9522868  66.0546903 122.5884108  15.5696264
  69.4001088 109.7633954  26.7385818  70.1410802 110.3641107  26.6590280
  69.6319011 109.0211592  26.1803860  64.5442426 114.9490321  25.0164047
  64.4295941 114.0475578  25.3171146  63.6886944 115.1954018  24.6648864
  71.6234264 122.8908061  26.6151548  71.1798118 122.1044440  26.2972452
  72.2851478 123.0787212  25.9495439  66.3821385 124.4203863  21.1412226
  66.9328810 124.2920926  20.3689220  65.5432861 124.7198752  20.7907119
  73.7215502 123.1710861  24.6432949  73.7033977 123.9919742  24.1513218
  74.6435422 123.0464936  24.8683090  70.1788556 120.6854991  25.4856458
  70.7116893 119.9243279  25.2555766  69.6502637 120.3928643  26.2280612
  73.3458251 105.7915057  21.0150099  73.0022521 106.6816698  20.9389210
  73.7137214 105.6016714  20.1519684  61.4144102 118.1148587  13.8338701
  62.2519324 118.5245596  13.6172409  61.5922369 117.1748029  13.8038895
  70.8955645 110.6273369  14.5807773  70.0397241 110.2380219  14.4013411
  71.3082597 110.7065329  13.7207558  72.4254792 108.1619712  18.9799333
  71.9219587 108.1249847  18.1667138  72.7185398 109.0712455  19.0395989
  68.6697677 108.2458442  17.9865514  69.5350674 108.0501250  17.6271404
  68.7375186 108.0168793  18.9134871  73.0994837 113.6550760  11.3482316
  72.7944973 113.9696909  12.1992459  74.0525279 113.7332180  11.3909649
  76.5234115 118.0090004  18.1142316  75.8657789 118.6989265  18.2022444
  77.3274514 118.3986436  18.4576302  66.2759997 110.4760650  15.3581881
  66.8503748 110.2535831  14.6255074  66.8630979 110.5449344  16.1110482
  75.3339574 116.3634376  16.1646258  75.8471455 116.9964368  16.6667967
  75.9840798 115.7635572  15.7989618  66.6029584 112.5065111   9.3777766
  65.7666896 112.8439797   9.6987041  66.4634353 112.3714090   8.4404903
  68.5782664 107.3501898  14.0856951  67.9247077 107.0350916  13.4613565
  68.5363138 106.7277639  14.8116773  71.8120405 113.8383832  18.4104598
  70.8942966 114.0598779  18.2526286  72.2280548 113.9130142  17.5516305
  72.5955452 115.2375248  13.5407278  73.3427271 115.7496645  13.2314400
  72.8647042 114.9159300  14.4011672  75.0434289 112.2732364  15.5226068
  74.3057046 111.7609750  15.8536310  75.2961063 111.8332745  14.7109345
  75.1445917 105.0508616  16.1167837  75.4504794 104.1905979  15.8293752
  75.8698522 105.6426236  15.9166831  61.4370273 115.4539302  14.5049435
  61.2394673 114.8608663  13.7800501  60.8816937 115.1491513  15.2225374
  69.4166997 115.3462409  16.6244028  69.4715606 114.3936245  16.5486505
  68.6058199 115.5021848  17.1085326  67.3559356 113.9639469  14.3834407
  66.5427222 114.2633639  14.7899599  67.8518351 113.5695157  15.1008889
  69.5067934 123.9597226  16.3168672  69.4644113 124.1858072  15.3877204
  70.4230633 123.7260600  16.4654473  72.9533568 114.4281293  23.2149301
  73.3082956 114.6552766  24.0743767  73.6005699 114.7599670  22.5926556
  66.8473431 111.5357824  19.9995642  67.4872811 111.3946583  19.3018605
  66.0150962 111.2492338  19.6234244  78.7100685 119.6176256  18.9309901
  79.1437191 119.5251545  19.7792955  79.4232265 119.5933757  18.2929917
  67.6233735 120.8360255  16.1130634  68.4174334 120.3410575  15.9113209
  66.9125428 120.3078118  15.7498340  72.4428580 123.2178350  20.4643002
  72.4965602 123.7869286  21.2320718  71.5743361 123.3880235  20.0997039
  63.9316499 114.9803336  12.1890387  63.0014087 114.9187792  12.4060349
  64.0273971 114.4579289  11.3927028  63.8502048 111.5058149  14.7768629
  64.1108865 112.4203482  14.6677789  64.6719220 111.0382592  14.9265241
  65.3226973 112.9195906  21.9467453  65.9950026 112.7113269  21.2980102
  64.4956760 112.7217992  21.5072685  79.5716234 119.6599957  21.4642787
  79.7652124 120.5645767  21.7102062  79.4716852 119.2007376  22.2981372
  71.2252545 109.5457847  23.9633114  70.5780460 110.2447797  23.8697590
  71.9953560 109.9793991  24.3309362  74.6331343 119.8106699  27.0383667
  74.4816849 119.5817251  26.1213751  74.6236022 120.7677301  27.0515012
  71.4016679 117.3838612  22.0229934  72.3308739 117.5349772  21.8498901
  70.9807709 117.4722633  21.1678580  70.2005011 121.4089277  19.7928471
  70.0616097 121.0408061  20.6654410  69.4119607 121.9236916  19.6212429
  71.7510226 120.7870879  17.1817309  71.4160059 120.7471649  18.0774959
  71.2514172 120.1215595  16.7087719  65.7254470 116.1938509  22.7069890
  65.5874268 115.4618748  23.3081429  66.6359394 116.1047409  22.4254078
  68.3536771 115.9058469  22.1953570  69.0636389 115.2651661  22.1540188
  68.3106079 116.1571364  23.1179751  76.3423550 122.8425822  25.1160149
  76.2836096 122.1585042  24.4490732  76.7443068 123.5844812  24.6640775
  67.0665705 112.8923687  24.0149209  66.5303062 112.4414425  24.6670806
  66.4782413 113.0269595  23.2719674  65.3614248 129.6587736  17.9093868
  65.6010847 130.2906260  18.5872887  64.5183445 129.3075776  18.1959227
  76.3440957 120.8065406  23.3474129  75.4567736 120.4691328  23.4700528
  76.9139508 120.0748437  23.5842894  57.9970104 117.1389498  16.6717180
  58.6841144 116.8251228  16.0838196  57.8418233 118.0430862  16.3984432
  62.8004826 112.0279694  21.1002204  62.7163015 111.4205364  20.3652614
  61.9787533 112.5188713  21.1011700  69.8742110 125.4666858  20.3135372
  69.8012282 126.2721830  20.8254677  69.4319503 125.6658824  19.4883393
  72.9728540 110.5133258  16.4672399  73.4697240 109.7603220  16.1473469
  72.2015521 110.5497574  15.9015608  80.8258297 116.2173623  18.1090691
  80.8148174 117.0998339  17.7384624  79.9575677 115.8645174  17.9145228
  72.3340794 125.3653692  22.4693531  73.0468766 126.0001157  22.3969432
  71.8430822 125.4617558  21.6533533  74.0558321 119.2704945  14.0410822
  73.1214599 119.3906407  13.8715527  74.2334989 118.3677412  13.7770832
  69.5563509 112.6550641  16.1944084  69.1861296 112.1021681  16.8824989
  70.0522601 112.0508774  15.6419084  77.4430872 115.1122264  14.5760857
  77.9091324 115.9450256  14.5021159  77.8938373 114.6467246  15.2806115
  67.3852707 123.1148136  23.2899102  68.0862167 123.7484619  23.4428496
  66.9147822 123.4562867  22.5294741  75.4147535 107.4802851  18.6151758
  74.5010615 107.7107078  18.7833965  75.8440636 107.5641295  19.4665790
  75.1853993 115.6692743  21.1151652  74.5325444 115.9168651  20.4604105
  75.5634373 114.8556881  20.7814129  71.2341566 116.4112554  27.6017689
  70.5582203 116.3106684  28.2720064  72.0569200 116.2551768  28.0653686
  62.9820425 122.6484491  20.2230204  63.5673862 121.9028179  20.3558108
  62.7845264 122.9588448  21.1066868  65.8359081 125.6835738  15.2392647
  65.1669456 126.1681866  14.7556687  65.6971950 125.9304959  16.1536025
  57.5738080 115.2190091  18.9434647  57.6122180 114.6853682  19.7371766
  57.0678373 114.6925297  18.3245625  69.9764349 127.7179482  21.8375305
  70.5282657 127.8811103  22.6024390  70.3170543 128.3083920  21.1655330
  64.9528842 110.0654632  22.4397190  65.0170169 110.9269462  22.0274587
  64.8895963 109.4528633  21.7069548  64.4281115 112.1377764  26.0870224
  65.0553154 111.7554841  26.7007748  63.5709034 111.9191966  26.4525916
  74.8275224 122.5440739  27.6923959  75.3715127 123.1570698  27.1978914
  74.2462068 123.1020318  28.2090972  61.2046658 113.9454193  12.0188579
  61.5000099 113.0364872  11.9655632  60.3034693 113.9241933  11.6969581
  73.1132736 125.6661457  18.8238987  72.9883876 124.8651197  18.3149933
  73.7711828 126.1607651  18.3352957  64.7340905 112.0210190  18.0016127
  64.0127490 112.6346158  17.8623601  65.5234160 112.5567955  17.9232773
  75.1767645 123.4670477  20.4518537  74.2297980 123.3475829  20.3796864
  75.5250418 122.5792975  20.5344799  67.5367218 109.3564616  24.2756779
  68.0601620 109.6026913  25.0383088  67.3179551 110.1884651  23.8559916
  62.9334499 111.6268291  12.1427904  62.6047205 110.7465670  11.9603010
  63.2873870 111.5715960  13.0304293  72.1814078 123.2623194  16.6522889
  72.0339041 122.3339901  16.8330460  73.0067572 123.2843284  16.1679965
  66.0476322 111.9141261  12.5103382  66.3872395 112.4427182  11.7881990
  66.4948443 112.2521667  13.2861948  75.7848200 124.0851752  17.7387762
  76.7094747 123.8794614  17.6012213  75.6163503 123.8368153  18.6477104
  68.7419763 110.2978311  21.9606450  68.4016584 109.4986124  22.3627130
  68.0358770 110.5980022  21.3883283  69.3936235 107.3827624  20.4133773
  70.2162304 106.9088102  20.2912663  69.6374299 108.1618108  20.9132459
  68.0344470 110.4115882  10.7096674  68.7552832 110.7897135  10.2060391
  67.4109774 111.1304759  10.8131652  72.1775592 111.1161031  11.6455007
  72.3939207 111.9985669  11.3443835  71.6969660 110.7247245  10.9160649
  66.9174814 114.0746744  18.2225751  66.7719395 114.3887048  19.1150033
  66.4400017 114.6931645  17.6696650  68.7771197 111.0649292  18.2706641
  68.7632765 110.1690386  17.9338939  69.4943625 111.0719956  18.9044927
  70.6297327 111.4986633  20.3159768  70.3715105 112.4203703  20.3144099
  70.0982368 111.1017067  21.0060232  61.3920476 116.6152089  21.1613412
  60.8473944 117.3911897  21.2933687  62.2699826 116.9622893  21.0032534
  68.1808093 109.9463673  13.5394211  68.3024004 109.0180319  13.7385099
  67.8910135 109.9602359  12.6272526  71.0499283 107.6318583  16.6760931
  71.0720980 107.6957916  15.7212910  71.4667342 106.7923092  16.8701437
  62.1786498 115.7421985  24.0543569  61.4368234 115.8904620  24.6408200
  61.8579242 116.0030251  23.1910319  70.1230160 125.2837963  23.8523959
  70.4317287 125.0387110  24.7246659  70.9205643 125.4884602  23.3642830
  62.6243112 123.6287414  16.0853964  63.4501131 123.3291186  15.7052608
  62.2737164 122.8595036  16.5343753  67.5924645 122.9813882  18.1551638
  66.9704654 122.3184587  17.8553865  68.2629512 123.0075014  17.4725285
  60.8251717 121.5473740  17.0442898  59.9883625 121.1195915  16.8626899
  60.7975362 121.7406184  17.9813689  67.6649172 111.4595670  27.7484144
  67.7137328 112.3357793  27.3661913  68.2071686 110.9173063  27.1755787
  78.1504018 122.0036793  27.0285281  77.3599562 121.9860932  26.4889780
  77.9137372 122.5425087  27.7834317  78.2701893 118.8529260  24.3418009
  78.3199898 118.6879267  25.2833532  78.1615816 117.9856519  23.9515890
  75.5605655 114.8360188  25.6577316  76.4615518 114.6966653  25.3661314
  75.6353630 115.0014643  26.5975493  69.8948461 112.2127043  24.5030502
  69.0251770 112.5060609  24.2313091  70.1307941 112.7967488  25.2237766
  79.7720090 121.2726201  24.5860031  79.4804898 121.6356182  25.4223492
  79.1592221 120.5593210  24.4073363  80.9715772 118.8379081  17.1062601
  81.8062663 119.2768885  17.2700161  81.1074901 118.3617734  16.2870847
  78.0207278 116.3958816  23.0540089  78.4961400 116.5886462  22.2458940
  77.0972843 116.4518002  22.8083472  64.9090785 117.5582983  12.6371167
  64.6636827 116.6545313  12.8351377  65.0786699 117.5600133  11.6950645
  72.5987494 108.4306659  22.0195923  73.1169438 109.1667686  21.6942411
  72.2442627 108.7370653  22.8542682  64.1786432 113.2911341  10.1357329
  63.4855677 113.3655696   9.4797364  63.9338184 112.5271684  10.6578845
  72.8500089 104.8506942  17.5396819  73.1301842 104.1830131  18.1657246
  73.6350696 105.0436038  17.0271483  76.7208947 113.2724576  21.2868394
  77.6726370 113.3722674  21.3080618  76.5512397 112.4802845  21.7966479
  74.7423326 110.3580159  21.4727795  74.1473259 110.6385172  20.7774284
  74.4573023 110.8474060  22.2444536  79.1997025 116.4930696  20.4010694
  79.1673345 115.5546696  20.5870378  79.8097648 116.5714732  19.6676519
  79.3491513 113.2841739  20.4468977  78.8330562 112.5000196  20.2598906
  80.2331462 112.9560456  20.6115497  77.0102240 107.0282755  16.4064790
  76.8127061 106.7197843  17.2908122  77.6201946 107.7544394  16.5362720
  85.0173575 117.5546702  19.5416731  85.7476963 117.2931991  20.1024434
  84.4080520 116.8175424  19.5818799  83.0988872 115.6954565  20.1391182
  82.3722035 115.5610530  19.5307674  82.6836159 116.0031394  20.9447900
  70.9219048 119.4144495  27.9038555  71.8422058 119.5923094  28.0978602
  70.8868631 118.4700540  27.7518254  60.1401213 114.6083088  16.8291830
  59.8203998 113.7548397  16.5366204  59.5934641 114.8231667  17.5849797
  63.9181121 117.3245529  20.5461336  64.1367130 118.2562637  20.5649370
  64.3306895 116.9653504  21.3316140  70.8385339 107.8313615  12.5337025
  70.0286067 107.4860700  12.9092271  71.5269755 107.5221158  13.1224636
  72.7675887 106.9091662  14.1561321  73.3206925 107.3287115  14.8151344
  73.0045973 105.9827410  14.1984277  68.7908986 112.8978735  29.9364085
  68.6905713 113.8473092  29.8676176  68.5730528 112.5696974  29.0640155
  67.9922057 110.1463660   6.5204762  68.8541221 110.4718559   6.7800580
  68.1772402 109.3595156   6.0077828  60.0089473 118.2286000  18.7984951
  59.3152945 117.8139953  18.2854906  60.7562464 118.2706536  18.2018370
  76.1454694 109.0192187  13.6639985  75.5653363 109.6776991  13.2818038
  75.8790627 108.1969531  13.2527403  74.5958260 108.4197244  15.8661306
  75.0958039 108.5313779  15.0575625  75.2393868 108.1158297  16.5062114
  68.6540256 116.3275874  28.7529147  68.1707338 117.1276234  28.9593036
  68.7401195 116.3383819  27.7996591  61.9226216 118.1604254  16.6750966
  61.8996904 118.2591941  15.7232849  62.2326852 119.0069404  16.9968132
  64.5813594 120.2180409  20.7897581  65.5356847 120.1864351  20.7227512
  64.3826117 119.7571032  21.6047806  65.1712976 118.7881525  23.3568378
  65.9905865 119.2825603  23.3803216  65.4449783 117.8713493  23.3285946
  74.9279572 111.1792277  12.7196334  74.0405427 111.4641928  12.5016528
  75.3433561 111.0186040  11.8723611  78.2794108 111.2038798  16.4350673
  79.0554498 111.6935250  16.7075290  77.5542242 111.6296852  16.8922542
  80.7166667 111.9166417  17.4924614  81.3111157 111.6762153  16.7817922
  80.7893250 111.1973548  18.1198150  62.9363822 125.7600028  17.8067778
  62.8018290 125.0000429  17.2405776  62.5195885 126.4840928  17.3396567
  78.7125402 112.4836545  13.7596743  78.4562336 112.0833181  14.5904951
  78.0878270 113.1980339  13.6346883  83.0237739 115.2232618  16.2668035
  82.4637297 115.2925807  17.0399597  82.4181243 115.0473603  15.5467531
  66.0932948 126.6569345  18.0186221  65.9765332 127.6014778  17.9164911
  65.2725395 126.3542907  18.4072020  60.4247890 113.1219659  24.0560575
  61.0706754 112.6118613  24.5447800  60.2165041 113.8588340  24.6304001
  72.9501282 120.1900506  29.5552716  73.8192442 120.3641158  29.1939351
  72.4708034 121.0094923  29.4328445  68.9451500 107.3859703   9.8084471
  68.9330170 108.3301543   9.9652742  69.8374922 107.2029849   9.5143933
  67.1187462 127.3097607  21.2342149  68.0214709 127.3421217  21.5508644
  66.8924832 126.3798058  21.2488485  68.8741064 126.0628594  17.8952228
  67.9236695 126.0630455  17.7816600  69.1773551 125.3161328  17.3788263
  72.7603620 103.9802480  14.0630408  71.9936016 103.4260967  14.2087091
  73.1714325 104.0524349  14.9244560  64.7645381 110.2687276  28.1535590
  65.6276843 109.9124081  28.3638914  64.1910792 109.9301171  28.8410994
  81.0538403 129.4122125  26.4207033  80.2771737 129.9716045  26.4109898
  81.6928966 129.8978908  26.9421903  79.3084775 132.2207578  25.9825000
  80.0499460 132.7592622  25.7059824  78.6021761 132.8473867  26.1396552
  84.2870630 126.9613694  23.6111892  84.0431562 127.7155754  23.0746168
  84.5630561 127.3399042  24.4459139  78.0446139 129.3747227  26.7840310
  77.4144800 130.0563507  27.0175707  77.9382227 129.2630308  25.8393448
  71.6228814 129.2949513  20.1421225  71.8736853 130.1796523  20.4078801
  72.1588363 129.1154115  19.3696317  77.3226882 123.6767992  29.1465561
  76.9293827 123.1234191  29.8213205  78.1393022 123.9878571  29.5372079
  80.2394843 125.0925871  26.7385818  80.9804556 125.6933025  26.6590280
  80.4712766 124.3503509  26.1803860  75.3836181 130.2782239  25.0164047
  75.2689696 129.3767496  25.3171146  74.5280698 130.5245935  24.6648864
  84.1852006 121.1206974  21.0150099  83.8416275 122.0108616  20.9389210
  84.5530968 120.9308632  20.1519684  76.1620727 128.2487824  21.9467453
  76.8343781 128.0405186  21.2980102  75.3350514 128.0509910  21.5072685
  82.0646299 124.8749765  23.9633114  81.4174215 125.5739715  23.8697590
  82.8347315 125.3085909  24.3309362  76.5648225 131.5230427  22.7069890
  76.4268023 130.7910666  23.3081429  77.4753148 131.4339327  22.4254078
  77.9059459 128.2215604  24.0149209  77.3696816 127.7706343  24.6670806
  77.3176168 128.3561513  23.2719674  73.6398581 127.3571612  21.1002204
  73.5556769 126.7497282  20.3652614  72.8181287 127.8480630  21.1011700
  82.0735321 131.7404472  27.6017689  81.3975958 131.6398601  28.2720064
  82.8962955 131.5843686  28.0653686  68.4131835 130.5482009  18.9434647
  68.4515934 130.0145599  19.7371766  67.9072127 130.0217214  18.3245625
  75.7922597 125.3946549  22.4397190  75.8563923 126.2561380  22.0274587
  75.7289717 124.7820551  21.7069548  75.2674869 127.4669682  26.0870224
  75.8946908 127.0846759  26.7007748  74.4102788 127.2483884  26.4525916
  78.3760973 124.6856534  24.2756779  78.8995375 124.9318831  25.0383088
  78.1573306 125.5176569  23.8559916  79.5813518 125.6270229  21.9606450
  79.2410338 124.8278042  22.3627130  78.8752524 125.9271940  21.3883283
  80.2329990 122.7119541  20.4133773  81.0556059 122.2380020  20.2912663
  80.4768053 123.4910025  20.9132459  72.2314230 131.9444007  21.1613412
  71.6867699 132.7203814  21.2933687  73.1093580 132.2914811  21.0032534
  73.0180252 131.0713903  24.0543569  72.2761988 131.2196538  24.6408200
  72.6972997 131.3322168  23.1910319  78.5042927 126.7887588  27.7484144
  78.5531082 127.6649711  27.3661913  79.0465441 126.2464981  27.1755787
  80.7342215 127.5418960  24.5030502  79.8645525 127.8352526  24.2313091
  80.9701695 128.1259405  25.2237766  83.4381249 123.7598577  22.0195923
  83.9563193 124.4959604  21.6942411  83.0836382 124.0662570  22.8542682
  81.7612803 134.7436412  27.9038555  82.6815812 134.9215011  28.0978602
  81.7262386 133.7992458  27.7518254  79.6302741 128.2270653  29.9364085
  79.5299467 129.1765010  29.8676176  79.4124283 127.8988892  29.0640155
  79.4934011 131.6567792  28.7529147  79.0101092 132.4568152  28.9593036
  79.5794950 131.6675737  27.7996591  71.2641644 128.4511576  24.0560575
  71.9100508 127.9410530  24.5447800  71.0558796 129.1880258  24.6304001
  83.7895037 135.5192424  29.5552716  84.6586196 135.6933076  29.1939351
  83.3101788 136.3386841  29.4328445  75.6039135 125.5979193  28.1535590
  76.4670597 125.2415998  28.3638914  75.0304546 125.2593088  28.8410994
  38.5428230  48.6945864  11.5791027  38.5316871  48.2998662  10.7071531
  38.7048870  47.9611936  12.1724799  35.2635492  51.4782976  10.5270211
  34.9725358  52.3828606  10.4116878  35.8992476  51.5199503  11.2414281
  37.6963386  45.1016577  13.1452340  36.9196720  45.6610497  13.1355204
  38.3353949  45.5873360  13.6667210  35.9509759  47.9102030  12.7070307
  36.6924443  48.4487074  12.4305130  35.2446744  48.5368319  12.8641858
  41.4265098  50.0531171  11.3042468  41.8348454  49.6113581  10.5597100
  40.7042360  49.4783798  11.5576661  43.9979904  52.0718714   7.1856822
  44.8197348  51.6698901   6.9039503  43.9942307  51.9686948   8.1372937
  39.1053002  53.9094431  13.3396855  38.6616856  53.1230809  13.0217759
  39.7670215  54.0973581  12.6740745  41.2034240  54.1897231  11.3678256
  41.1852715  55.0106112  10.8758525  42.1254160  54.0651306  11.5928397
  37.6607294  51.7041360  12.2101764  38.1935631  50.9429648  11.9801072
  37.1321375  51.4115012  12.9525919  47.0534972  50.6786326   8.1888093
  47.2470862  51.5832137   8.4347368  46.9535590  50.2193745   9.0226678
  42.1150081  50.8293069  13.7628974  41.9635587  50.6003621  12.8459058
  42.1054760  51.7863670  13.7760319  43.8242287  53.8612192  11.8405456
  43.7654834  53.1771412  11.1736039  44.2261806  54.6031182  11.3886082
  43.8259695  51.8251776  10.0719436  42.9386473  51.4877697  10.1945834
  44.3958246  51.0934807  10.3088201  39.8159532  56.3840062   9.1938837
  40.5287504  57.0187527   9.1214739  39.3249560  56.4803928   8.3778839
  34.8671445  54.1334505  10.0144408  35.5680905  54.7670988  10.1673802
  34.3966560  54.4749237   9.2540047  38.7160304  47.4298924  14.3262996
  38.0400941  47.3293053  14.9965371  39.5387938  47.2738138  14.7898993
  37.4583087  58.7365851   8.5620612  38.0101395  58.8997473   9.3269697
  37.7989280  59.3270289   7.8900636  42.3093961  53.5627109  14.4169266
  42.8533865  54.1757067  13.9224221  41.7280806  54.1206687  14.9336279
  42.6586383  54.4856847   7.1763844  41.7116718  54.3662198   7.1042171
  43.0069156  53.5979345   7.2590105  37.6048898  56.3024333  10.5769266
  37.9136025  56.0573480  11.4491966  38.4024380  56.5070971  10.0888136
  45.6322756  53.0223163  13.7530587  44.8418299  53.0047302  13.2135087
  45.3956110  53.5611457  14.5079624  45.7520631  49.8715629  11.0663316
  45.8018636  49.7065637  12.0078839  45.6434554  49.0042888  10.6761197
  43.0424393  45.8546557  12.3822623  43.9434256  45.7153022  12.0906620
  43.1172368  46.0201012  13.3220800  47.2538828  52.2912571  11.3105337
  46.9623636  52.6542551  12.1468798  46.6410959  51.5779579  11.1318669
  45.5026016  47.4145185   9.7785395  45.9780137  47.6072832   8.9704247
  44.5791581  47.4704371   9.5328779  52.4992312  48.5733072   6.2662037
  53.2295701  48.3118360   6.8269741  51.8899258  47.8361794   6.3064105
  38.4037786  50.4330864  14.6283862  39.3240795  50.6109463  14.8223908
  38.3687369  49.4886910  14.4763561  36.2727724  43.9165105  16.6609392
  36.1724451  44.8659462  16.5921483  36.0549266  43.5883344  15.7885462
  36.1358994  47.3462244  15.4774453  35.6526076  48.1462604  15.6838342
  36.2219933  47.3570188  14.5241897  40.4320020  51.2086876  16.2798022
  41.3011180  51.3827528  15.9184657  39.9526771  52.0281293  16.1573752
  34.6006200  58.3283977   7.9587456  35.5033447  58.3607587   8.2753951
  34.3743570  57.3984428   7.9733792  52.0912496  62.9175502   5.6843297
  52.7290906  62.7982249   4.9806637  51.9733339  63.8656346   5.7431249
  48.9002202  62.8702930   5.6204822  48.5620713  62.7543994   4.7325357
  49.7691970  62.4694095   5.6005828  44.7589018  64.7238406   1.6101713
  44.1953883  64.6328343   0.8418001  44.6441413  63.9038311   2.0904205
  49.3821985  64.0237781  11.5791027  49.3710626  63.6290580  10.7071531
  49.5442624  63.2903854  12.1724799  42.3053450  66.2189598   4.4485933
  43.0974741  65.8780422   4.0332233  42.5450100  66.3284573   5.3688087
  50.3388576  68.3909374  -3.0783822  49.6876556  68.9763454  -3.4649809
  51.1332939  68.9215569  -3.0188785  46.1029246  66.8074893  10.5270211
  45.8119112  67.7120524  10.4116878  46.7386230  66.8491421  11.2414281
  47.0285453  64.1851742   7.1171571  47.6249025  63.9607764   6.4028534
  47.0860424  63.4436487   7.7197019  51.6453764  60.6426955   2.7596505
  52.4316853  60.2246379   2.4086922  51.9092468  61.5473048   2.9278154
  51.8163841  66.0799806  -2.5414838  51.1809674  66.1534432  -1.8293933
  51.4861248  66.6693405  -3.2195759  57.0462191  60.5802189   3.6629484
  57.7787363  60.0101405   3.8967313  56.2901547  60.1923789   4.1035989
  48.6638311  63.0029430   0.8592826  48.2996518  62.4760051   1.5705748
  49.5205427  62.6127899   0.6859312  54.5687612  54.2923763   8.1224092
  54.2370936  55.1619174   7.8985307  53.9733225  53.9760047   8.8018123
  51.0619131  66.4936309   7.5220005  50.7619854  67.3961348   7.4135812
  50.7170191  66.2268492   8.3741158  44.5131613  62.9450106   3.5556709
  43.5882109  62.8126320   3.7634401  44.7616026  63.7244325   4.0526652
  54.4616275  59.0118849   5.2017442  53.5533152  58.9434257   4.9076203
  54.4103871  59.4890794   6.0299268  41.8740424  62.5883379   4.3900499
  42.0032805  62.8417858   5.3039910  41.1937875  63.1811087   4.0705154
  46.0439911  73.2580629   0.4890973  45.9663941  74.2088454   0.5679453
  45.4401555  72.9126502   1.1465899  48.5357141  60.4308495  13.1452340
  47.7590475  60.9902415  13.1355204  49.1747704  60.9165278  13.6667210
  56.3277921  57.2135287   6.9795316  55.6852302  57.5067821   6.3335111
  55.8232850  57.0988208   7.7848513  53.9818085  60.9598461  -2.3318824
  54.8935941  61.1925847  -2.5071127  53.4727732  61.5435505  -2.8943746
  46.7903513  63.2393948  12.7070307  47.5318197  63.7778992  12.4305130
  46.0840498  63.8660237  12.8641858  52.2658853  65.3823088  11.3042468
  52.6742209  64.9405499  10.5597100  51.5436114  64.8075716  11.5576661
  48.6189923  60.3195695   8.6776025  49.4651118  60.7435109   8.8210674
  48.5588560  59.6629319   9.3714588  52.5887667  65.9424279   5.0594757
  51.9596530  66.1069993   4.3570825  52.2013329  66.3565889   5.8305721
  56.4676899  66.8778717   2.4139121  55.7827937  67.2577618   1.8636154
  56.5520749  67.4874043   3.1471069  51.7689368  57.9800063  10.3357199
  51.5250300  58.7342124   9.7991474  52.0449299  58.3585411  11.1704446
  53.7227831  64.5238676   9.0134464  53.9344726  65.1670436   8.3368845
  53.6757579  63.6900992   8.5456394  51.3254060  57.1356497   5.9171036
  50.4638539  57.4337750   6.2087774  51.3516494  57.3526895   4.9852069
  48.1415629  65.6798687   2.3244842  48.6053975  65.9586390   1.5349465
  47.8772427  64.7782132   2.1417933  45.0339710  65.2270169   5.2624605
  45.6041067  65.6557437   4.6242090  45.6247822  64.9452753   5.9608791
  45.5264877  60.3933596  13.5085617  44.8963537  61.0749877  13.7421013
  45.4200965  60.2816678  12.5638755  40.8209849  60.0605392   4.4351541
  40.0308903  60.3162921   3.9591651  41.3121097  60.8753730   4.5403581
  54.8373659  67.4010631   7.1856822  55.6591102  66.9990819   6.9039503
  54.8336062  67.2978865   8.1372937  48.6030262  66.9494675   9.3417532
  48.6674695  67.4115082  10.1775704  47.8941186  66.3192040   9.4699842
  39.1047552  60.3135883   6.8666532  39.3555591  61.1982892   7.1324108
  39.6407101  60.1340484   6.0941623  62.9279652  63.7449380   3.5341793
  62.1743360  63.1756778   3.3785798  63.0627193  63.7112044   4.4812428
  48.3178280  68.6162782  -0.7903488  48.1823955  69.4614318  -0.3618640
  48.8588092  68.8182060  -1.5537554  44.8045620  54.6954362  15.8710868
  44.4112565  54.1420560  16.5458512  45.6211760  55.0064940  16.2617385
  41.7707677  66.1338220  -0.2175562  42.2832198  66.9281470  -0.0669998
  42.4230390  65.4364511  -0.2841961  43.5802562  69.2503976   1.8647191
  43.7569190  70.1721941   1.6768175  44.3759395  68.9362396   2.2941571
  47.7213581  56.1112241  13.4631124  48.4623294  56.7119394  13.3835587
  47.9531503  55.3689879  12.9049167  42.8654919  61.2968608  11.7409354
  42.7508434  60.3953866  12.0416453  42.0099436  61.5432305  11.3894170
  49.9446756  69.2386349  13.3396855  49.5010610  68.4522727  13.0217759
  50.6063970  69.4265499  12.6740745  44.7033877  70.7682150   7.8657533
  45.2541303  70.6399214   7.0934527  43.8645353  71.0677039   7.5152426
  52.0427994  69.5189149  11.3678256  52.0246470  70.3398030  10.8758525
  52.9647914  69.3943224  11.5928397  48.5001048  67.0333278  12.2101764
  49.0329385  66.2721566  11.9801072  47.9715130  66.7406930  12.9525919
  51.6670743  52.1393344   7.7395406  51.3235013  53.0294986   7.6634517
  52.0349706  51.9495002   6.8764991  50.7467284  54.5097999   5.7044639
  50.2432079  54.4728134   4.8912444  51.0397891  55.4190742   5.7641296
  46.9910170  54.5936729   4.7110821  47.8563166  54.3979538   4.3516710
  47.0587679  54.3647081   5.6380178  56.6055300  64.8834310  -1.8178985
  55.8284743  64.5445469  -2.2623823  57.2846781  64.8886933  -2.4924020
  49.8653761  66.1619270  -0.2779424  49.3375123  65.4272030  -0.5906186
  49.3641264  66.9393947  -0.5239455  54.8446607  64.3568291   4.8387623
  54.1870282  65.0467552   4.9267751  55.6487006  64.7464723   5.1821609
  53.6552066  62.7112664   2.8891564  54.1683948  63.3442655   3.3913274
  54.3053290  62.1113859   2.5234924  50.9174440  72.6896988  -4.3547765
  50.2436139  72.9928685  -3.7462807  51.3040262  73.4926068  -4.7042308
  50.1332897  60.1862119   5.1349905  49.2155458  60.4077066   4.9771593
  50.5493040  60.2608430   4.2761612  50.9167945  61.5853535   0.2652585
  51.6639764  62.0974932  -0.0440293  51.1859534  61.2637588   1.1256979
  54.4213862  67.6918665   1.0170707  53.9676189  66.8509575   1.0735897
  53.7907829  68.3280063   1.3545487  53.3646782  58.6210651   2.2471374
  52.6269539  58.1088037   2.5781617  53.6173555  58.1811033   1.4354651
  52.8646801  69.5295162   1.9520525  53.1569776  70.0900219   1.2332891
  53.3745422  69.8223723   2.7073684  47.7379489  61.6940696   3.3489335
  47.7928099  60.7414533   3.2731811  46.9270691  61.8500135   3.8330633
  45.6771849  60.3117756   1.1079714  44.8639714  60.6111927   1.5144906
  46.1730843  59.9173445   1.8254196  47.8280427  70.3075513   3.0413978
  47.7856605  70.5336359   2.1122510  48.7443126  70.0738887   3.1899779
  51.2746060  60.7759580   9.9394607  51.6295448  61.0031054  10.7989073
  51.9218192  61.1077957   9.3171863  57.0043797  63.8978016   0.6443936
  56.8661696  64.0879612  -0.2834874  56.6480016  64.6597399   1.1011988
  45.1685924  57.8836111   6.7240949  45.8085303  57.7424871   6.0263912
  44.3363454  57.5970625   6.3479550  57.0313177  65.9654543   5.6555208
  57.4649684  65.8729832   6.5038262  57.7444758  65.9412044   5.0175224
  45.9446227  67.1838542   2.8375941  46.7386826  66.6888862   2.6358516
  45.2337920  66.6556405   2.4743647  50.7641072  69.5656637   7.1888309
  50.8178094  70.1347574   7.9566024  49.8955853  69.7358522   6.8242346
  43.6439465  59.2674194   8.6712760  44.3162519  59.0591556   8.0225409
  42.8169252  59.0696280   8.2317992  57.8928727  66.0078244   8.1888093
  58.0864617  66.9124054   8.4347368  57.7929345  65.5485663   9.0226678
  49.5465037  55.8936135  10.6878421  48.8992952  56.5926084  10.5942897
  50.3166053  56.3272278  11.0554669  52.9543835  66.1584987  13.7628974
  52.8029342  65.9295538  12.8459058  52.9448515  67.1155588  13.7760319
  49.7229172  63.7316899   8.7475240  50.6521232  63.8828059   8.5744208
  49.3020202  63.8200920   7.8923887  48.5217503  67.7567564   6.5173778
  48.3828589  67.3886348   7.3899716  47.7332100  68.2715203   6.3457736
  49.1165655  72.8576660  -2.1400685  49.2917411  72.3864704  -1.3255063
  48.4298443  73.4842427  -1.9119425  50.0722719  67.1349167   3.9062616
  49.7372551  67.0949937   4.8020266  49.5726664  66.4693882   3.4333026
  44.0466963  62.5416797   9.4315197  43.9086760  61.8097035  10.0326736
  44.9571886  62.4525697   9.1499385  46.6749263  62.2536756   8.9198877
  47.3848882  61.6129948   8.8785495  46.6318571  62.5049651   9.8425057
  54.6636042  69.1904109  11.8405456  54.6048588  68.5063329  11.1736039
  55.0655560  69.9323099  11.3886082  45.3878197  59.2401974  10.7394516
  44.8515554  58.7892712  11.3916112  44.7994906  59.3747883   9.9964980
  43.6826741  76.0066023   4.6339175  43.9223339  76.6384547   5.3118193
  42.8395937  75.6554063   4.9204534  54.6653449  67.1543693  10.0719436
  53.7780228  66.8169615  10.1945834  55.2352000  66.4226724  10.3088201
  36.3182596  63.4867785   3.3962487  37.0053636  63.1729515   2.8083502
  36.1630725  64.3909150   3.1229738  41.1217318  58.3757982   7.8247511
  41.0375507  57.7683651   7.0897921  40.3000025  58.8667000   7.8257007
  48.1954603  71.8145146   7.0380679  48.1224774  72.6200117   7.5499983
  47.7531996  72.0137111   6.2128700  47.9844382  71.0516916   0.5483500
  47.2011904  71.5938596   0.6421725  48.6837127  71.5690895   0.9477741
  51.2941032  56.8611545   3.1917706  51.7909732  56.1081507   2.8718776
  50.5228014  56.8975862   2.6260915  59.1470790  62.5651911   4.8335997
  59.1360666  63.4476626   4.4629930  58.2788169  62.2123461   4.6390534
  50.6553286  71.7131980   9.1938837  51.3681258  72.3479444   9.1214739
  50.1643315  71.8095846   8.3778839  52.3770813  65.6183232   0.7656129
  51.4427092  65.7384695   0.5960833  52.5547481  64.7155699   0.5016139
  47.8776001  59.0028928   2.9189390  47.5073789  58.4499968   3.6070296
  48.3735093  58.3987062   2.3664390  55.7643364  61.4600552   1.3006163
  56.2303817  62.2928543   1.2266466  56.2150865  60.9945533   2.0051422
  45.7065200  69.4626423  10.0144408  46.4074659  70.0962906  10.1673802
  45.2360315  69.8041155   9.2540047  53.8319595  67.8044373  -1.7007685
  54.1079439  67.6900967  -0.7913811  52.9624094  67.4061858  -1.7395512
  53.7360027  53.8281139   5.3397065  52.8223107  54.0585365   5.5079271
  54.1653129  53.9119583   6.1911097  53.5066486  62.0171031   7.8396959
  52.8537936  62.2646938   7.1849411  53.8846865  61.2035169   7.5059436
  50.4673659  72.0530724   1.9425129  50.6496054  71.2352380   2.4052881
  51.2906645  72.2698416   1.5050019  50.8015825  70.9798909  -0.7959823
  51.3303591  70.4691363  -1.4089661  51.0644045  70.6641439   0.0685710
  49.5554059  62.7590842  14.3262996  48.8794696  62.6584971  14.9965371
  50.3781692  62.6030055  14.7898993  41.3032918  68.9962778   6.9475511
  41.8886354  68.2506466   7.0803415  41.1057756  69.3066735   7.8312175
  44.1571573  72.0314025   1.9637953  43.4881948  72.5160153   1.4801993
  44.0184443  72.2783246   2.8781332  35.8950572  61.5668378   5.6679954
  35.9334672  61.0331969   6.4617072  35.3890865  61.0403584   5.0490931
  48.2976841  74.0657769   8.5620612  48.8495149  74.2289391   9.3269697
  48.6383035  74.6562207   7.8900636  43.2741335  56.4132919   9.1642496
  43.3382661  57.2747750   8.7519894  43.2108455  55.8006920   8.4314855
  42.7493607  58.4856051  12.8115531  43.3765646  58.1033129  13.4253055
  41.8921526  58.2670253  13.1771223  53.1487716  68.8919027  14.4169266
  53.6927620  69.5048985  13.9224221  52.5674561  69.4498605  14.9336279
  51.4345229  72.0139745   5.5484294  51.3096368  71.2129484   5.0395239
  52.0924320  72.5085938   5.0598264  43.0553397  58.3688477   4.7261434
  42.3339983  58.9824445   4.5868907  43.8446653  58.9046242   4.6478080
  53.4980137  69.8148765   7.1763844  52.5510473  69.6954116   7.1042171
  53.8462910  68.9271263   7.2590105  45.8579710  55.7042904  11.0002086
  46.3814112  55.9505200  11.7628395  45.6392044  56.5362938  10.5805223
  50.5026570  69.6101481   3.3768196  50.3551533  68.6818188   3.5575766
  51.3280064  69.6321572   2.8925271  54.1060692  70.4330040   4.4633069
  55.0307240  70.2272901   4.3257520  53.9375996  70.1846441   5.3722410
  47.0632256  56.6456599   8.6851756  46.7229076  55.8464412   9.0872436
  46.3571262  56.9458309   8.1128589  47.7148727  53.7305911   7.1379079
  48.5374797  53.2566389   7.0157970  47.9586791  54.5096395   7.6377766
  45.2387306  60.4225032   4.9471058  45.0931887  60.7365335   5.8395339
  44.7612510  61.0409932   4.3941957  47.0983689  57.4127580   4.9951947
  47.0845258  56.5168673   4.6584245  47.8156117  57.4198243   5.6290234
  48.9509820  57.8464920   7.0405075  48.6927598  58.7681991   7.0389405
  48.4194860  57.4495354   7.7305539  53.8956008  70.9515707  -0.1804840
  54.0692886  70.3862130  -0.9330987  54.3884900  71.7516602  -0.3625350
  39.7132968  62.9630376   7.8858719  39.1686436  63.7390184   8.0178993
  40.5912318  63.3101181   7.7277841  59.7495400  63.7152130   1.4385460
  60.1926546  62.9659455   1.0404583  58.8721910  63.7062266   1.0559192
  54.8831181  70.2682471  -3.0807941  55.5782086  70.8889164  -2.8620627
  55.2254331  69.4177823  -2.8055564  40.4998990  62.0900272  10.7788876
  39.7580726  62.2382908  11.3653506  40.1791734  62.3508538   9.9155625
  56.7822604  67.7182177  -1.5520611  57.3073928  68.0569450  -2.2771291
  56.6944957  66.7829192  -1.7357476  48.4442653  71.6316251  10.5769266
  48.7529779  71.3865397  11.4491966  49.2418135  71.8362889  10.0888136
  48.4663265  73.7854160   2.8074643  48.0268255  73.2930539   3.5007499
  49.2171382  73.2427128   2.5666718  40.9455604  69.9765701   2.8099271
  41.7713624  69.6769473   2.4297914  40.5949656  69.2073324   3.2589059
  45.9137137  69.3292169   4.8796944  45.2917146  68.6662874   4.5799172
  46.5842004  69.3553301   4.1970592  39.1464209  67.8952028   3.7688204
  38.3096117  67.4674202   3.5872205  39.1187854  68.0884471   4.7058995
  45.9861664  57.8073957  14.4729450  46.0349820  58.6836080  14.0907220
  46.5284179  57.2651350  13.9001093  56.4716510  68.3515081  13.7530587
  55.6812054  68.3339219  13.2135087  56.2349865  68.8903374  14.5079624
  56.5914385  65.2007547  11.0663316  56.6412390  65.0357554  12.0078839
  56.4828309  64.3334806  10.6761197  45.4750644  67.8796093  -1.6444595
  45.6238764  68.5631557  -2.2977923  46.2817087  67.8601183  -1.1295140
  53.8818148  61.1838475  12.3822623  54.7828010  61.0444940  12.0906620
  53.9566122  61.3492930  13.3220800  48.2160953  58.5605330  11.2275809
  47.3464262  58.8538896  10.9558397  48.4520433  59.1445775  11.9483073
  58.0932582  67.6204488  11.3105337  57.8017390  67.9834469  12.1468798
  57.4804713  66.9071497  11.1318669  59.2928264  65.1857368   3.8307908
  60.1275156  65.6247172   3.9945468  59.4287393  64.7096021   3.0116153
  56.3419770  62.7437103   9.7785395  56.8173892  62.9364749   8.9704247
  55.4185336  62.7996289   9.5328779  50.9199987  54.7784947   8.7441229
  51.4381931  55.5145974   8.4187718  50.5655120  55.0848940   9.5787988
  51.1712581  51.1985229   4.2642126  51.4514335  50.5308418   4.8902552
  51.9563188  51.3914325   3.7516790  48.9746049  70.3744223  -4.1732848
  48.4020016  70.9934410  -4.6262376  49.5478843  70.9243585  -3.6392926
  55.0421439  59.6202863   8.0113701  55.9938862  59.7200961   8.0325925
  54.8724890  58.8281132   8.5211785  53.0635819  56.7058446   8.1973102
  52.4685751  56.9863459   7.5019591  52.7785515  57.1952347   8.9689843
  52.1943309  70.6581373  -3.0424266  53.1273982  70.5926935  -2.8391390
  52.1066522  71.4937640  -3.5009733  54.8231326  69.9747244  -6.0820318
  54.7444957  69.6407107  -5.1884560  55.6440993  70.4669011  -6.0828846
  57.5209517  62.8408983   7.1256001  57.4885837  61.9024984   7.3115684
  58.1310141  62.9193020   6.3921826  57.6704006  59.6320026   7.1714284
  57.1543054  58.8478483   6.9844213  58.5543954  59.3038743   7.3360803
  55.3314732  53.3761042   3.1310096  55.1339554  53.0676130   4.0153428
  55.9414438  54.1022681   3.2608026  63.3386067  63.9024990   6.2662037
  64.0689455  63.6410278   6.8269741  62.7293012  63.1653712   6.3064105
  61.4201364  62.0432852   6.8636489  60.6934528  61.9088817   6.2552980
  61.0048651  62.3509681   7.6693207  49.2431540  65.7622782  14.6283862
  50.1634550  65.9401381  14.8223908  49.2081123  64.8178827  14.4763561
  42.2393613  63.6723817   7.2706643  42.4579623  64.6040924   7.2894677
  42.6519387  63.3131791   8.0561447  47.1121478  59.2457022  16.6609392
  47.0118205  60.1951379  16.5921483  46.8943020  58.9175261  15.7885462
  38.3301965  64.5764287   5.5230258  37.6365437  64.1618240   5.0100212
  39.0774956  64.6184824   4.9263677  52.9170753  54.7675532   2.5906612
  53.4170531  54.8792066   1.7820931  53.5606360  54.4636584   3.2307421
  46.9752748  62.6754161  15.4774453  46.4919830  63.4754521  15.6838342
  47.0613687  62.6862106  14.5241897  40.2438708  64.5082541   3.3996273
  40.2209396  64.6070228   2.4478156  40.5539344  65.3547692   3.7213439
  42.9026086  66.5658696   7.5142887  43.8569339  66.5342638   7.4472819
  42.7038609  66.1049320   8.3293113  43.4925468  65.1359812  10.0813685
  44.3118357  65.6303891  10.1048522  43.7662276  64.2191780  10.0531252
  56.6006600  57.5517085   3.1595980  57.3766990  58.0413538   3.4320596
  55.8754734  57.9775139   3.6167849  59.0379159  58.2644705   4.2169920
  59.6323650  58.0240440   3.5063228  59.1105743  57.5451835   4.8443457
  41.2576315  72.1078315   4.5313085  41.1230783  71.3478716   3.9651083
  40.8408377  72.8319215   4.0641874  53.2233088  63.0425100  -0.3408069
  53.1668289  63.4993652  -1.1800437  53.7761430  62.2815785  -0.5185227
  57.0337894  58.8314832   0.4842050  56.7774828  58.4311468   1.3150258
  56.4090762  59.5458626   0.3592189  61.3450232  61.5710905   2.9913341
  60.7849790  61.6404095   3.7644903  60.7393735  61.3951890   2.2712838
  44.4145441  73.0047632   4.7431528  44.2977825  73.9493065   4.6410218
  43.5937887  72.7021194   5.1317327  54.3021975  67.7297768  -4.4111880
  55.1367579  67.2978967  -4.5934405  54.1406318  67.5579782  -3.4834985
  53.9567867  64.2329881  -3.0455540  53.9016671  64.0674153  -3.9867096
  53.3313923  64.9405914  -2.8893351  38.7460382  59.4697946  10.7805882
  39.3919246  58.9596900  11.2693107  38.5377533  60.2066628  11.3549307
  51.2713774  66.5378793  16.2798022  52.1404934  66.7119446  15.9184657
  50.7920526  67.3573210  16.1573752  45.4399955  73.6575894   7.9587456
  46.3427201  73.6899505   8.2753951  45.2137325  72.7276345   7.9733792
  47.1953557  72.4106881   4.6197535  46.2449188  72.4108743   4.5061907
  47.4986043  71.6639615   4.1033569  43.0857873  56.6165563  14.8780896
  43.9489335  56.2602368  15.0884221  42.5123284  56.2779458  15.5656300
  62.9306250  78.2467419   5.6843297  63.5684660  78.1274167   4.9806637
  62.8127093  79.1948263   5.7431249  59.7395956  78.1994847   5.6204822
  59.4014468  78.0835912   4.7325357  60.6085725  77.7986012   5.6005828
  55.5982772  80.0530324   1.6101713  55.0347637  79.9620261   0.8418001
  55.4835167  79.2330228   2.0904205  60.2215739  79.3529699  11.5791027
  60.2104380  78.9582497  10.7071531  60.3836379  78.6195772  12.1724799
  53.1447204  81.5481515   4.4485933  53.9368496  81.2072340   4.0332233
  53.3843854  81.6576490   5.3688087  61.1782331  83.7201292  -3.0783822
  60.5270311  84.3055372  -3.4649809  61.9726694  84.2507486  -3.0188785
  55.1037958  80.8090429  -2.6796688  55.8768834  80.2619416  -2.8183812
  55.4563357  81.6734678  -2.4682227  56.9423001  82.1366811  10.5270211
  56.6512867  83.0412442  10.4116878  57.5779985  82.1783339  11.2414281
  57.8679207  79.5143659   7.1171571  58.4642780  79.2899682   6.4028534
  57.9254179  78.7728405   7.7197019  57.4404236  76.9683095  -5.0478238
  57.6929756  76.4464616  -5.8094775  56.5028795  76.8049240  -4.9451554
  62.4847519  75.9718873   2.7596505  63.2710608  75.5538296   2.4086922
  62.7486223  76.8764965   2.9278154  62.6557596  81.4091723  -2.5414838
  62.0203429  81.4826350  -1.8293933  62.3255002  81.9985322  -3.2195759
  67.8855946  75.9094106   3.6629484  68.6181118  75.3393323   3.8967313
  67.1295301  75.5215707   4.1035989  57.1600525  78.8711201  -2.8453863
  57.0436783  78.1956104  -2.1772779  57.2702784  78.3843575  -3.6621710
  59.5032065  78.3321348   0.8592826  59.1390273  77.8051969   1.5705748
  60.3599181  77.9419817   0.6859312  65.4081366  69.6215680   8.1224092
  65.0764691  70.4911091   7.8985307  64.8126980  69.3051964   8.8018123
  59.1437552  73.3611248  -4.1445825  59.3111955  74.2291484  -3.7775354
  58.9534722  73.5238529  -5.0684536  61.9012886  81.8228226   7.5220005
  61.6013609  82.7253265   7.4135812  61.5563945  81.5560410   8.3741158
  55.3525367  78.2742023   3.5556709  54.4275864  78.1418237   3.7634401
  55.6009780  79.0536243   4.0526652  65.3010029  74.3410767   5.2017442
  64.3926907  74.2726175   4.9076203  65.2497625  74.8182712   6.0299268
  59.1226773  75.8168905  -3.1599159  59.0026399  76.2625956  -2.3213678
  58.4279362  76.1654223  -3.7185620  52.7134178  77.9175297   4.3900499
  52.8426559  78.1709776   5.3039910  52.0331629  78.5103005   4.0705154
  56.8833665  88.5872547   0.4890973  56.8057695  89.5380372   0.5679453
  56.2795309  88.2418419   1.1465899  59.3750895  75.7600412  13.1452340
  58.5984229  76.3194332  13.1355204  60.0141458  76.2457195  13.6667210
  67.1671676  72.5427205   6.9795316  66.5246056  72.8359738   6.3335111
  66.6626604  72.4280125   7.7848513  64.8211839  76.2890378  -2.3318824
  65.7329696  76.5217765  -2.5071127  64.3121487  76.8727422  -2.8943746
  57.6297268  78.5685866  12.7070307  58.3711952  79.1070910  12.4305130
  56.9234253  79.1952154  12.8641858  63.1052607  80.7115006  11.3042468
  63.5135963  80.2697417  10.5597100  62.3829869  80.1367634  11.5576661
  59.4583677  75.6487613   8.6776025  60.3044872  76.0727026   8.8210674
  59.3982315  74.9921237   9.3714588  63.4281422  81.2716197   5.0594757
  62.7990284  81.4361911   4.3570825  63.0407084  81.6857806   5.8305721
  67.3070654  82.2070635   2.4139121  66.6221692  82.5869536   1.8636154
  67.3914503  82.8165961   3.1471069  62.6083123  73.3091981  10.3357199
  62.3644054  74.0634042   9.7991474  62.8843053  73.6877329  11.1704446
  64.5621585  79.8530594   9.0134464  64.7738481  80.4962353   8.3368845
  64.5151334  79.0192910   8.5456394  62.1647814  72.4648414   5.9171036
  61.3032293  72.7629668   6.2087774  62.1910249  72.6818813   4.9852069
  58.9809384  81.0090605   2.3244842  59.4447729  81.2878308   1.5349465
  58.7166182  80.1074049   2.1417933  55.8733465  80.5562086   5.2624605
  56.4434822  80.9849355   4.6242090  56.4641577  80.2744671   5.9608791
  57.9178270  77.1313757  -0.8665593  58.6202313  77.5834801  -0.3991666
  57.5858898  76.4897576  -0.2385700  56.3658631  75.7225514  13.5085617
  55.7357292  76.4041795  13.7421013  56.2594719  75.6108595  12.5638755
  51.6603604  75.3897310   4.4351541  50.8702658  75.6454838   3.9591651
  52.1514851  76.2045648   4.5403581  65.6767413  82.7302549   7.1856822
  66.4984857  82.3282736   6.9039503  65.6729816  82.6270783   8.1372937
  53.6118349  75.7541889   1.3935018  52.8149512  75.8660583   1.9118513
  53.3843941  76.0928541   0.5275908  59.4424017  82.2786592   9.3417532
  59.5068449  82.7406999  10.1775704  58.7334941  81.6483957   9.4699842
  49.9441307  75.6427800   6.8666532  50.1949345  76.5274810   7.1324108
  50.4800855  75.4632402   6.0941623  73.7673406  79.0741297   3.5341793
  73.0137115  78.5048696   3.3785798  73.9020948  79.0403962   4.4812428
  59.1572034  83.9454700  -0.7903488  59.0217709  84.7906235  -0.3618640
  59.6981847  84.1473977  -1.5537554  55.6439374  70.0246280  15.8710868
  55.2506320  69.4712478  16.5458512  56.4605514  70.3356858  16.2617385
  52.6101432  81.4630138  -0.2175562  53.1225952  82.2573388  -0.0669998
  53.2624145  80.7656428  -0.2841961  54.4196316  84.5795894   1.8647191
  54.5962945  85.5013859   1.6768175  55.2153150  84.2654313   2.2941571
  58.5607335  71.4404159  13.4631124  59.3017048  72.0411312  13.3835587
  58.7925258  70.6981796  12.9049167  53.7048673  76.6260526  11.7409354
  53.5902188  75.7245783  12.0416453  52.8493191  76.8724223  11.3894170
  60.7840511  84.5678266  13.3396855  60.3404365  83.7814645  13.0217759
  61.4457724  84.7557417  12.6740745  55.5427632  86.0974068   7.8657533
  56.0935057  85.9691131   7.0934527  54.7039108  86.3968957   7.5152426
  62.8821749  84.8481066  11.3678256  62.8640224  85.6689947  10.8758525
  63.8041669  84.7235141  11.5928397  59.3394803  82.3625196  12.2101764
  59.8723140  81.6013484  11.9801072  58.8108884  82.0698847  12.9525919
  62.5064498  67.4685262   7.7395406  62.1628767  68.3586903   7.6634517
  62.8743461  67.2786919   6.8764991  50.5750349  79.7918792   0.5584008
  51.4125571  80.2015800   0.3417716  50.7528616  78.8518234   0.5284202
  62.4714781  77.4593873  -3.7532159  61.9561404  78.2298477  -3.5143772
  62.1992089  76.7859009  -3.1299098  60.0561892  72.3043574   1.3053079
  59.2003488  71.9150424   1.1258718  60.4688843  72.3835534   0.4452865
  61.5861038  69.8389917   5.7044639  61.0825834  69.8020052   4.8912444
  61.8791645  70.7482660   5.7641296  57.8303924  69.9228647   4.7110821
  58.6956921  69.7271455   4.3516710  57.8981433  69.6938998   5.6380178
  67.4449055  80.2126227  -1.8178985  66.6678498  79.8737387  -2.2623823
  68.1240536  80.2178851  -2.4924020  62.2601084  75.3320965  -1.9272378
  61.9551219  75.6467114  -1.0762235  63.2131526  75.4102385  -1.8845045
  60.7047516  81.4911188  -0.2779424  60.1768877  80.7563948  -0.5906186
  60.2035018  82.2685864  -0.5239455  65.6840362  79.6860209   4.8387623
  65.0264036  80.3759470   4.9267751  66.4880761  80.0756641   5.1821609
  55.4366243  72.1530854   2.0827188  56.0109995  71.9306036   1.3500381
  56.0237226  72.2219549   2.8355789  64.4945820  78.0404581   2.8891564
  65.0077702  78.6734573   3.3913274  65.1447044  77.4405777   2.5234924
  55.7635830  74.1835315  -3.8976927  54.9273143  74.5210002  -3.5767652
  55.6240600  74.0484295  -4.8349790  57.7388911  69.0272103   0.8102257
  57.0853323  68.7121121   0.1858872  57.6969385  68.4047844   1.5362080
  58.8500116  79.3091398  -7.2744451  57.9427178  79.0780652  -7.0753302
  59.3471148  78.5129018  -7.0870469  61.7568195  88.0188906  -4.3547765
  61.0829893  88.3220602  -3.7462807  62.1434017  88.8217986  -4.7042308
  60.9726651  75.5154037   5.1349905  60.0549213  75.7368984   4.9771593
  61.3886795  75.5900347   4.2761612  61.7561699  76.9145453   0.2652585
  62.5033518  77.4266850  -0.0440293  62.0253289  76.5929505   1.1256979
  60.0288349  79.4103993  -2.7520461  59.1199569  79.1263026  -2.6547991
  60.0583433  79.8303072  -3.6117154  65.2607617  83.0210583   1.0170707
  64.8069944  82.1801493   1.0735897  64.6301583  83.6571981   1.3545487
  64.2040536  73.9502569   2.2471374  63.4663293  73.4379955   2.5781617
  64.4567310  73.5102950   1.4354651  63.7040556  84.8587079   1.9520525
  63.9963530  85.4192137   1.2332891  64.2139177  85.1515640   2.7073684
  64.3052164  66.7278821   2.8413144  64.6111040  65.8676184   2.5539059
  65.0304768  67.3196441   2.6412138  50.5976520  77.1309507   1.2294742
  50.4000919  76.5378868   0.5045808  50.0423184  76.8261718   1.9470680
  58.5773243  77.0232614   3.3489335  58.6321853  76.0706450   3.2731811
  57.7664445  77.1792053   3.8330633  59.7264437  80.9512737  -5.4132382
  59.2883867  80.2348596  -5.8726745  60.4674878  81.1788852  -5.9747291
  56.5165603  75.6409674   1.1079714  55.7033469  75.9403844   1.5144906
  57.0124597  75.2465362   1.8254196  58.6674181  85.6367431   3.0413978
  58.6250360  85.8628277   2.1122510  59.5836880  85.4030805   3.1899779
  62.1139815  76.1051498   9.9394607  62.4689203  76.3322971  10.7989073
  62.7611946  76.4369875   9.3171863  67.8437552  79.2269934   0.6443936
  67.7055450  79.4171530  -0.2834874  67.4873771  79.9889317   1.1011988
  56.0079678  73.2128029   6.7240949  56.6479057  73.0716788   6.0263912
  55.1757209  72.9262543   6.3479550  67.8706931  81.2946461   5.6555208
  68.3043438  81.2021750   6.5038262  68.5838512  81.2703961   5.0175224
  56.7839982  82.5130460   2.8375941  57.5780580  82.0180780   2.6358516
  56.0731674  81.9848323   2.4743647  61.6034826  84.8948555   7.1888309
  61.6571849  85.4639491   7.9566024  60.7349608  85.0650440   6.8242346
  53.0922745  76.6573541  -1.0864306  52.1620333  76.5957997  -0.8694344
  53.1880217  76.1349494  -1.8827665  53.0108294  73.1828354   1.5013935
  53.2715112  74.0973687   1.3923096  53.8325467  72.7152797   1.6510548
  54.4833220  74.5966111   8.6712760  55.1556273  74.3883473   8.0225409
  53.6563006  74.3988197   8.2317992  68.7322481  81.3370162   8.1888093
  68.9258371  82.2415972   8.4347368  68.6323099  80.8777581   9.0226678
  60.3858792  71.2228052  10.6878421  59.7386707  71.9218002  10.5942897
  61.1559807  71.6564196  11.0554669  63.7937590  81.4876904  13.7628974
  63.6423096  81.2587456  12.8459058  63.7842269  82.4447506  13.7760319
  60.5622926  79.0608817   8.7475240  61.4914986  79.2119977   8.5744208
  60.1413956  79.1492838   7.8923887  59.3611258  83.0859482   6.5173778
  59.2222344  82.7178266   7.3899716  58.5725854  83.6007121   6.3457736
  59.9559410  88.1868578  -2.1400685  60.1311166  87.7156621  -1.3255063
  59.2692198  88.8134344  -1.9119425  60.9116473  82.4641084   3.9062616
  60.5766306  82.4241854   4.8020266  60.4120419  81.7985800   3.4333026
  54.8860717  77.8708714   9.4315197  54.7480515  77.1388953  10.0326736
  55.7965640  77.7817614   9.1499385  63.8475665  79.8097119  -5.8200325
  63.2304835  79.0843947  -5.9167272  63.3792153  80.5706479  -6.1633250
  57.5143018  77.5828674   8.9198877  58.2242636  76.9421866   8.8785495
  57.4712326  77.8341568   9.8425057  65.5029796  84.5196027  11.8405456
  65.4442343  83.8355247  11.1736039  65.9049315  85.2615017  11.3886082
  56.2271952  74.5693891  10.7394516  55.6909309  74.1184630  11.3916112
  55.6388660  74.7039800   9.9964980  54.5220495  91.3357941   4.6339175
  54.7617093  91.9676465   5.3118193  53.6789692  90.9845981   4.9204534
  55.6374211  74.0282543  -6.6979020  54.7603677  73.9071344  -7.0616774
  56.1131964  73.2368621  -6.9500132  65.5047204  82.4835611  10.0719436
  64.6173982  82.1461533  10.1945834  66.0745755  81.7518642  10.3088201
  47.1576351  78.8159703   3.3962487  47.8447391  78.5021433   2.8083502
  47.0024479  79.7201067   3.1229738  51.9611073  73.7049899   7.8247511
  51.8769262  73.0975569   7.0897921  51.1393779  74.1958917   7.8257007
  59.0348357  87.1437063   7.0380679  58.9618529  87.9492035   7.5499983
  58.5925750  87.3429029   6.2128700  58.8238137  86.3808833   0.5483500
  58.0405659  86.9230513   0.6421725  59.5230882  86.8982813   0.9477741
  62.1334787  72.1903463   3.1917706  62.6303486  71.4373425   2.8718776
  61.3621768  72.2267779   2.6260915  69.9864544  77.8943828   4.8335997
  69.9754420  78.7768544   4.4629930  69.1181924  77.5415379   4.6390534
  61.4947041  87.0423897   9.1938837  62.2075013  87.6771362   9.1214739
  61.0037069  87.1387763   8.3778839  63.2164567  80.9475150   0.7656129
  62.2820846  81.0676612   0.5960833  63.3941236  80.0447617   0.5016139
  58.7169756  74.3320846   2.9189390  58.3467543  73.7791886   3.6070296
  59.2128848  73.7278979   2.3664390  66.6037119  76.7892469   1.3006163
  67.0697571  77.6220461   1.2266466  67.0544619  76.3237451   2.0051422
  56.5458954  84.7918341  10.0144408  57.2468414  85.4254824  10.1673802
  56.0754069  85.1333072   9.2540047  64.6713350  83.1336291  -1.7007685
  64.9473194  83.0192885  -0.7913811  63.8017849  82.7353775  -1.7395512
  64.5753782  69.1573056   5.3397065  63.6616861  69.3877283   5.5079271
  65.0046883  69.2411500   6.1911097  64.3460240  77.3462948   7.8396959
  63.6931690  77.5938856   7.1849411  64.7240620  76.5327086   7.5059436
  61.3067414  87.3822641   1.9425129  61.4889808  86.5644297   2.4052881
  62.1300400  87.5990334   1.5050019  61.6409579  86.3090826  -0.7959823
  62.1697346  85.7983281  -1.4089661  61.9037799  85.9933357   0.0685710
  60.3947813  78.0882759  14.3262996  59.7188450  77.9876889  14.9965371
  61.2175447  77.9321973  14.7898993  52.1426672  84.3254696   6.9475511
  52.7280109  83.5798384   7.0803415  51.9451511  84.6358652   7.8312175
  54.9965327  87.3605943   1.9637953  54.3275703  87.8452071   1.4801993
  54.8578197  87.6075164   2.8781332  46.7344327  76.8960296   5.6679954
  46.7728426  76.3623887   6.4617072  46.2284620  76.3695501   5.0490931
  59.1370596  89.3949687   8.5620612  59.6888904  89.5581308   9.3269697
  59.4776789  89.9854125   7.8900636  54.1135089  71.7424836   9.1642496
  54.1776416  72.6039667   8.7519894  54.0502209  71.1298838   8.4314855
  53.5887362  73.8147969  12.8115531  54.2159401  73.4325046  13.4253055
  52.7315281  73.5962171  13.1771223  63.9881470  84.2210944  14.4169266
  64.5321374  84.8340902  13.9224221  63.4068315  84.7790523  14.9336279
  50.3652904  75.6224398  -1.2566115  50.6606346  74.7135077  -1.3099061
  49.4640940  75.6012138  -1.5785112  62.2738983  87.3431662   5.5484294
  62.1490123  86.5421402   5.0395239  62.9318074  87.8377856   5.0598264
  53.8947151  73.6980395   4.7261434  53.1733737  74.3116362   4.5868907
  54.6840407  74.2338160   4.6478080  64.3373892  85.1440682   7.1763844
  63.3904227  85.0246033   7.1042171  64.6856665  84.2563180   7.2590105
  56.6973465  71.0334821  11.0002086  57.2207867  71.2797118  11.7628395
  56.4785798  71.8654856  10.5805223  52.0940746  73.3038496  -1.1326789
  51.7653452  72.4235875  -1.3151684  52.4480117  73.2486164  -0.2450400
  61.3420325  84.9393399   3.3768196  61.1945287  84.0110106   3.5575766
  62.1673818  84.9613489   2.8925271  55.2082569  73.5911466  -0.7651312
  55.5478642  74.1197387  -1.4872703  55.6554690  73.9291872   0.0107255
  64.9454447  85.7621957   4.4633069  65.8700994  85.5564819   4.3257520
  64.7769750  85.5138358   5.3722410  57.9026010  71.9748516   8.6851756
  57.5622830  71.1756329   9.0872436  57.1965016  72.2750227   8.1128589
  58.5542482  69.0597829   7.1379079  59.3768551  68.5858307   7.0157970
  58.7980545  69.8388313   7.6377766  57.1950716  72.0886087  -2.5658019
  57.9159079  72.4667340  -3.0694302  56.5716020  72.8074964  -2.4623041
  61.3381839  72.7931236  -1.6299687  61.5545454  73.6755874  -1.9310858
  60.8575906  72.4017450  -2.3594045  56.0781061  75.7516949   4.9471058
  55.9325641  76.0657252   5.8395339  55.6006264  76.3701850   4.3941957
  57.9377443  72.7419497   4.9951947  57.9239012  71.8460591   4.6584245
  58.6549872  72.7490161   5.6290234  59.7903574  73.1756838   7.0405075
  59.5321352  74.0973908   7.0389405  59.2588615  72.7787272   7.7305539
  64.7349763  86.2807625  -0.1804840  64.9086640  85.7154047  -0.9330987
  65.2278654  87.0808520  -0.3625350  50.5526723  78.2922294   7.8858719
  50.0080191  79.0682102   8.0178993  51.4306073  78.6393098   7.7277841
  57.3414339  71.6233878   0.2639518  57.4630251  70.6950524   0.4630405
  57.0516382  71.6372564  -0.6482167  60.2105530  69.3088788   3.4006237
  60.2327227  69.3728121   2.4458217  60.6273589  68.4693297   3.5946744
  70.5889154  79.0444048   1.4385460  71.0320300  78.2951373   1.0404583
  69.7115664  79.0354184   1.0559192  65.7224935  85.5974389  -3.0807941
  66.4175840  86.2181082  -2.8620627  66.0648086  84.7469740  -2.8055564
  51.3392745  77.4192190  10.7788876  50.5974481  77.5674825  11.3653506
  51.0185489  77.6800456   9.9155625  67.6216359  83.0474095  -1.5520611
  68.1467683  83.3861367  -2.2771291  67.5338711  82.1121110  -1.7357476
  59.2836407  86.9608168  10.5769266  59.5923534  86.7157315  11.4491966
  60.0811889  87.1654807  10.0888136  59.3057019  89.1146078   2.8074643
  58.8662010  88.6222457   3.5007499  60.0565136  88.5719046   2.5666718
  51.7849358  85.3057619   2.8099271  52.6107378  85.0061391   2.4297914
  51.4343410  84.5365241   3.2589059  56.7530891  84.6584087   4.8796944
  56.1310901  83.9954792   4.5799172  57.4235758  84.6845219   4.1970592
  49.9857963  83.2243945   3.7688204  49.1489872  82.7966120   3.5872205
  49.9581609  83.4176389   4.7058995  56.8255419  73.1365875  14.4729450
  56.8743574  74.0127998  14.0907220  57.3677933  72.5943268  13.9001093
  67.3110265  83.6806998  13.7530587  66.5205808  83.6631137  13.2135087
  67.0743619  84.2195292  14.5079624  67.4308140  80.5299465  11.0663316
  67.4806145  80.3649472  12.0078839  67.3222063  79.6626724  10.6761197
  56.3144398  83.2088010  -1.6444595  56.4632519  83.8923475  -2.2977923
  57.1210842  83.1893100  -1.1295140  64.7211902  76.5130393  12.3822623
  65.6221765  76.3736858  12.0906620  64.7959877  76.6784848  13.3220800
  59.0554707  73.8897247  11.2275809  58.1858017  74.1830813  10.9558397
  59.2914188  74.4737692  11.9483073  68.9326337  82.9496406  11.3105337
  68.6411145  83.3126387  12.1468798  68.3198468  82.2363414  11.1318669
  70.1322019  80.5149286   3.8307908  70.9668910  80.9539090   3.9945468
  70.2681148  80.0387939   3.0116153  67.1813525  78.0729021   9.7785395
  67.6567646  78.2656667   8.9704247  66.2579090  78.1288207   9.5328779
  54.0697031  79.2353188  -0.6383526  53.8243073  78.3315518  -0.4403316
  54.2392946  79.2370338  -1.5804048  61.7593741  70.1076864   8.7441229
  62.2775685  70.8437891   8.4187718  61.4048874  70.4140858   9.5787988
  53.3392679  74.9681546  -3.1397365  52.6461924  75.0425901  -3.7957329
  53.0944431  74.2041889  -2.6175848  62.0106335  66.5277147   4.2642126
  62.2908089  65.8600336   4.8902552  62.7956942  66.7206242   3.7516790
  59.8139804  85.7036141  -4.1732848  59.2413771  86.3226328  -4.6262376
  60.3872598  86.2535502  -3.6392926  65.8815194  74.9494781   8.0113701
  66.8332617  75.0492879   8.0325925  65.7118644  74.1573049   8.5211785
  63.9029573  72.0350364   8.1973102  63.3079505  72.3155377   7.5019591
  63.6179270  72.5244265   8.9689843  63.0337064  85.9873291  -3.0424266
  63.9667737  85.9218853  -2.8391390  62.9460277  86.8229558  -3.5009733
  65.6625080  85.3039161  -6.0820318  65.5838712  84.9699025  -5.1884560
  66.4834747  85.7960929  -6.0828846  68.3603272  78.1700901   7.1256001
  68.3279592  77.2316901   7.3115684  68.9703895  78.2484937   6.3921826
  60.1986602  77.0396954  -6.8316795  61.1445707  76.9103162  -6.7628377
  59.8200847  76.3011615  -6.3547367  68.5097760  74.9611944   7.1714284
  67.9936809  74.1770401   6.9844213  69.3937709  74.6330661   7.3360803
  66.1708487  68.7052960   3.1310096  65.9733308  68.3968048   4.0153428
  66.7808193  69.4314598   3.2608026  74.1779821  79.2316907   6.2662037
  74.9083210  78.9702196   6.8269741  73.5686767  78.4945629   6.3064105
  72.2595119  77.3724770   6.8636489  71.5328282  77.2380735   6.2552980
  71.8442405  77.6801599   7.6693207  60.0825295  81.0914700  14.6283862
  61.0028304  81.2693299  14.8223908  60.0474878  80.1470745  14.4763561
  58.3829520  74.9646930  -6.8961910  57.4760975  74.6680043  -6.8199196
  58.6605501  74.6676748  -7.7627624  49.3007460  76.2853293   3.5537136
  48.9810244  75.4318602   3.2611510  48.7540888  76.5001871   4.3095104
  53.0787367  79.0015734   7.2706643  53.2973377  79.9332842   7.2894677
  53.4913141  78.6423709   8.0561447  59.9991585  69.5083820  -0.7417669
  59.1892314  69.1630905  -0.3662423  60.6876002  69.1991363  -0.1530057
  61.9282134  68.5861866   0.8806628  62.4813172  69.0057320   1.5396651
  62.1652220  67.6597615   0.9229584  57.9515233  74.5748940  16.6609392
  57.8511960  75.5243297  16.5921483  57.7336775  74.2467179  15.7885462
  57.1528304  71.8233865  -6.7549931  58.0147468  72.1488763  -6.4954114
  57.3378648  71.0365361  -7.2676865  49.1695720  79.9056205   5.5230258
  48.4759191  79.4910158   5.0100212  49.9168711  79.9476741   4.9263677
  65.3060941  70.6962392   0.3885292  64.7259610  71.3547196   0.0063345
  65.0396873  69.8739736  -0.0227290  63.7564507  70.0967449   2.5906612
  64.2564285  70.2083984   1.7820931  64.4000115  69.7928502   3.2307421
  57.8146503  78.0046079  15.4774453  57.3313585  78.8046439  15.6838342
  57.9007442  78.0154024  14.5241897  51.0832462  79.8374459   3.3996273
  51.0603151  79.9362146   2.4478156  51.3933099  80.6839609   3.7213439
  53.7419840  81.8950614   7.5142887  54.6963094  81.8634556   7.4472819
  53.5432364  81.4341237   8.3293113  54.3319222  80.4651730  10.0813685
  55.1512111  80.9595808  10.1048522  54.6056030  79.5483698  10.0531252
  64.0885819  72.8562482  -0.5558360  63.2011674  73.1412133  -0.7738165
  64.5039808  72.6956245  -1.4031083  67.4400355  72.8809003   3.1595980
  68.2160745  73.3705455   3.4320596  66.7148489  73.3067057   3.6167849
  69.8772913  73.5936622   4.2169920  70.4717404  73.3532358   3.5063228
  69.9499497  72.8743753   4.8443457  52.0970069  87.4370233   4.5313085
  51.9624537  86.6770634   3.9651083  51.6802131  88.1611133   4.0641874
  63.2329032  82.6207157  -6.4610340  63.9364882  82.8257159  -5.8452684
  62.5091681  83.1883919  -6.1961256  64.0626842  78.3717018  -0.3408069
  64.0062044  78.8285569  -1.1800437  64.6155185  77.6107703  -0.5185227
  67.8731648  74.1606750   0.4842050  67.6168583  73.7603385   1.3150258
  67.2484516  74.8750544   0.3592189  72.1843986  76.9002823   2.9913341
  71.6243544  76.9696012   3.7644903  71.5787490  76.7243808   2.2712838
  55.2539195  88.3339550   4.7431528  55.1371579  89.2784983   4.6410218
  54.4331641  88.0313112   5.1317327  65.1415730  83.0589686  -4.4111880
  65.9761333  82.6270884  -4.5934405  64.9800072  82.8871700  -3.4834985
  64.7961622  79.5621799  -3.0455540  64.7410426  79.3966071  -3.9867096
  64.1707677  80.2697832  -2.8893351  49.5854137  74.7989864  10.7805882
  50.2313000  74.2888818  11.2693107  49.3771288  75.5358545  11.3549307
  62.1107529  81.8670711  16.2798022  62.9798689  82.0411363  15.9184657
  61.6314280  82.6865128  16.1573752  58.1057747  69.0629908  -3.4670222
  58.0936417  70.0071748  -3.3101951  58.9981169  68.8800054  -3.7610761
  56.2793709  88.9867812   7.9587456  57.1820956  89.0191422   8.2753951
  56.0531079  88.0568263   7.9733792  58.0347311  87.7398799   4.6197535
  57.0842942  87.7400660   4.5061907  58.3379797  86.9931533   4.1033569
  61.9209867  65.6572685   0.7875715  61.1542262  65.1031172   0.9332397
  62.3320572  65.7294554   1.6489867  53.9251628  71.9457481  14.8780896
  54.7883089  71.5894285  15.0884221  53.3517038  71.6071375  15.5656300
  73.7700005  93.5759337   5.6843297  74.4078415  93.4566084   4.9806637
  73.6520848  94.5240181   5.7431249  70.5789711  93.5286765   5.6204822
  70.2408222  93.4127830   4.7325357  71.4479479  93.1277930   5.6005828
  66.4376527  95.3822241   1.6101713  65.8741392  95.2912178   0.8418001
  66.3228922  94.5622146   2.0904205  71.0609494  94.6821617  11.5791027
  71.0498135  94.2874415  10.7071531  71.2230133  93.9487689  12.1724799
  63.9840959  96.8773433   4.4485933  64.7762250  96.5364258   4.0332233
  64.2237609  96.9868408   5.3688087  67.7816755  97.4658729  10.5270211
  67.4906621  98.3704359  10.4116878  68.4173739  97.5075256  11.2414281
  68.7072962  94.8435577   7.1171571  69.3036534  94.6191600   6.4028534
  68.7647933  94.1020323   7.7197019  73.3241273  91.3010791   2.7596505
  74.1104362  90.8830214   2.4086922  73.5879977  92.2056883   2.9278154
  78.7249700  91.2386024   3.6629484  79.4574872  90.6685241   3.8967313
  77.9689056  90.8507624   4.1035989  70.3425820  93.6613266   0.8592826
  69.9784027  93.1343886   1.5705748  71.1992936  93.2711735   0.6859312
  76.2475121  84.9507598   8.1224092  75.9158445  85.8203009   7.8985307
  75.6520734  84.6343882   8.8018123  69.9831307  88.6903165  -4.1445825
  70.1505709  89.5583402  -3.7775354  69.7928476  88.8530447  -5.0684536
  72.7406640  97.1520144   7.5220005  72.4407363  98.0545183   7.4135812
  72.3957700  96.8852327   8.3741158  66.1919122  93.6033941   3.5556709
  65.2669618  93.4710155   3.7634401  66.4403535  94.3828160   4.0526652
  76.1403784  89.6702684   5.2017442  75.2320661  89.6018093   4.9076203
  76.0891380  90.1474629   6.0299268  69.9620528  91.1460823  -3.1599159
  69.8420153  91.5917873  -2.3213678  69.2673116  91.4946140  -3.7185620
  63.5527933  93.2467215   4.3900499  63.6820314  93.5001693   5.3039910
  62.8725384  93.8394923   4.0705154  70.2144650  91.0892330  13.1452340
  69.4377984  91.6486250  13.1355204  70.8535213  91.5749113  13.6667210
  78.0065430  87.8719123   6.9795316  77.3639811  88.1651656   6.3335111
  77.5020359  87.7572043   7.7848513  68.4691022  93.8977783  12.7070307
  69.2105706  94.4362827  12.4305130  67.7628007  94.5244072  12.8641858
  73.9446362  96.0406924  11.3042468  74.3529718  95.5989334  10.5597100
  73.2223623  95.4659551  11.5576661  70.2977432  90.9779530   8.6776025
  71.1438627  91.4018944   8.8210674  70.2376069  90.3213155   9.3714588
  74.2675176  96.6008114   5.0594757  73.6384039  96.7653828   4.3570825
  73.8800838  97.0149724   5.8305721  73.4476877  88.6383899  10.3357199
  73.2037809  89.3925959   9.7991474  73.7236808  89.0169246  11.1704446
  75.4015340  95.1822511   9.0134464  75.6132235  95.8254271   8.3368845
  75.3545088  94.3484828   8.5456394  73.0041569  87.7940332   5.9171036
  72.1426048  88.0921585   6.2087774  73.0304003  88.0110731   4.9852069
  69.8203138  96.3382522   2.3244842  70.2841484  96.6170225   1.5349465
  69.5559936  95.4365967   2.1417933  66.7127219  95.8854004   5.2624605
  67.2828576  96.3141272   4.6242090  67.3035331  95.6036589   5.9608791
  68.7572024  92.4605675  -0.8665593  69.4596068  92.9126718  -0.3991666
  68.4252653  91.8189494  -0.2385700  67.2052386  91.0517431  13.5085617
  66.5751046  91.7333712  13.7421013  67.0988474  90.9400513  12.5638755
  62.4997358  90.7189227   4.4351541  61.7096412  90.9746756   3.9591651
  62.9908606  91.5337565   4.5403581  76.5161168  98.0594467   7.1856822
  77.3378611  97.6574654   6.9039503  76.5123571  97.9562701   8.1372937
  64.4512104  91.0833807   1.3935018  63.6543267  91.1952501   1.9118513
  64.2237696  91.4220459   0.5275908  70.2817771  97.6078510   9.3417532
  70.3462204  98.0698917  10.1775704  69.5728695  96.9775875   9.4699842
  60.7835061  90.9719718   6.8666532  61.0343100  91.8566728   7.1324108
  61.3194610  90.7924319   6.0941623  66.4833128  85.3538197  15.8710868
  66.0900074  84.8004396  16.5458512  67.2999269  85.6648776  16.2617385
  63.4495186  96.7922055  -0.2175562  63.9619707  97.5865306  -0.0669998
  64.1017899  96.0948346  -0.2841961  65.2590071  99.9087812   1.8647191
  65.4356699 100.8305776   1.6768175  66.0546904  99.5946231   2.2941571
  69.4001089  86.7696076  13.4631124  70.1410803  87.3703229  13.3835587
  69.6319012  86.0273714  12.9049167  64.5442427  91.9552444  11.7409354
  64.4295943  91.0537701  12.0416453  63.6886945  92.2016140  11.3894170
  71.6234265  99.8970184  13.3396855  71.1798119  99.1106562  13.0217759
  72.2851479 100.0849334  12.6740745  66.3821386 101.4265986   7.8657533
  66.9328812 101.2983049   7.0934527  65.5432862 101.7260875   7.5152426
  73.7215503 100.1772984  11.3678256  73.7033979 100.9981865  10.8758525
  74.6435423 100.0527059  11.5928397  70.1788557  97.6917113  12.2101764
  70.7116894  96.9305402  11.9801072  69.6502639  97.3990765  12.9525919
  73.3458252  82.7977179   7.7395406  73.0022522  83.6878821   7.6634517
  73.7137215  82.6078837   6.8764991  61.4144103  95.1210710   0.5584008
  62.2519325  95.5307718   0.3417716  61.5922371  94.1810152   0.5284202
  70.8955646  87.6335491   1.3053079  70.0397243  87.2442342   1.1258718
  71.3082598  87.7127452   0.4452865  72.4254793  85.1681834   5.7044639
  71.9219588  85.1311970   4.8912444  72.7185400  86.0774577   5.7641296
  68.6697679  85.2520564   4.7110821  69.5350675  85.0563373   4.3516710
  68.7375188  85.0230916   5.6380178  73.0994838  90.6612883  -1.9272378
  72.7944974  90.9759032  -1.0762235  74.0525280  90.7394302  -1.8845045
  76.5234116  95.0152126   4.8387623  75.8657791  95.7051388   4.9267751
  77.3274515  95.4048558   5.1821609  66.2759998  87.4822772   2.0827188
  66.8503750  87.2597954   1.3500381  66.8630980  87.5511467   2.8355789
  75.3339575  93.3696499   2.8891564  75.8471457  94.0026491   3.3913274
  75.9840799  92.7697695   2.5234924  66.6029585  89.5127233  -3.8976927
  65.7666897  89.8501920  -3.5767652  66.4634355  89.3776213  -4.8349790
  68.5782665  84.3564021   0.8102257  67.9247078  84.0413038   0.1858872
  68.5363140  83.7339761   1.5362080  71.8120406  90.8445955   5.1349905
  70.8942967  91.0660902   4.9771593  72.2280549  90.9192265   4.2761612
  72.5955454  92.2437370   0.2652585  73.3427273  92.7558767  -0.0440293
  72.8647043  91.9221423   1.1256979  75.0434291  89.2794486   2.2471374
  74.3057048  88.7671873   2.5781617  75.2961064  88.8394868   1.4354651
  75.1445918  82.0570738   2.8413144  75.4504795  81.1968102   2.5539059
  75.8698523  82.6488359   2.6412138  61.4370274  92.4601425   1.2294742
  61.2394674  91.8670786   0.5045808  60.8816938  92.1553635   1.9470680
  69.4166998  92.3524532   3.3489335  69.4715608  91.3998368   3.2731811
  68.6058200  92.5083971   3.8330633  67.3559358  90.9701591   1.1079714
  66.5427223  91.2695762   1.5144906  67.8518352  90.5757280   1.8254196
  69.5067936 100.9659348   3.0413978  69.4644114 101.1920195   2.1122510
  70.4230634 100.7322723   3.1899779  72.9533569  91.4343416   9.9394607
  73.3082957  91.6614889  10.7989073  73.6005701  91.7661793   9.3171863
  66.8473432  88.5419947   6.7240949  67.4872812  88.4008706   6.0263912
  66.0150963  88.2554460   6.3479550  78.7100686  96.6238379   5.6555208
  79.1437193  96.5313668   6.5038262  79.4232267  96.5995879   5.0175224
  67.6233736  97.8422377   2.8375941  68.4174335  97.3472697   2.6358516
  66.9125429  97.3140240   2.4743647  72.4428581 100.2240473   7.1888309
  72.4965603 100.7931409   7.9566024  71.5743362 100.3942358   6.8242346
  63.9316500  91.9865459  -1.0864306  63.0014088  91.9249914  -0.8694344
  64.0273972  91.4641412  -1.8827665  63.8502049  88.5120272   1.5013935
  64.1108866  89.4265605   1.3923096  64.6719221  88.0444714   1.6510548
  65.3226974  89.9258029   8.6712760  65.9950028  89.7175391   8.0225409
  64.4956761  89.7280115   8.2317992  79.5716236  96.6662079   8.1888093
  79.7652126  97.5707890   8.4347368  79.4716854  96.2069498   9.0226678
  71.2252546  86.5519970  10.6878421  70.5780461  87.2509920  10.5942897
  71.9953562  86.9856114  11.0554669  74.6331344  96.8168822  13.7628974
  74.4816851  96.5879374  12.8459058  74.6236024  97.7739423  13.7760319
  71.4016681  94.3900735   8.7475240  72.3308741  94.5411894   8.5744208
  70.9807711  94.4784756   7.8923887  70.2005012  98.4151399   6.5173778
  70.0616098  98.0470184   7.3899716  69.4119609  98.9299039   6.3457736
  71.7510228  97.7933002   3.9062616  71.4160060  97.7533772   4.8020266
  71.2514173  97.1277718   3.4333026  65.7254472  93.2000632   9.4315197
  65.5874269  92.4680871  10.0326736  66.6359395  93.1109532   9.1499385
  68.3536772  92.9120591   8.9198877  69.0636391  92.2713783   8.8785495
  68.3106080  93.1633486   9.8425057  76.3423551  99.8487945  11.8405456
  76.2836097  99.1647165  11.1736039  76.7443069 100.5906935  11.3886082
  67.0665706  89.8985809  10.7394516  66.5303063  89.4476548  11.3916112
  66.4782415  90.0331718   9.9964980  65.3614250 106.6649858   4.6339175
  65.6010848 107.2968383   5.3118193  64.5183446 106.3137898   4.9204534
  76.3440958  97.8127529  10.0719436  75.4567737  97.4753450  10.1945834
  76.9139509  97.0810560  10.3088201  57.9970105  94.1451620   3.3962487
  58.6841145  93.8313350   2.8083502  57.8418234  95.0492985   3.1229738
  62.8004827  89.0341817   7.8247511  62.7163016  88.4267486   7.0897921
  61.9787534  89.5250835   7.8257007  69.8742112 102.4728981   7.0380679
  69.8012283 103.2783952   7.5499983  69.4319505 102.6720947   6.2128700
  72.9728541  87.5195380   3.1917706  73.4697241  86.7665343   2.8718776
  72.2015523  87.5559697   2.6260915  80.8258299  93.2235746   4.8335997
  80.8148175  94.1060461   4.4629930  79.9575678  92.8707297   4.6390534
  72.3340795 102.3715815   9.1938837  73.0468767 103.0063280   9.1214739
  71.8430824 102.4679681   8.3778839  74.0558322  96.2767068   0.7656129
  73.1214601  96.3968530   0.5960833  74.2334990  95.3739534   0.5016139
  69.5563510  89.6612763   2.9189390  69.1861298  89.1083804   3.6070296
  70.0522602  89.0570897   2.3664390  77.4430873  92.1184387   1.3006163
  77.9091325  92.9512378   1.2266466  77.8938374  91.6529368   2.0051422
  67.3852709 100.1210258  10.0144408  68.0862168 100.7546741  10.1673802
  66.9147824 100.4624990   9.2540047  75.4147536  84.4864974   5.3397065
  74.5010616  84.7169201   5.5079271  75.8440638  84.5703418   6.1911097
  75.1853995  92.6754866   7.8396959  74.5325445  92.9230773   7.1849411
  75.5634374  91.8619004   7.5059436  71.2341568  93.4174677  14.3262996
  70.5582205  93.3168806  14.9965371  72.0569201  93.2613891  14.7898993
  62.9820427  99.6546613   6.9475511  63.5673863  98.9090301   7.0803415
  62.7845265  99.9650570   7.8312175  65.8359082 102.6897861   1.9637953
  65.1669457 103.1743988   1.4801993  65.6971952 102.9367081   2.8781332
  57.5738081  92.2252214   5.6679954  57.6122181  91.6915804   6.4617072
  57.0678374  91.6987419   5.0490931  69.9764350 104.7241604   8.5620612
  70.5282658 104.8873226   9.3269697  70.3170544 105.3146042   7.8900636
  64.9528844  87.0716754   9.1642496  65.0170170  87.9331585   8.7519894
  64.8895964  86.4590756   8.4314855  64.4281116  89.1439887  12.8115531
  65.0553155  88.7616964  13.4253055  63.5709035  88.9254089  13.1771223
  74.8275225  99.5502862  14.4169266  75.3715129 100.1632820  13.9224221
  74.2462070 100.1082440  14.9336279  61.2046659  90.9516316  -1.2566115
  61.5000100  90.0426994  -1.3099061  60.3034695  90.9304055  -1.5785112
  73.1132738 102.6723580   5.5484294  72.9883877 101.8713320   5.0395239
  73.7711829 103.1669773   5.0598264  64.7340906  89.0272312   4.7261434
  64.0127492  89.6408280   4.5868907  65.5234162  89.5630077   4.6478080
  75.1767646 100.4732600   7.1763844  74.2297982 100.3537951   7.1042171
  75.5250419  99.5855098   7.2590105  67.5367219  86.3626739  11.0002086
  68.0601621  86.6089035  11.7628395  67.3179553  87.1946774  10.5805223
  62.9334501  88.6330413  -1.1326789  62.6047207  87.7527792  -1.3151684
  63.2873871  88.5778082  -0.2450400  72.1814079 100.2685316   3.3768196
  72.0339042  99.3402024   3.5575766  73.0067573 100.2905407   2.8925271
  66.0476324  88.9203383  -0.7651312  66.3872396  89.4489305  -1.4872703
  66.4948444  89.2583789   0.0107255  75.7848201 101.0913875   4.4633069
  76.7094749 100.8856736   4.3257520  75.6163505 100.8430276   5.3722410
  68.7419765  87.3040434   8.6851756  68.4016585  86.5048247   9.0872436
  68.0358771  87.6042145   8.1128589  69.3936236  84.3889746   7.1379079
  70.2162306  83.9150225   7.0157970  69.6374300  85.1680230   7.6377766
  68.0344471  87.4178005  -2.5658019  68.7552833  87.7959258  -3.0694302
  67.4109775  88.1366882  -2.4623041  72.1775594  88.1223154  -1.6299687
  72.3939208  89.0047792  -1.9310858  71.6969661  87.7309367  -2.3594045
  66.9174815  91.0808867   4.9471058  66.7719396  91.3949170   5.8395339
  66.4400019  91.6993767   4.3941957  68.7771198  88.0711415   4.9951947
  68.7632767  87.1752508   4.6584245  69.4943626  88.0782079   5.6290234
  70.6297329  88.5048755   7.0405075  70.3715107  89.4265826   7.0389405
  70.0982369  88.1079190   7.7305539  61.3920477  93.6214211   7.8858719
  60.8473945  94.3974019   8.0178993  62.2699827  93.9685016   7.7277841
  68.1808094  86.9525795   0.2639518  68.3024005  86.0242442   0.4630405
  67.8910136  86.9664481  -0.6482167  71.0499284  84.6380706   3.4006237
  71.0720981  84.7020039   2.4458217  71.4667343  83.7985214   3.5946744
  62.1786499  92.7484108  10.7788876  61.4368235  92.8966743  11.3653506
  61.8579243  93.0092373   9.9155625  70.1230162 102.2900086  10.5769266
  70.4317288 102.0449233  11.4491966  70.9205644 102.4946724  10.0888136
  62.6243113 100.6349536   2.8099271  63.4501133 100.3353308   2.4297914
  62.2737165  99.8657159   3.2589059  67.5924646  99.9876005   4.8796944
  66.9704655  99.3246710   4.5799172  68.2629513 100.0137137   4.1970592
  60.8251718  98.5535863   3.7688204  59.9883626  98.1258037   3.5872205
  60.7975363  98.7468306   4.7058995  67.6649173  88.4657793  14.4729450
  67.7137329  89.3419915  14.0907220  68.2071688  87.9235186  13.9001093
  78.1504019  99.0098916  13.7530587  77.3599563  98.9923055  13.2135087
  77.9137374  99.5487210  14.5079624  78.2701894  95.8591382  11.0663316
  78.3199899  95.6941390  12.0078839  78.1615818  94.9918641  10.6761197
  75.5605657  91.8422310  12.3822623  76.4615519  91.7028775  12.0906620
  75.6353631  92.0076765  13.3220800  69.8948462  89.2189165  11.2275809
  69.0251771  89.5122731  10.9558397  70.1307942  89.8029610  11.9483073
  79.7720091  98.2788324  11.3105337  79.4804899  98.6418304  12.1468798
  79.1592222  97.5655332  11.1318669  80.9715773  95.8441204   3.8307908
  81.8062665  96.2831008   3.9945468  81.1074902  95.3679857   3.0116153
  78.0207279  93.4020938   9.7785395  78.4961401  93.5948585   8.9704247
  77.0972845  93.4580124   9.5328779  64.9090786  94.5645106  -0.6383526
  64.6636828  93.6607436  -0.4403316  65.0786700  94.5662256  -1.5804048
  72.5987496  85.4368782   8.7441229  73.1169440  86.1729809   8.4187718
  72.2442629  85.7432775   9.5787988  64.1786433  90.2973463  -3.1397365
  63.4855678  90.3717818  -3.7957329  63.9338185  89.5333807  -2.6175848
  72.8500090  81.8569065   4.2642126  73.1301844  81.1892254   4.8902552
  73.6350697  82.0498160   3.7516790  76.7208948  90.2786699   8.0113701
  77.6726371  90.3784796   8.0325925  76.5512399  89.4864967   8.5211785
  74.7423328  87.3642282   8.1973102  74.1473260  87.6447294   7.5019591
  74.4573024  87.8536183   8.9689843  79.1997026  93.4992818   7.1256001
  79.1673346  92.5608819   7.3115684  79.8097650  93.5776855   6.3921826
  79.3491515  90.2903862   7.1714284  78.8330563  89.5062318   6.9844213
  80.2331463  89.9622578   7.3360803  77.0102241  84.0344877   3.1310096
  76.8127063  83.7259965   4.0153428  77.6201947  84.7606516   3.2608026
  85.0173576  94.5608825   6.2662037  85.7476964  94.2994113   6.8269741
  84.4080521  93.8237547   6.3064105  83.0988873  92.7016688   6.8636489
  82.3722037  92.5672653   6.2552980  82.6836160  93.0093516   7.6693207
  70.9219049  96.4206617  14.6283862  71.8422059  96.5985216  14.8223908
  70.8868632  95.4762663  14.4763561  60.1401214  91.6145211   3.5537136
  59.8203999  90.7610519   3.2611510  59.5934643  91.8293789   4.3095104
  63.9181122  94.3307652   7.2706643  64.1367132  95.2624760   7.2894677
  64.3306896  93.9715626   8.0561447  70.8385340  84.8375737  -0.7417669
  70.0286068  84.4922822  -0.3662423  71.5269757  84.5283281  -0.1530057
  72.7675888  83.9153784   0.8806628  73.3206927  84.3349238   1.5396651
  73.0045974  82.9889532   0.9229584  68.7908987  89.9040858  16.6609392
  68.6905714  90.8535215  16.5921483  68.5730529  89.5759097  15.7885462
  67.9922059  87.1525783  -6.7549931  68.8541223  87.4780681  -6.4954114
  68.1772403  86.3657279  -7.2676865  60.0089474  95.2348122   5.5230258
  59.3152946  94.8202075   5.0100212  60.7562465  95.2768659   4.9263677
  76.1454695  86.0254309   0.3885292  75.5653364  86.6839113   0.0063345
  75.8790628  85.2031654  -0.0227290  74.5958262  85.4259367   2.5906612
  75.0958040  85.5375902   1.7820931  75.2393869  85.1220420   3.2307421
  68.6540257  93.3337997  15.4774453  68.1707339  94.1338357  15.6838342
  68.7401196  93.3445941  14.5241897  61.9226217  95.1666376   3.3996273
  61.8996905  95.2654064   2.4478156  62.2326853  96.0131527   3.7213439
  64.5813595  97.2242531   7.5142887  65.5356848  97.1926474   7.4472819
  64.3826118  96.7633155   8.3293113  65.1712977  95.7943647  10.0813685
  65.9905866  96.2887726  10.1048522  65.4449785  94.8775615  10.0531252
  74.9279573  88.1854400  -0.5558360  74.0405428  88.4704050  -0.7738165
  75.3433562  88.0248163  -1.4031083  78.2794109  88.2100921   3.1595980
  79.0554499  88.6997373   3.4320596  77.5542243  88.6358975   3.6167849
  80.7166668  88.9228540   4.2169920  81.3111159  88.6824276   3.5063228
  80.7893252  88.2035670   4.8443457  62.9363824 102.7662151   4.5313085
  62.8018292 102.0062552   3.9651083  62.5195886 103.4903051   4.0641874
  78.7125403  89.4898667   0.4842050  78.4562337  89.0895303   1.3150258
  78.0878271  90.2042461   0.3592189  83.0237741  92.2294741   2.9913341
  82.4637299  92.2987930   3.7644903  82.4181244  92.0535725   2.2712838
  66.0932949 103.6631468   4.7431528  65.9765334 104.6076900   4.6410218
  65.2725396 103.3605029   5.1317327  60.4247891  90.1281781  10.7805882
  61.0706755  89.6180735  11.2693107  60.2165042  90.8650463  11.3549307
  72.9501283  97.1962629  16.2798022  73.8192443  97.3703281  15.9184657
  72.4708035  98.0157046  16.1573752  68.9451502  84.3921826  -3.4670222
  68.9330172  85.3363666  -3.3101951  69.8374924  84.2091971  -3.7610761
  67.1187464 104.3159730   7.9587456  68.0214710 104.3483340   8.2753951
  66.8924834 103.3860181   7.9733792  68.8741066 103.0690716   4.6197535
  67.9236697 103.0692578   4.5061907  69.1773552 102.3223451   4.1033569
  72.7603621  80.9864602   0.7875715  71.9936017  80.4323089   0.9332397
  73.1714326  81.0586471   1.6489867  64.7645382  87.2749398  14.8780896
  65.6276844  86.9186203  15.0884221  64.1910793  86.9363293  15.5656300
  81.0538404 106.4184248  13.1452340  80.2771738 106.9778168  13.1355204
  81.6928967 106.9041031  13.6667210  79.3084777 109.2269701  12.7070307
  80.0499461 109.7654745  12.4305130  78.6021762 109.8535990  12.8641858
  84.2870632 103.9675817  10.3357199  84.0431563 104.7217877   9.7991474
  84.5630562 104.3461164  11.1704446  78.0446140 106.3809349  13.5085617
  77.4144801 107.0625630  13.7421013  77.9382228 106.2692431  12.5638755
  71.6228816 106.3011636   6.8666532  71.8736854 107.1858646   7.1324108
  72.1588364 106.1216237   6.0941623  77.3226883 100.6830115  15.8710868
  76.9293829 100.1296314  16.5458512  78.1393023 100.9940693  16.2617385
  80.2394844 102.0987994  13.4631124  80.9804557 102.6995147  13.3835587
  80.4712767 101.3565632  12.9049167  75.3836182 107.2844361  11.7409354
  75.2689697 106.3829619  12.0416453  74.5280700 107.5308058  11.3894170
  84.1852007  98.1269097   7.7395406  83.8416276  99.0170739   7.6634517
  84.5530970  97.9370755   6.8764991  76.1620729 105.2549947   8.6712760
  76.8343782 105.0467309   8.0225409  75.3350515 105.0572033   8.2317992
  82.0646301 101.8811888  10.6878421  81.4174216 102.5801837  10.5942897
  82.8347316 102.3148032  11.0554669  76.5648226 108.5292550   9.4315197
  76.4268024 107.7972788  10.0326736  77.4753149 108.4401450   9.1499385
  77.9059461 105.2277727  10.7394516  77.3696818 104.7768465  11.3916112
  77.3176169 105.3623636   9.9964980  73.6398582 104.3633735   7.8247511
  73.5556771 103.7559404   7.0897921  72.8181288 104.8542753   7.8257007
  82.0735322 108.7466595  14.3262996  81.3975959 108.6460724  14.9965371
  82.8962956 108.5905808  14.7898993  68.4131836 107.5544131   5.6679954
  68.4515935 107.0207722   6.4617072  67.9072129 107.0279337   5.0490931
  75.7922598 102.4008672   9.1642496  75.8563925 103.2623503   8.7519894
  75.7289718 101.7882673   8.4314855  75.2674871 104.4731804  12.8115531
  75.8946909 104.0908882  13.4253055  74.4102790 104.2546006  13.1771223
  78.3760974 101.6918657  11.0002086  78.8995376 101.9380953  11.7628395
  78.1573307 102.5238691  10.5805223  79.5813519 102.6332352   8.6851756
  79.2410339 101.8340165   9.0872436  78.8752525 102.9334063   8.1128589
  80.2329991  99.7181664   7.1379079  81.0556060  99.2442142   7.0157970
  80.4768054 100.4972148   7.6377766  72.2314232 108.9506129   7.8858719
  71.6867700 109.7265937   8.0178993  73.1093582 109.2976934   7.7277841
  73.0180254 108.0776025  10.7788876  72.2761990 108.2258661  11.3653506
  72.6972998 108.3384291   9.9155625  78.5042928 103.7949710  14.4729450
  78.5531083 104.6711833  14.0907220  79.0465442 103.2527103  13.9001093
  80.7342216 104.5481083  11.2275809  79.8645526 104.8414649  10.9558397
  80.9701697 105.1321528  11.9483073  83.4381250 100.7660700   8.7441229
  83.9563194 101.5021727   8.4187718  83.0836383 101.0724693   9.5787988
  81.7612804 111.7498535  14.6283862  82.6815813 111.9277134  14.8223908
  81.7262387 110.8054580  14.4763561  79.6302742 105.2332775  16.6609392
  79.5299469 106.1827132  16.5921483  79.4124284 104.9051014  15.7885462
  79.4934012 108.6629914  15.4774453  79.0101094 109.4630274  15.6838342
  79.5794951 108.6737859  14.5241897  71.2641646 105.4573699  10.7805882
  71.9100509 104.9472653  11.2693107  71.0558797 106.1942381  11.3549307
  83.7895038 112.5254546  16.2798022  84.6586198 112.6995199  15.9184657
  83.3101789 113.3448963  16.1573752  75.6039137 102.6041316  14.8780896
  76.4670598 102.2478121  15.0884221  75.0304547 102.2655211  15.5656300
  60.2215741  56.3591822  -1.6963666  60.2104381  55.9644620  -2.5683162
  60.3836380  55.6257894  -1.1029895  56.9423002  59.1428934  -2.7484482
  56.6512868  60.0474564  -2.8637816  57.5779986  59.1845461  -2.0340412
  59.3750896  52.7662535  -0.1302354  58.5984231  53.3256455  -0.1399489
  60.0141460  53.2519318   0.3912516  57.6297269  55.5747988  -0.5684387
  58.3711953  56.1133032  -0.8449563  56.9234254  56.2014277  -0.4112835
  63.1052608  57.7177129  -1.9712225  63.5135964  57.2759539  -2.7157593
  62.3829870  57.1429756  -1.7178032  65.6767415  59.7364672  -6.0897872
  66.4984858  59.3344859  -6.3715190  65.6729817  59.6332906  -5.1381756
  60.7840512  61.5740389   0.0642161  60.3404366  60.7876767  -0.2536934
  61.4457726  61.7619539  -0.6013948  62.8821750  61.8543189  -1.9076438
  62.8640225  62.6752070  -2.3996168  63.8041670  61.7297264  -1.6826296
  59.3394804  59.3687318  -1.0652929  59.8723141  58.6075606  -1.2953621
  58.8108885  59.0760970  -0.3228775  68.7322482  58.3432284  -5.0866600
  68.9258372  59.2478095  -4.8407325  68.6323100  57.8839703  -4.2528015
  63.7937591  58.4939027   0.4874281  63.6423097  58.2649579  -0.4295636
  63.7842270  59.4509628   0.5005626  65.5029798  61.5258150  -1.4349238
  65.4442344  60.8417370  -2.1018654  65.9049316  62.2677140  -1.8868612
  65.5047205  59.4897733  -3.2035258  64.6173984  59.1523655  -3.0808859
  66.0745756  58.7580765  -2.9666492  61.4947042  64.0486020  -4.0815856
  62.2075014  64.6833485  -4.1539955  61.0037070  64.1449886  -4.8975854
  56.5458955  61.7980463  -3.2610285  57.2468415  62.4316946  -3.1080891
  56.0754070  62.1395195  -4.0214646  60.3947814  55.0944882   1.0508302
  59.7188451  54.9939011   1.7210678  61.2175448  54.9384096   1.5144299
  59.1370597  66.4011809  -4.7134082  59.6888905  66.5643431  -3.9484997
  59.4776791  66.9916247  -5.3854057  63.9881472  61.2273067   1.1414573
  64.5321376  61.8403025   0.6469528  63.4068316  61.7852645   1.6581586
  64.3373893  62.1502805  -6.0990849  63.3904228  62.0308156  -6.1712523
  64.6856666  61.2625303  -6.0164588  59.2836409  63.9670291  -2.6985427
  59.5923535  63.7219438  -1.8262728  60.0811891  64.1716929  -3.1866557
  67.3110266  60.6869121   0.4775894  66.5205810  60.6693260  -0.0619607
  67.0743620  61.2257415   1.2324931  67.4308141  57.5361587  -2.2091377
  67.4806146  57.3711595  -1.2675855  67.3222064  56.6688846  -2.5993497
  64.7211903  53.5192515  -0.8932071  65.6221766  53.3798980  -1.1848073
  64.7959878  53.6846970   0.0466107  68.9326338  59.9558529  -1.9649356
  68.6411146  60.3188509  -1.1285895  68.3198469  59.2425537  -2.1436024
  67.1813526  55.0791143  -3.4969298  67.6567648  55.2718790  -4.3050447
  66.2579091  55.1350329  -3.7425914  74.1779823  56.2379030  -7.0092656
  74.9083211  55.9764318  -6.4484953  73.5686768  55.5007752  -6.9690588
  60.0825296  58.0976822   1.3529168  61.0028306  58.2755421   1.5469215
  60.0474879  57.1532868   1.2008868  57.9515234  51.5811063   3.3854698
  57.8511961  52.5305420   3.3166789  57.7336776  51.2529302   2.5130768
  57.8146504  55.0108202   2.2019760  57.3313586  55.8108562   2.4083649
  57.9007443  55.0216146   1.2487204  62.1107530  58.8732834   3.0043329
  62.9798690  59.0473486   2.6429964  61.6314282  59.6927250   2.8819058
  56.2793710  65.9929935  -5.3167237  57.1820957  66.0253545  -5.0000742
  56.0531080  65.0630386  -5.3020901  73.7700006  70.5821460  -7.5911396
  74.4078416  70.4628207  -8.2948056  73.6520849  71.5302304  -7.5323444
  70.5789712  70.5348888  -7.6549872  70.2408224  70.4189952  -8.5429337
  71.4479480  70.1340053  -7.6748865  66.4376528  72.3884364 -11.6652981
  65.8741393  72.2974301 -12.4336693  66.3228923  71.5684269 -11.1850488
  71.0609495  71.6883739  -1.6963666  71.0498136  71.2936538  -2.5683162
  71.2230135  70.9549812  -1.1029895  63.9840960  73.8835556  -8.8268760
  64.7762252  73.5426380  -9.2422461  64.2237610  73.9930531  -7.9066607
  67.7816756  74.4720851  -2.7484482  67.4906622  75.3766482  -2.8637816
  68.4173741  74.5137379  -2.0340412  68.7072963  71.8497700  -6.1583122
  69.3036535  71.6253722  -6.8726159  68.7647935  71.1082445  -5.5557675
  73.3241274  68.3072913 -10.5158188  74.1104364  67.8892337 -10.8667771
  73.5879979  69.2119006 -10.3476540  78.7249702  68.2448147  -9.6125210
  79.4574873  67.6747363  -9.3787380  77.9689057  67.8569747  -9.1718704
  70.3425821  70.6675388 -12.4161867  69.9784028  70.1406009 -11.7048946
  71.1992937  70.2773857 -12.5895382  76.2475122  61.9569721  -5.1530601
  75.9158447  62.8265132  -5.3769386  75.6520735  61.6406005  -4.4736571
  72.7406641  74.1582267  -5.7534688  72.4407364  75.0607306  -5.8618881
  72.3957701  73.8914450  -4.9013535  66.1919123  70.6096064  -9.7197984
  65.2669619  70.4772278  -9.5120292  66.4403536  71.3890283  -9.2228041
  76.1403785  66.6764807  -8.0737251  75.2320663  66.6080215  -8.3678490
  76.0891381  67.1536752  -7.2455426  63.5527934  70.2529337  -8.8854195
  63.6820315  70.5063816  -7.9714783  62.8725385  70.8457045  -9.2049540
  70.2144651  68.0954452  -0.1302354  69.4377985  68.6548373  -0.1399489
  70.8535214  68.5811235   0.3912516  78.0065432  64.8781245  -6.2959377
  77.3639812  65.1713778  -6.9419582  77.5020360  64.7634166  -5.4906180
  68.4691023  70.9039906  -0.5684387  69.2105708  71.4424950  -0.8449563
  67.7628009  71.5306195  -0.4112835  73.9446363  73.0469046  -1.9712225
  74.3529719  72.6051457  -2.7157593  73.2223624  72.4721674  -1.7178032
  70.2977433  67.9841653  -4.5978668  71.1438628  68.4081067  -4.4544019
  70.2376071  67.3275277  -3.9040105  74.2675178  73.6070237  -8.2159936
  73.6384040  73.7715951  -8.9183868  73.8800840  74.0211846  -7.4448972
  73.4476878  65.6446021  -2.9397495  73.2037810  66.3988082  -3.4763219
  73.7236809  66.0231369  -2.1050248  75.4015341  72.1884634  -4.2620229
  75.6132236  72.8316394  -4.9385848  75.3545089  71.3546950  -4.7298299
  73.0041570  64.8002454  -7.3583657  72.1426049  65.0983708  -7.0666919
  73.0304005  65.0172853  -8.2902624  69.8203139  73.3444645 -10.9509851
  70.2841485  73.6232348 -11.7405229  69.5559938  72.4428090 -11.1336761
  66.7127220  72.8916127  -8.0130088  67.2828578  73.3203395  -8.6512603
  67.3035332  72.6098711  -7.3145902  67.2052387  68.0579554   0.2330923
  66.5751048  68.7395835   0.4666320  67.0988475  67.9462636  -0.7115938
  62.4997359  67.7251350  -8.8403153  61.7096413  67.9808879  -9.3163042
  62.9908607  68.5399688  -8.7351112  76.5161169  75.0656589  -6.0897872
  77.3378613  74.6636777  -6.3715190  76.5123572  74.9624823  -5.1381756
  70.2817772  74.6140633  -3.9337161  70.3462205  75.0761040  -3.0978989
  69.5728696  73.9837997  -3.8054851  60.7835062  67.9781841  -6.4088162
  61.0343101  68.8628850  -6.1430586  61.3194611  67.7986442  -7.1813070
  66.4833130  62.3600320   2.5956174  66.0900075  61.8066518   3.2703819
  67.2999270  62.6710898   2.9862692  63.4495188  73.7984178 -13.4930256
  63.9619708  74.5927428 -13.3424691  64.1017900  73.1010469 -13.5596654
  65.2590072  76.9149934 -11.4107503  65.4356701  77.8367899 -11.5986519
  66.0546906  76.6008354 -10.9813123  69.4001091  63.7758199   0.1876431
  70.1410804  64.3765352   0.1080893  69.6319014  63.0335837  -0.3705527
  64.5442429  68.9614566  -1.5345339  64.4295944  68.0599823  -1.2338241
  63.6886946  69.2078263  -1.8860523  71.6234266  76.9032307   0.0642161
  71.1798121  76.1168685  -0.2536934  72.2851480  77.0911457  -0.6013948
  66.3821388  78.4328108  -5.4097160  66.9328813  78.3045171  -6.1820166
  65.5432864  78.7322997  -5.7602268  73.7215505  77.1835106  -1.9076438
  73.7033980  78.0043988  -2.3996168  74.6435425  77.0589182  -1.6826296
  70.1788559  74.6979236  -1.0652929  70.7116896  73.9367524  -1.2953621
  69.6502640  74.4052888  -0.3228775  73.3458254  59.8039302  -5.5359287
  73.0022523  60.6940944  -5.6120177  73.7137216  59.6140960  -6.3989702
  72.4254794  62.1743957  -7.5710054  71.9219590  62.1374092  -8.3842249
  72.7185401  63.0836700  -7.5113398  68.6697680  62.2582687  -8.5643872
  69.5350677  62.0625495  -8.9237983  68.7375189  62.0293039  -7.6374516
  76.5234117  72.0214249  -8.4367071  75.8657792  72.7113510  -8.3486942
  77.3274517  72.4110681  -8.0933085  75.3339576  70.3758622 -10.3863129
  75.8471458  71.0088613  -9.8841419  75.9840800  69.7759817 -10.7519769
  71.8120407  67.8508077  -8.1404789  70.8942968  68.0723024  -8.2983101
  72.2280551  67.9254388  -8.9993081  72.5955455  69.2499493 -13.0102108
  73.3427274  69.7620890 -13.3194986  72.8647044  68.9283546 -12.1497715
  75.0434292  66.2856609 -11.0283319  74.3057049  65.7733995 -10.6973076
  75.2961066  65.8456991 -11.8400042  69.4166999  69.3586654  -9.9265359
  69.4715609  68.4060491 -10.0022882  68.6058201  69.5146093  -9.4424060
  67.3559359  67.9763714 -12.1674980  66.5427225  68.2757884 -11.7609788
  67.8518353  67.5819403 -11.4500498  69.5067937  77.9721471 -10.2340715
  69.4644116  78.1982317 -11.1632183  70.4230636  77.7384845 -10.0854914
  72.9533571  68.4405538  -3.3360086  73.3082958  68.6677012  -2.4765620
  73.6005702  68.7723915  -3.9582831  66.8473434  65.5482069  -6.5513745
  67.4872813  65.4070829  -7.2490782  66.0150964  65.2616583  -6.9275143
  78.7100687  73.6300501  -7.6199485  79.1437194  73.5375790  -6.7716431
  79.4232268  73.6058002  -8.2579469  67.6233738  74.8484500 -10.4378752
  68.4174336  74.3534820 -10.6396177  66.9125430  74.3202363 -10.8011047
  72.4428582  77.2302595  -6.0866385  72.4965604  77.7993532  -5.3188669
  71.5743363  77.4004480  -6.4512348  65.3226976  66.9320152  -4.6041934
  65.9950029  66.7237514  -5.2529285  64.4956762  66.7342238  -5.0436701
  79.5716237  73.6724202  -5.0866600  79.7652127  74.5770012  -4.8407325
  79.4716855  73.2131621  -4.2528015  71.2252548  63.5582092  -2.5876273
  70.5780463  64.2572042  -2.6811796  71.9953563  63.9918236  -2.2200024
  74.6331345  73.8230945   0.4874281  74.4816852  73.5941496  -0.4295636
  74.6236025  74.7801546   0.5005626  71.4016682  71.3962857  -4.5279453
  72.3308742  71.5474017  -4.7010486  70.9807712  71.4846878  -5.3830806
  70.2005014  75.4213522  -6.7580915  70.0616099  75.0532306  -5.8854977
  69.4119610  75.9361161  -6.9296958  71.7510229  74.7995125  -9.3692078
  71.4160061  74.7595894  -8.4734428  71.2514174  74.1339840  -9.8421667
  65.7254473  70.2062755  -3.8439496  65.5874271  69.4742993  -3.2427957
  66.6359396  70.1171655  -4.1255309  68.3536773  69.9182714  -4.3555817
  69.0636392  69.2775906  -4.3969198  68.3106082  70.1695609  -3.4329636
  76.3423552  76.8550067  -1.4349238  76.2836098  76.1709287  -2.1018654
  76.7443070  77.5969057  -1.8868612  67.0665707  66.9047932  -2.5360177
  66.5303064  66.4538670  -1.8838581  66.4782416  67.0393841  -3.2789713
  65.3614251  83.6711981  -8.6415519  65.6010849  84.3030505  -7.9636500
  64.5183447  83.3200021  -8.3550159  76.3440959  74.8189651  -3.2035258
  75.4567738  74.4815573  -3.0808859  76.9139510  74.0872682  -2.9666492
  57.9970106  71.1513743  -9.8792206  58.6841146  70.8375473 -10.4671191
  57.8418235  72.0555108 -10.1524955  62.8004829  66.0403939  -5.4507183
  62.7163017  65.4329609  -6.1856773  61.9787535  66.5312958  -5.4497686
  69.8742113  79.4791103  -6.2374015  69.8012284  80.2846075  -5.7254710
  69.4319506  79.6783069  -7.0625993  72.9728543  64.5257503 -10.0836988
  73.4697242  63.7727465 -10.4035917  72.2015524  64.5621820 -10.6493778
  80.8258300  70.2297869  -8.4418696  80.8148176  71.1122584  -8.8124763
  79.9575679  69.8769419  -8.6364159  72.3340796  79.3777938  -4.0815856
  73.0468768  80.0125402  -4.1539955  71.8430825  79.4741804  -4.8975854
  74.0558323  73.2829190 -12.5098564  73.1214602  73.4030653 -12.6793860
  74.2334992  72.3801657 -12.7738554  69.5563511  66.6674886 -10.3565303
  69.1861299  66.1145926  -9.6684398  70.0522604  66.0633019 -10.9090303
  77.4430875  69.1246509 -11.9748530  77.9091327  69.9574501 -12.0488228
  77.8938375  68.6591491 -11.2703272  67.3852710  77.1272381  -3.2610285
  68.0862169  77.7608864  -3.1080891  66.9147825  77.4687113  -4.0214646
  75.4147537  61.4927096  -7.9357629  74.5010617  61.7231323  -7.7675422
  75.8440639  61.5765541  -7.0843596  75.1853996  69.6816988  -5.4357735
  74.5325446  69.9292896  -6.0905282  75.5634376  68.8681127  -5.7695258
  71.2341569  70.4236800   1.0508302  70.5582206  70.3230929   1.7210678
  72.0569203  70.2676013   1.5144299  62.9820428  76.6608736  -6.3279182
  63.5673865  75.9152424  -6.1951278  62.7845266  76.9712693  -5.4442519
  65.8359083  79.6959983 -11.3116740  65.1669458  80.1806111 -11.7952700
  65.6971953  79.9429204 -10.3973362  57.5738083  69.2314336  -7.6074739
  57.6122182  68.6977927  -6.8137621  57.0678375  68.7049542  -8.2263762
  69.9764352  81.7303727  -4.7134082  70.5282660  81.8935348  -3.9484997
  70.3170545  82.3208165  -5.3854057  64.9528845  64.0778877  -4.1112197
  65.0170171  64.9393708  -4.5234799  64.8895965  63.4652878  -4.8439839
  64.4281117  66.1502009  -0.4639163  65.0553156  65.7679087   0.1498362
  63.5709036  65.9316211  -0.0983470  74.8275226  76.5564984   1.1414573
  75.3715130  77.1694943   0.6469528  74.2462071  77.1144563   1.6581586
  73.1132739  79.6785702  -7.7270400  72.9883878  78.8775442  -8.2359454
  73.7711830  80.1731896  -8.2156430  64.7340907  66.0334435  -8.5493259
  64.0127493  66.6470403  -8.6885786  65.5234163  66.5692200  -8.6276613
  75.1767647  77.4794723  -6.0990849  74.2297983  77.3600074  -6.1712523
  75.5250420  76.5917221  -6.0164588  67.5367221  63.3688861  -2.2752608
  68.0601623  63.6151158  -1.5126298  67.3179554  64.2008896  -2.6949470
  72.1814081  77.2747439  -9.8986497  72.0339043  76.3464146  -9.7178927
  73.0067574  77.2967529 -10.3829422  75.7848202  78.0975998  -8.8121624
  76.7094750  77.8918859  -8.9497173  75.6163506  77.8492399  -7.9032283
  68.7419766  64.3102557  -4.5902937  68.4016586  63.5110370  -4.1882257
  68.0358772  64.6104267  -5.1626104  69.3936238  61.3951869  -6.1375614
  70.2162307  60.9212347  -6.2596724  69.6374301  62.1742353  -5.6376928
  66.9174816  68.0870990  -8.3283635  66.7719397  68.4011293  -7.4359354
  66.4400020  68.7055890  -8.8812737  68.7771199  65.0773538  -8.2802746
  68.7632768  64.1814631  -8.6170448  69.4943627  65.0844201  -7.6464460
  70.6297330  65.5110878  -6.2349618  70.3715108  66.4327948  -6.2365288
  70.0982370  65.1141312  -5.5449154  61.3920479  70.6276334  -5.3895974
  60.8473947  71.4036142  -5.2575700  62.2699828  70.9747139  -5.5476853
  62.1786500  69.7546230  -2.4965817  61.4368236  69.9028866  -1.9101187
  61.8579245  70.0154496  -3.3599068  70.1230163  79.2962209  -2.6985427
  70.4317289  79.0511355  -1.8262728  70.9205645  79.5008847  -3.1866557
  62.6243114  77.6411659 -10.4655423  63.4501134  77.3415431 -10.8456779
  62.2737166  76.8719281 -10.0165634  67.5924647  76.9938127  -8.3957749
  66.9704657  76.3308832  -8.6955521  68.2629514  77.0199259  -9.0784101
  60.8251719  75.5597985  -9.5066489  59.9883627  75.1320160  -9.6882488
  60.7975365  75.7530429  -8.5695698  67.6649175  65.4719915   1.1974757
  67.7137330  66.3482038   0.8152526  68.2071689  64.9297308   0.6246400
  78.1504020  76.0161039   0.4775894  77.3599564  75.9985177  -0.0619607
  77.9137375  76.5549332   1.2324931  78.2701895  72.8653505  -2.2091377
  78.3199900  72.7003512  -1.2675855  78.1615819  71.9980764  -2.5993497
  75.5605658  68.8484433  -0.8932071  76.4615521  68.7090898  -1.1848073
  75.6353632  69.0138888   0.0466107  69.8948463  66.2251288  -2.0478884
  69.0251773  66.5184854  -2.3196296  70.1307944  66.8091733  -1.3271621
  79.7720092  75.2850446  -1.9649356  79.4804901  75.6480427  -1.1285895
  79.1592224  74.5717455  -2.1436024  80.9715775  72.8503326  -9.4446786
  81.8062666  73.2893130  -9.2809225  81.1074903  72.3741979 -10.2638540
  78.0207281  70.4083061  -3.4969298  78.4961402  70.6010707  -4.3050447
  77.0972846  70.4642247  -3.7425914  72.5987497  62.4430905  -4.5313464
  73.1169441  63.1791932  -4.8566976  72.2442630  62.7494898  -3.6966705
  72.8500091  58.8631187  -9.0112567  73.1301845  58.1954376  -8.3852141
  73.6350698  59.0560283  -9.5237904  76.7208950  67.2848821  -5.2640992
  77.6726372  67.3846919  -5.2428768  76.5512400  66.4927090  -4.7542908
  74.7423329  64.3704404  -5.0781591  74.1473261  64.6509417  -5.7735103
  74.4573026  64.8598305  -4.3064850  79.1997027  70.5054941  -6.1498693
  79.1673347  69.5670942  -5.9639009  79.8097651  70.5838978  -6.8832868
  79.3491516  67.2965984  -6.1040410  78.8330564  66.5124441  -6.2910481
  80.2331464  66.9684701  -5.9393890  77.0102243  61.0407000 -10.1444597
  76.8127064  60.7322088  -9.2601265  77.6201948  61.7668639 -10.0146667
  85.0173577  71.5670948  -7.0092656  85.7476966  71.3056236  -6.4484953
  84.4080523  70.8299670  -6.9690588  83.0988874  69.7078810  -6.4118205
  82.3722038  69.5734775  -7.0201713  82.6836161  70.0155639  -5.6061487
  70.9219051  73.4268740   1.3529168  71.8422060  73.6047339   1.5469215
  70.8868634  72.4824785   1.2008868  63.9181123  71.3369775  -6.0048051
  64.1367133  72.2686882  -5.9860017  64.3306897  70.9777749  -5.2193247
  68.7908989  66.9102980   3.3854698  68.6905715  67.8597337   3.3166789
  68.5730531  66.5821219   2.5130768  60.0089476  72.2410245  -7.7524435
  59.3152947  71.8264198  -8.2654481  60.7562467  72.2830782  -8.3491017
  74.5958263  62.4321490 -10.6848081  75.0958041  62.5438024 -11.4933762
  75.2393871  62.1282542 -10.0447272  68.6540259  70.3400119   2.2019760
  68.1707340  71.1400479   2.4083649  68.7401198  70.3508064   1.2487204
  61.9226218  72.1728499  -9.8758421  61.8996906  72.2716186 -10.8276537
  62.2326855  73.0193650  -9.5541254  64.5813596  74.2304654  -5.7611806
  65.5356850  74.1988596  -5.8281875  64.3826120  73.7695278  -4.9461580
  65.1712978  72.8005770  -3.1941009  65.9905867  73.2949849  -3.1706171
  65.4449786  71.8837738  -3.2223441  78.2794111  65.2163043 -10.1158714
  79.0554501  65.7059496  -9.8434097  77.5542245  65.6421097  -9.6586844
  80.7166669  65.9290662  -9.0584773  81.3111160  65.6886398  -9.7691465
  80.7893253  65.2097793  -8.4311237  62.9363825  79.7724273  -8.7441608
  62.8018293  79.0124674  -9.3103610  62.5195887  80.4965173  -9.2112819
  78.7125404  66.4960790 -12.7912643  78.4562338  66.0957426 -11.9604436
  78.0878272  67.2104584 -12.9162504  83.0237742  69.2356863 -10.2841352
  82.4637300  69.3050053  -9.5109790  82.4181245  69.0597848 -11.0041856
  66.0932951  80.6693590  -8.5323166  65.9765335  81.6139023  -8.6344475
  65.2725397  80.3667152  -8.1437366  60.4247892  67.1343904  -2.4948811
  61.0706756  66.6242858  -2.0061586  60.2165044  67.8712585  -1.9205386
  72.9501285  74.2024751   3.0043329  73.8192444  74.3765404   2.6429964
  72.4708036  75.0219168   2.8819058  67.1187465  81.3221852  -5.3167237
  68.0214712  81.3545463  -5.0000742  66.8924835  80.3922303  -5.3020901
  68.8741067  80.0752839  -8.6557159  67.9236698  80.0754700  -8.7692786
  69.1773553  79.3285573  -9.1721124  64.7645383  64.2811521   1.6026203
  65.6276845  63.9248326   1.8129527  64.1910794  63.9425416   2.2901607
  81.0538405  83.4246370  -0.1302354  80.2771740  83.9840290  -0.1399489
  81.6928969  83.9103153   0.3912516  79.3084778  86.2331824  -0.5684387
  80.0499462  86.7716867  -0.8449563  78.6021763  86.8598112  -0.4112835
  84.2870633  80.9737939  -2.9397495  84.0431565  81.7280000  -3.4763219
  84.5630563  81.3523287  -2.1050248  78.0446142  83.3871472   0.2330923
  77.4144802  84.0687753   0.4666320  77.9382229  83.2754553  -0.7115938
  71.6228817  83.3073758  -6.4088162  71.8736855  84.1920768  -6.1430586
  72.1588365  83.1278360  -7.1813070  77.3226884  77.6892238   2.5956174
  76.9293830  77.1358436   3.2703819  78.1393025  78.0002816   2.9862692
  80.2394845  79.1050117   0.1876431  80.9804559  79.7057270   0.1080893
  80.4712768  78.3627754  -0.3705527  75.3836183  84.2906484  -1.5345339
  75.2689698  83.3891741  -1.2338241  74.5280701  84.5370181  -1.8860523
  84.1852008  75.1331220  -5.5359287  83.8416278  76.0232861  -5.6120177
  84.5530971  74.9432877  -6.3989702  76.1620730  82.2612069  -4.6041934
  76.8343783  82.0529431  -5.2529285  75.3350517  82.0634155  -5.0436701
  82.0646302  78.8874010  -2.5876273  81.4174217  79.5863960  -2.6811796
  82.8347317  79.3210154  -2.2200024  76.5648227  85.5354672  -3.8439496
  76.4268025  84.8034911  -3.2427957  77.4753151  85.4463572  -4.1255309
  77.9059462  82.2339849  -2.5360177  77.3696819  81.7830588  -1.8838581
  77.3176170  82.3685758  -3.2789713  73.6398583  81.3695857  -5.4507183
  73.5556772  80.7621527  -6.1856773  72.8181290  81.8604875  -5.4497686
  82.0735323  85.7528717   1.0508302  81.3975960  85.6522847   1.7210678
  82.8962957  85.5967931   1.5144299  68.4131837  84.5606254  -7.6074739
  68.4515937  84.0269845  -6.8137621  67.9072130  84.0341459  -8.2263762
  75.7922599  79.4070794  -4.1112197  75.8563926  80.2685625  -4.5234799
  75.7289720  78.7944796  -4.8439839  75.2674872  81.4793927  -0.4639163
  75.8946911  81.0971004   0.1498362  74.4102791  81.2608129  -0.0983470
  78.3760975  78.6980779  -2.2752608  78.8995377  78.9443076  -1.5126298
  78.1573308  79.5300814  -2.6949470  79.5813520  79.6394474  -4.5902937
  79.2410341  78.8402287  -4.1882257  78.8752527  79.9396185  -5.1626104
  80.2329992  76.7243787  -6.1375614  81.0556061  76.2504265  -6.2596724
  80.4768056  77.5034270  -5.6376928  72.2314233  85.9568252  -5.3895974
  71.6867701  86.7328060  -5.2575700  73.1093583  86.3039056  -5.5476853
  73.0180255  85.0838148  -2.4965817  72.2761991  85.2320783  -1.9101187
  72.6972999  85.3446414  -3.3599068  78.5042929  80.8011833   1.1974757
  78.5531085  81.6773956   0.8152526  79.0465443  80.2589226   0.6246400
  80.7342218  81.5543205  -2.0478884  79.8645527  81.8476771  -2.3196296
  80.9701698  82.1383650  -1.3271621  83.4381251  77.7722822  -4.5313464
  83.9563195  78.5083849  -4.8566976  83.0836384  78.0786816  -3.6966705
  81.7612805  88.7560658   1.3529168  82.6815815  88.9339257   1.5469215
  81.7262388  87.8116703   1.2008868  79.6302743  82.2394898   3.3854698
  79.5299470  83.1889255   3.3166789  79.4124285  81.9113137   2.5130768
  79.4934013  85.6692037   2.2019760  79.0101095  86.4692397   2.4083649
  79.5794952  85.6799982   1.2487204  71.2641647  82.4635821  -2.4948811
  71.9100511  81.9534775  -2.0061586  71.0558798  83.2004503  -1.9205386
  83.7895039  89.5316669   3.0043329  84.6586199  89.7057321   2.6429964
  83.3101791  90.3511086   2.8819058  75.6039138  79.6103439   1.6026203
  76.4670600  79.2540243   1.8129527  75.0304549  79.2717333   2.2901607
  81.0538407  60.4308493 -13.4057047  80.2771741  60.9902413 -13.4154182
  81.6928970  60.9165276 -12.8842177  79.3084779  63.2393946 -13.8439080
  80.0499463  63.7778990 -14.1204256  78.6021764  63.8660235 -13.6867528
  82.0735325  62.7590840 -12.2246391  81.3975962  62.6584969 -11.5544016
  82.8962958  62.6030054 -11.7610394  81.7612806  65.7622780 -11.9225525
  82.6815816  65.9401379 -11.7285479  81.7262389  64.8178826 -12.0745826
  79.6302744  59.2457021  -9.8899995  79.5299471  60.1951378  -9.9587904
  79.4124286  58.9175260 -10.7623925  79.4934014  62.6754159 -11.0734933
  79.0101096  63.4754520 -10.8671044  79.5794953  62.6862104 -12.0267489
  83.7895040  66.5378792 -10.2711364  84.6586200  66.7119444 -10.6324729
  83.3101792  67.3573208 -10.3935635   2.1309144 118.5302962  60.0814087
   1.4883524 118.8235495  59.4353881   1.6264072 118.4155882  60.8867283
   3.4735228 120.9487701  60.2733054   2.9574277 120.1646157  60.0862983
   4.3575177 120.6206417  60.4379574   1.1345955 114.6928716  56.2328867
   0.9370776 114.3843804  57.1172199   1.7445661 115.4190355  56.3626797
   2.4037823 118.8684760  56.2614750   3.1798213 119.3581212  56.5339367
   1.6785957 119.2942814  56.7186619   4.8410381 119.5812379  57.3188691
   5.4354872 119.3408115  56.6081999   4.9136965 118.8619509  57.9462227
   2.8369116 120.1482506  53.5860820   2.5806051 119.7479142  54.4169028
   2.2121984 120.8626300  53.4610960   2.8493415  98.9031986  43.4893561
   3.5818587  98.3331202  43.7231390   2.0932771  98.5153586  43.9300066
   2.1309145  95.5365084  46.8059393   1.4883525  95.8297617  46.1599188
   1.6264074  95.4218005  47.6112590   2.2708123 105.2008514  42.2403198
   1.5859161 105.5807415  41.6900231   2.3551972 105.8103840  42.9735146
   0.6404883 105.7240428  47.0120899   1.4622326 105.3220615  46.7303580
   0.6367285 105.6208662  47.9637014   8.7310876 102.0679177  43.3605870
   7.9774584 101.4986575  43.2049875   8.8658417 102.0341841  44.3076505
   2.4086524 103.2064107  38.0085092   1.6315967 102.8675266  37.5640254
   3.0878005 103.2116730  37.3340057   2.8075021 102.2207813  40.4708013
   2.6692920 102.4109409  39.5429203   2.4511240 102.9827196  40.9276065
   2.8344401 104.2884340  45.4819285   3.2680907 104.1959629  46.3302339
   3.5475981 104.2641841  44.8439301   3.6959950 104.3308041  48.0152170
   3.8895840 105.2353851  48.2611445   3.5960568 103.8715460  48.8490755
   4.9502013 100.8881707  44.6600074   4.9391890 101.7706423  44.2894007
   4.0819393 100.5353258  44.4654611   1.5674588  99.7830348  41.1270240
   2.0335040 100.6158340  41.0530543   2.0182089  99.3175330  41.8315499
   5.5526623 102.0381927  41.2649537   5.9957769 101.2889252  40.8668660
   4.6753134 102.0292063  40.8823269   0.6862405 108.5912268  36.7456136
   1.3813309 109.2118961  36.9643450   1.0285555 107.7407620  37.0208513
   2.5853828 106.0411974  38.2743466   3.1105152 106.3799247  37.5492786
   2.4976180 105.1058989  38.0906601   2.2747734 106.6744877  53.5794664
   1.4843278 106.6569016  53.0399164   2.0381088 107.2133171  54.3343701
   2.3945609 103.5237344  50.8927393   2.4443614 103.3587351  51.8342916
   2.2859532 102.6564603  50.5025274   3.8963806 105.9434285  51.1369414
   3.6048614 106.3064266  51.9732875   3.2835937 105.2301294  50.9582746
   5.0959488 103.5087165  43.6571985   5.9306379 103.9476969  43.8209545
   5.2318617 103.0325818  42.8380230   2.1450994 101.0666900  49.6049472
   2.6205116 101.2594546  48.7968324   1.2216559 101.1226086  49.3592856
   0.8452663  97.9432660  47.8377778   1.7970086  98.0430758  47.8590002
   0.6756113  97.1510929  48.3475862   3.3240741 101.1638780  46.9520078
   3.2917061 100.2254780  47.1379761   3.9341364 101.2422816  46.2185903
   3.4735229  97.9549823  46.9978361   2.9574278  97.1708280  46.8108290
   4.3575178  97.6268540  47.1624880   1.1345956  91.6990839  42.9574174
   0.9370777  91.3905927  43.8417505   1.7445662  92.4252478  43.0872103
   9.1417291 102.2254787  46.0926114   9.8720679 101.9640075  46.6533818
   8.5324236 101.4883509  46.1328182   7.2232588 100.3662649  46.6900566
   6.4965751 100.2318614  46.0817057   6.8079875 100.6739478  47.4957284
   2.4037824  95.8746882  42.9860057   3.1798214  96.3643335  43.2584673
   1.6785958  96.3004936  43.4431926   4.8410383  96.5874501  44.0433997
   5.4354874  96.3470237  43.3327305   4.9136966  95.8681632  44.6707534
   2.8369118  97.1544629  40.3106127   2.5806052  96.7541265  41.1414335
   2.2121986  97.8688423  40.1856266   7.1481455  99.8940702  42.8177418
   6.5881013  99.9633892  43.5908980   6.5424959  99.7181687  42.0976915
   8.7337474 116.5697216  45.5107374   9.3715884 116.4503964  44.8070714
   8.6158317 117.5178060  45.5695326   5.5427180 116.5224644  45.4468899
   5.2045692 116.4065709  44.5589434   6.4116948 116.1215809  45.4269905
   1.4013996 118.3760121  41.4365790   0.8378861 118.2850058  40.6682078
   1.2866391 117.5560025  41.9168282   6.0246963 117.6759496  51.4055104
   6.0135604 117.2812294  50.5335608   6.1867603 116.9425569  51.9988876
   3.6710431 117.8373456  46.9435648   4.2674003 117.6129479  46.2292611
   3.7285403 117.0958202  47.5461096   8.2878742 114.2948670  42.5860582
   9.0741832 113.8768093  42.2350999   8.5517447 115.1994762  42.7542231
   8.4588820 119.7321520  37.2849239   7.8234653 119.8056147  37.9970144
   8.1286226 120.3215119  36.6068318  13.6887170 114.2323903  43.4893561
  14.4212341 113.6623120  43.7231390  12.9326525 113.8445504  43.9300066
   5.3063289 116.6551145  40.6856903   4.9421496 116.1281766  41.3969825
   6.1630405 116.2649614  40.5123389  11.2112590 107.9445477  47.9488169
  10.8795915 108.8140888  47.7249384  10.6158203 107.6281761  48.6282200
   4.9468776 111.6841044  35.6818252   5.1143179 112.5521281  36.0488723
   4.7565945 111.8468326  34.7579541   7.7044109 120.1458023  47.3484082
   7.4044833 121.0483062  47.2399889   7.3595169 119.8790207  48.2005235
  11.1041253 112.6640563  45.0281519  10.1958131 112.5955972  44.7340280
  11.0528849 113.1412508  45.8563345   4.9257997 114.1398702  36.6664919
   4.8057622 114.5855753  37.5050399   4.2310585 114.4884020  36.1078457
   5.1782119 114.0830209  52.9716417   4.4015453 114.6424129  52.9619281
   5.8172682 114.5686992  53.4931287  12.9702900 110.8657002  46.8059393
  12.3277280 111.1589535  46.1599188  12.4657828 110.7509922  47.6112590
  10.6243063 114.6120175  37.4945253  11.5360919 114.8447562  37.3192950
  10.1152710 115.1957219  36.9320331   3.4328491 116.8915662  52.5334384
   4.1743176 117.4300706  52.2569207   2.7265477 117.5181951  52.6905935
   8.9083831 119.0344803  51.1306545   9.3167187 118.5927213  50.3861177
   8.1861092 118.4597430  51.3840738   5.2614901 113.9717410  48.5040102
   6.1076096 114.3956823  48.6474751   5.2013539 113.3151034  49.1978665
   9.2312646 119.5945994  44.8858834   8.6021508 119.7591708  44.1834902
   8.8438308 120.0087603  45.6569798  13.1101877 120.5300431  42.2403198
  12.4252916 120.9099333  41.6900231  13.1945727 121.1395758  42.9735146
   8.4114346 111.6321778  50.1621276   8.1675278 112.3863839  49.6255551
   8.6874277 112.0107126  50.9968523  10.3652809 118.1760390  48.8398541
  10.5769704 118.8192150  48.1632922  10.3182557 117.3422707  48.3720471
   7.9679038 110.7878211  45.7435113   7.1063517 111.0859465  46.0351851
   7.9941473 111.0048610  44.8116146   4.7840607 119.3320402  42.1508919
   5.2478953 119.6108105  41.3613542   4.5197406 118.4303846  41.9682010
   1.6764689 118.8791883  45.0888682   2.2466046 119.3079152  44.4506167
   2.2672800 118.5974468  45.7872868   3.7209494 115.4543554  38.9598484
   4.4233537 115.9064598  39.4272411   3.3890122 114.8127373  39.5878377
   2.1689855 114.0455311  53.3349694   1.5388516 114.7271591  53.5685090
   2.0625943 113.9338392  52.3902832  11.4798637 121.0532346  47.0120899
  12.3016081 120.6512533  46.7303580  11.4761040 120.9500580  47.9637014
   5.2455240 120.6016389  49.1681609   5.3099673 121.0636796  50.0039781
   4.5366164 119.9713754  49.2963919  19.5704630 117.3971094  43.3605870
  18.8168338 116.8278492  43.2049875  19.7052171 117.3633759  44.3076505
   1.4470598 108.3476076  55.6974945   1.0537543 107.7942275  56.3722589
   2.2636738 108.6586655  56.0881462   4.3638559 109.7633956  53.2895201
   5.1048272 110.3641109  53.2099664   4.5956482 109.0211593  52.7313244
   5.1426027 120.6854993  52.0365841   5.6754364 119.9243281  51.8065149
   4.6140108 120.3928644  52.7789996   8.3095722 105.7915058  47.5659483
   7.9659991 106.6816700  47.4898594   8.6774684 105.6016716  46.7029068
   8.2746004 115.7823670  36.0731918   7.7592628 116.5528274  36.3120305
   8.0023313 115.1088806  36.6964979   5.8593115 110.6273370  41.1317156
   5.0034712 110.2380221  40.9522795   6.2720067 110.7065331  40.2716942
   7.3892262 108.1619714  45.5308716   6.8857058 108.1249849  44.7176521
   7.6822869 109.0712456  45.5905373   3.6335148 108.2458443  44.5374898
   4.4988145 108.0501252  44.1780787   3.7012657 108.0168795  45.4644255
  13.2480279 118.5356024  38.0085092  12.4709721 118.1967184  37.5640254
  13.9271760 118.5408647  37.3340057   8.0632308 113.6550762  37.8991699
   7.7582443 113.9696911  38.7501842   9.0162750 113.7332182  37.9419032
   6.5078739 119.8140985  39.5484653   5.9800101 119.0793745  39.2357891
   6.0066242 120.5915661  39.3024622  11.4871585 118.0090005  44.6651700
  10.8295260 118.6989267  44.7531828  12.2911985 118.3986437  45.0085686
   1.2397467 110.4760651  41.9091265   1.8141219 110.2535833  41.1764458
   1.8268449 110.5449346  42.6619866  10.2977044 116.3634378  42.7155641
  10.8108926 116.9964370  43.2177351  10.9478268 115.7635574  42.3499001
   3.5420135 107.3501900  40.6366334   2.8884547 107.0350917  40.0122949
   3.5000609 106.7277641  41.3626157   6.7757875 113.8383834  44.9613982
   5.8580436 114.0598781  44.8035670   7.1918019 113.9130144  44.1025689
   7.5592923 115.2375249  40.0916662   8.3064742 115.7496647  39.7823784
   7.8284512 114.9159302  40.9521056   5.8319573 117.7333790  37.0743616
   4.9230792 117.4492823  37.1716086   5.8614657 118.1532869  36.2146923
  11.0638840 121.3440380  40.8434784  10.6101168 120.5031290  40.8999974
  10.4332807 121.9801778  41.1809564  10.0071760 112.2732366  42.0735451
   9.2694517 111.7609752  42.4045694  10.2598534 111.8332747  41.2618728
   9.5071780 123.1816876  41.7784602   9.7994754 123.7421933  41.0596968
  10.0170400 123.4745437  42.5337761  10.1083387 105.0508618  42.6677221
  10.4142264 104.1905981  42.3803136  10.8335992 105.6426238  42.4676215
   4.3804467 115.3462411  43.1753412   4.4353077 114.3936247  43.0995888
   3.5695669 115.5021850  43.6594710   2.3196827 113.9639470  40.9343791
   1.5064693 114.2633641  41.3408983   2.8155821 113.5695159  41.6518273
   7.9171039 114.4281295  49.7658684   8.2720426 114.6552768  50.6253150
   8.5643170 114.7599672  49.1435940  13.6468776 117.5499731  40.4708013
  13.5086674 117.7401327  39.5429203  13.2904994 118.3119114  40.9276065
   1.8110902 111.5357826  46.5505026   2.4510281 111.3946585  45.8527989
   0.9788432 111.2492339  46.1743627  13.6738155 119.6176258  45.4819285
  14.1074662 119.5251547  46.3302339  14.3869736 119.5933758  44.8439301
   2.5871206 120.8360256  42.6640018   3.3811804 120.3410577  42.4622593
   1.8762898 120.3078120  42.3007724  14.5353705 119.6599959  48.0152170
  14.7289595 120.5645769  48.2611445  14.4354323 119.2007378  48.8490755
   6.1890016 109.5457849  50.5142498   5.5417931 110.2447799  50.4206974
   6.9591031 109.9793993  50.8818746   9.5968813 119.8106701  53.5893051
   9.4454320 119.5817253  52.6723135   9.5873493 120.7677303  53.6024396
   6.3654150 117.3838614  48.5739317   7.2946210 117.5349774  48.4008285
   5.9445180 117.4722635  47.7187964   6.7147697 120.7870881  43.7326693
   6.3797529 120.7471651  44.6284343   6.2151643 120.1215597  43.2597103
   0.6891941 116.1938511  49.2579274   0.5511739 115.4618750  49.8590813
   1.5996864 116.1047411  48.9763462   3.3174241 115.9058470  48.7462954
   4.0273860 115.2651663  48.7049572   3.2743550 116.1571365  49.6689134
  11.3061020 122.8425824  51.6669533  11.2473566 122.1585044  51.0000116
  11.7080539 123.5844814  51.2150159   2.0303175 112.8923688  50.5658593
   1.4940532 112.4414427  51.2180189   1.4419884 113.0269597  49.8229057
  11.3078427 120.8065408  49.8983513  10.4205206 120.4691330  50.0209911
  11.8776978 120.0748439  50.1352278   7.9366011 110.5133260  43.0181783
   8.4334710 109.7603222  42.6982853   7.1652992 110.5497576  42.4524992
  15.7895768 116.2173625  44.6600074  15.7785644 117.0998341  44.2894007
  14.9213147 115.8645176  44.4654611   9.0195791 119.2704947  40.5920206
   8.0852070 119.3906409  40.4224910   9.1972460 118.3677414  40.3280216
   4.5200979 112.6550643  42.7453467   4.1498767 112.1021683  43.4334373
   5.0160072 112.0508776  42.1928467  12.4068343 115.1122266  41.1270240
  12.8728795 115.9450258  41.0530543  12.8575843 114.6467248  41.8315499
  10.4744574 121.4566087  38.1256392  10.7504418 121.3422682  39.0350266
   9.6049072 121.0583572  38.0868565  10.3785005 107.4802853  45.1661142
   9.4648085 107.7107080  45.3343348  10.8078107 107.5641297  46.0175174
  10.1491464 115.6692745  47.6661036   9.4962914 115.9168652  47.0113488
  10.5271844 114.8556883  47.3323513   6.1979037 116.4112556  54.1527073
   5.5219674 116.3106685  54.8229448   7.0206671 116.2551770  54.6163070
   9.7912694 122.5440741  54.2433343  10.3352598 123.1570699  53.7488298
   9.2099539 123.1020319  54.7600356  10.1405115 123.4670479  47.0027921
   9.1935451 123.3475830  46.9306248  10.4887888 122.5792977  47.0854182
   2.5004689 109.3564618  50.8266163   3.0239091 109.6026915  51.5892472
   2.2817022 110.1884653  50.4069300   1.0113793 111.9141262  39.0612765
   1.3509865 112.4427184  38.3391374   1.4585913 112.2521669  39.8371332
  10.7485671 124.0851754  44.2897146  11.6732218 123.8794615  44.1521597
  10.5800974 123.8368155  45.1986487   3.7057234 110.2978313  48.5115833
   3.3654054 109.4986126  48.9136513   2.9996240 110.5980024  47.9392667
   4.3573706 107.3827626  46.9643156   5.1799775 106.9088104  46.8422047
   4.6011769 108.1618109  47.4641843   2.9981940 110.4115884  37.2606058
   3.7190303 110.7897137  36.7569775   2.3747244 111.1304761  37.3641036
   7.1413063 111.1161033  38.1964390   7.3576677 111.9985671  37.8953219
   6.6607130 110.7247246  37.4670032   1.8812284 114.0746746  44.7735135
   1.7356865 114.3887049  45.6659416   1.4037488 114.6931647  44.2206034
   3.7408667 111.0649294  44.8216025   3.7270236 110.1690388  44.4848322
   4.4581095 111.0719958  45.4554311   5.5934798 111.4986634  46.8669152
   5.3352576 112.4203705  46.8653482   5.0619838 111.1017069  47.5569616
   3.1445563 109.9463675  40.0903595   3.2661474 109.0180321  40.2894482
   2.8547606 109.9602360  39.1781910   6.0136754 107.6318585  43.2270314
   6.0358450 107.6957918  42.2722294   6.4304813 106.7923094  43.4210821
  16.3920378 117.3673844  41.2649537  16.8351524 116.6181170  40.8668660
  15.5146888 117.3583981  40.8823269  11.5256159 123.9204186  36.7456136
  12.2207064 124.5410879  36.9643450  11.8679309 123.0699537  37.0208513
  13.4247582 121.3703891  38.2743466  13.9498906 121.7091164  37.5492786
  13.3369935 120.4350907  38.0906601   2.6286643 111.4595672  54.2993527
   2.6774798 112.3357795  53.9171297   3.1709157 110.9173065  53.7265170
  13.1141488 122.0036795  53.5794664  12.3237032 121.9860934  53.0399164
  12.8774843 122.5425089  54.3343701  13.2339363 118.8529262  50.8927393
  13.2837368 118.6879269  51.8342916  13.1253287 117.9856521  50.5025274
  10.5243126 114.8360190  52.2086700  11.4252989 114.6966654  51.9170697
  10.5991100 115.0014644  53.1484877   4.8585931 112.2127044  51.0539886
   3.9889241 112.5060610  50.7822474   5.0945412 112.7967489  51.7747150
  14.7357560 121.2726203  51.1369414  14.4442369 121.6356184  51.9732875
  14.1229692 120.5593211  50.9582746  15.9353243 118.8379083  43.6571985
  16.7700134 119.2768887  43.8209545  16.0712371 118.3617736  42.8380230
  12.9844749 116.3958818  49.6049472  13.4598870 116.5886464  48.7968324
  12.0610314 116.4518003  49.3592856   7.5624965 108.4306661  48.5705306
   8.0806909 109.1667688  48.2451795   7.2080098 108.7370655  49.4052065
   7.8137559 104.8506944  44.0906203   8.0939313 104.1830133  44.7166629
   8.5988166 105.0436039  43.5780867  11.6846418 113.2724578  47.8377778
  12.6363840 113.3722675  47.8590002  11.5149868 112.4802846  48.3475862
   9.7060797 110.3580161  48.0237179   9.1110729 110.6385174  47.3283668
   9.4210494 110.8474062  48.7953920  14.1634495 116.4930697  46.9520078
  14.1310815 115.5546698  47.1379761  14.7735119 116.5714734  46.2185903
  14.3128984 113.2841741  46.9978361  13.7968032 112.5000197  46.8108290
  15.1968932 112.9560457  47.1624880  11.9739711 107.0282756  42.9574174
  11.7764532 106.7197845  43.8417505  12.5839416 107.7544395  43.0872103
  19.9811045 117.5546704  46.0926114  20.7114434 117.2931992  46.6533818
  19.3717991 116.8175426  46.1328182  18.0626342 115.6954567  46.6900566
  17.3359506 115.5610532  46.0817057  17.6473629 116.0031395  47.4957284
   5.8856519 119.4144497  54.4547939   6.8059528 119.5923096  54.6487985
   5.8506102 118.4700542  54.3027638   5.8022809 107.8313616  39.0846408
   4.9923537 107.4860701  39.4601654   6.4907226 107.5221160  39.6734020
   7.7313357 106.9091663  40.7070705   8.2844396 107.3287117  41.3660728
   7.9683444 105.9827411  40.7493661   3.7546457 112.8978737  56.4873469
   3.6543183 113.8473094  56.4185560   3.5367999 112.5696976  55.6149539
  11.1092164 109.0192188  40.2149369  10.5290833 109.6776992  39.8327422
  10.8428097 108.1969533  39.8036787   9.5595731 108.4197246  42.4170689
  10.0595509 108.5313781  41.6085008  10.2031339 108.1158299  43.0571498
   3.6177727 116.3275876  55.3038530   3.1344808 117.1276236  55.5102419
   3.7038666 116.3383821  54.3505974   9.8917042 111.1792279  39.2705717
   9.0042897 111.4641929  39.0525912  10.3071032 111.0186042  38.4232994
  13.2431579 111.2038800  42.9860057  14.0191969 111.6935252  43.2584673
  12.5179713 111.6296854  43.4431926  15.6804137 111.9166419  44.0433997
  16.2748628 111.6762155  43.3327305  15.7530721 111.1973550  44.6707534
   9.8658066 116.6946815  39.4856008   9.8093268 117.1515366  38.6463640
  10.4186409 115.9337499  39.3078850  13.6762872 112.4836547  40.3106127
  13.4199806 112.0833182  41.1414335  13.0515740 113.1980341  40.1856266
  17.9875210 115.2232620  42.8177418  17.4274768 115.2925809  43.5908980
  17.3818713 115.0473605  42.0976915  10.9446953 121.3819483  35.4152197
  11.7792557 120.9500681  35.2329672  10.7831296 121.2101496  36.3429092
  10.5992846 117.8851596  36.7808537  10.5441649 117.7195867  35.8396981
   9.9738901 118.5927629  36.9370726   7.9138753 120.1900508  56.1062099
   8.7829912 120.3641160  55.7448734   7.4345504 121.0094925  55.9837829
   3.9088971 107.3859705  36.3593855   3.8967641 108.3301545  36.5162126
   4.8012393 107.2029850  36.0653316   7.7241090 103.9802482  40.6139792
   6.9573486 103.4260968  40.7596474   8.1351795 104.0524350  41.4753944
  22.0506344 123.2737395  47.9488169  21.7189669 124.1432806  47.7249384
  21.4551958 122.9573679  48.6282200  23.8096654 126.1948920  46.8059393
  23.1671034 126.4881453  46.1599188  23.3051583 126.0801840  47.6112590
  18.8072793 126.1170129  45.7435113  17.9457272 126.4151382  46.0351851
  18.8335227 126.3340528  44.8116146  12.2864352 123.6767994  55.6974945
  11.8931298 123.1234193  56.3722589  13.1030493 123.9878573  56.0881462
  15.2032313 125.0925873  53.2895201  15.9442027 125.6933026  53.2099664
  15.4350236 124.3503511  52.7313244  19.1489476 121.1206976  47.5659483
  18.8053746 122.0108618  47.4898594  19.5168439 120.9308634  46.7029068
  16.6986870 125.9565288  41.1317156  15.8428466 125.5672138  40.9522795
  17.1113822 126.0357249  40.2716942  18.2286017 123.4911631  45.5308716
  17.7250812 123.4541766  44.7176521  18.5216623 124.4004374  45.5905373
  14.4728902 123.5750361  44.5374898  15.3381899 123.3793170  44.1780787
  14.5406411 123.3460713  45.4644255  14.3813889 122.6793818  40.6366334
  13.7278302 122.3642835  40.0122949  14.3394363 122.0569558  41.3626157
  20.8465515 127.6024283  42.0735451  20.1088271 127.0901670  42.4045694
  21.0992288 127.1624665  41.2618728  20.9477142 120.3800535  42.6677221
  21.2536019 119.5197899  42.3803136  21.6729747 120.9718156  42.4676215
  17.0283770 124.8749767  50.5142498  16.3811685 125.5739716  50.4206974
  17.7984785 125.3085911  50.8818746  18.7759765 125.8425177  43.0181783
  19.2728465 125.0895140  42.6982853  18.0046747 125.8789494  42.4524992
  21.2178760 122.8094771  45.1661142  20.3041840 123.0398998  45.3343348
  21.6471861 122.8933215  46.0175174  15.1967460 122.7119543  46.9643156
  16.0193529 122.2380021  46.8422047  15.4405524 123.4910027  47.4641843
  16.8530508 122.9610503  43.2270314  16.8752205 123.0249836  42.2722294
  17.2698567 122.1215011  43.4210821  18.4018720 123.7598579  48.5705306
  18.9200663 124.4959606  48.2451795  18.0473852 124.0662572  49.4052065
  18.6531314 120.1798861  44.0906203  18.9333067 119.5122050  44.7166629
  19.4381921 120.3727957  43.5780867  20.5454551 125.6872079  48.0237179
  19.9504484 125.9677091  47.3283668  20.2604248 126.1765980  48.7953920
  25.1522738 128.6133659  46.9978361  24.6361787 127.8292115  46.8108290
  26.0362687 128.2852375  47.1624880  22.8133465 122.3574674  42.9574174
  22.6158286 122.0489762  43.8417505  23.4233171 123.0836313  43.0872103
  16.6416564 123.1605534  39.0846408  15.8317292 122.8152619  39.4601654
  17.3300980 122.8513078  39.6734020  18.5707112 122.2383581  40.7070705
  19.1238150 122.6579034  41.3660728  18.8077198 121.3119329  40.7493661
  21.9485919 124.3484106  40.2149369  21.3684588 125.0068910  39.8327422
  21.6821852 123.5261451  39.8036787  20.3989485 123.7489164  42.4170689
  20.8989264 123.8605698  41.6085008  21.0425093 123.4450217  43.0571498
  20.7310797 126.5084197  39.2705717  19.8436652 126.7933847  39.0525912
  21.1464786 126.3477960  38.4232994  24.0825333 126.5330718  42.9860057
  24.8585723 127.0227170  43.2584673  23.3573467 126.9588772  43.4431926
  26.5197892 127.2458337  44.0433997  27.1142383 127.0054073  43.3327305
  26.5924475 126.5265467  44.6707534  24.5156627 127.8128464  40.3106127
  24.2593561 127.4125100  41.1414335  23.8909495 128.5272258  40.1856266
  14.7482725 122.7151623  36.3593855  14.7361395 123.6593463  36.5162126
  15.6406147 122.5321768  36.0653316  18.5634845 119.3094399  40.6139792
  17.7967241 118.7552886  40.7596474  18.9745550 119.3816268  41.4753944
   2.8493416  75.9094108  30.2138867   3.5818588  75.3393325  30.4476697
   2.0932772  75.5215709  30.6545373   2.1309146  72.5427207  33.5304700
   1.4883527  72.8359740  32.8844495   1.6264075  72.4280127  34.3357897
   2.2708124  82.2070636  28.9648504   1.5859162  82.5869538  28.4145538
   2.3551974  82.8165963  29.6980452   0.6404884  82.7302551  33.7366205
   1.4622328  82.3282738  33.4548887   0.6367287  82.6270785  34.6882321
   8.7310877  79.0741299  30.0851177   7.9774585  78.5048697  29.9295181
   8.8658418  79.0403964  31.0321811   2.4086525  80.2126229  24.7330398
   1.6315968  79.8737389  24.2885560   3.0878006  80.2178852  24.0585363
   2.8075022  79.2269936  27.1953320   2.6692921  79.4171532  26.2674509
   2.4511241  79.9889319  27.6521371   2.8344402  81.2946463  32.2064592
   3.2680909  81.2021752  33.0547646   3.5475983  81.2703963  31.5684608
   3.6959952  81.3370163  34.7397477   3.8895842  82.2415974  34.9856752
   3.5960570  80.8777583  35.5736062   4.9502015  77.8943830  31.3845381
   4.9391891  78.7768545  31.0139314   4.0819394  77.5415381  31.1899918
   1.5674589  76.7892471  27.8515547   2.0335042  77.6220463  27.7775850
   2.0182090  76.3237453  28.5560805   5.5526625  79.0444049  27.9894844
   5.9957771  78.2951375  27.5913967   4.6753135  79.0354186  27.6068576
   0.6862406  85.5974391  23.4701442   1.3813311  86.2181084  23.6888757
   1.0285556  84.7469742  23.7453820   2.5853829  83.0474096  24.9988773
   3.1105153  83.3861369  24.2738093   2.4976182  82.1121112  24.8151908
   2.2747735  83.6807000  40.3039971   1.4843279  83.6631139  39.7644470
   2.0381090  84.2195294  41.0589008   2.3945610  80.5299466  37.6172700
   2.4443615  80.3649474  38.5588222   2.2859534  79.6626725  37.2270580
   3.8963807  82.9496408  37.8614721   3.6048615  83.3126388  38.6978182
   3.2835938  82.2363416  37.6828053   5.0959489  80.5149288  30.3817291
   5.9306381  80.9539092  30.5454852   5.2318618  80.0387941  29.5625537
   2.1450995  78.0729023  36.3294779   2.6205117  78.2656669  35.5213630
   1.2216561  78.1288208  36.0838163   0.8452664  74.9494783  34.5623085
   1.7970087  75.0492880  34.5835309   0.6756115  74.1573051  35.0721169
   3.3240742  78.1700902  33.6765384   3.2917062  77.2316903  33.8625068
   3.9341366  78.2484939  32.9431209   3.4735231  74.9611946  33.7223667
   2.9574279  74.1770402  33.5353596   4.3575179  74.6330662  33.8870187
   1.1345957  68.7052961  29.6819480   0.9370779  68.3968050  30.5662812
   1.7445663  69.4314600  29.8117410   9.1417292  79.2316909  32.8171421
   9.8720680  78.9702197  33.3779124   8.5324237  78.4945631  32.8573489
   7.2232589  77.3724772  33.4145872   6.4965753  77.2380737  32.8062364
   6.8079876  77.6801600  34.2202590   2.4037825  72.8809005  29.7105363
   3.1798215  73.3705457  29.9829980   1.6785960  73.3067059  30.1677233
   4.8410384  73.5936624  30.7679304   5.4354875  73.3532360  30.0572612
   4.9136968  72.8743755  31.3952840   2.8369119  74.1606752  27.0351434
   2.5806053  73.7603387  27.8659641   2.2121987  74.8750546  26.9101573
   7.1481457  76.9002825  29.5422725   6.5881015  76.9696014  30.3154287
   6.5424960  76.7243809  28.8222221   8.7337475  93.5759339  32.2352681
   9.3715885  93.4566086  31.5316021   8.6158318  94.5240183  32.2940633
   5.5427181  93.5286767  32.1714206   5.2045693  93.4127832  31.2834740
   6.4116950  93.1277932  32.1515212   1.4013997  95.3822243  28.1611096
   0.8378862  95.2912180  27.3927384   1.2866392  94.5622148  28.6413589
   6.0246964  94.6821619  38.1300411   6.0135605  94.2874417  37.2580915
   6.1867604  93.9487691  38.7234182   2.7454226  97.4658730  37.0779595
   2.4544092  98.3704361  36.9626261   3.3811210  97.5075258  37.7923665
   3.6710432  94.8435579  33.6680955   4.2674005  94.6191601  32.9537918
   3.7285404  94.1020324  34.2706403   8.2878744  91.3010793  29.3105889
   9.0741833  90.8830216  28.9596306   8.5517448  92.2056885  29.4787537
   8.4588821  96.7383643  24.0094546   7.8234654  96.8118269  24.7215450
   8.1286227  97.3277242  23.3313625  13.6887171  91.2386026  30.2138867
  14.4212343  90.6685243  30.4476697  12.9326527  90.8507626  30.6545373
   5.3063291  93.6613267  27.4102210   4.9421498  93.1343888  28.1215131
   6.1630406  93.2711736  27.2368695  11.2112591  84.9507600  34.6733476
  10.8795916  85.8203011  34.4494691  10.6158205  84.6343884  35.3527506
   4.9468778  88.6903167  22.4063558   5.1143180  89.5583403  22.7734029
   4.7565947  88.8530449  21.4824848   7.7044111  97.1520146  34.0729389
   7.4044834  98.0545185  33.9645196   7.3595170  96.8852329  34.9250542
  11.1041254  89.6702686  31.7526826  10.1958132  89.6018095  31.4585587
  11.0528850  90.1474631  32.5808651   4.9257998  91.1460824  23.3910225
   4.8057624  91.5917875  24.2295705   4.2310587  91.4946142  22.8323763
   5.1782120  91.0892332  39.6961723   4.4015454  91.6486252  39.6864588
   5.8172683  91.5749115  40.2176593  12.9702901  87.8719124  33.5304700
  12.3277281  88.1651658  32.8844495  12.4657829  87.7572045  34.3357897
  10.6243065  91.6182298  24.2190559  11.5360921  91.8509684  24.0438257
  10.1152712  92.2019342  23.6565638   3.4328493  93.8977785  39.2579690
   4.1743177  94.4362829  38.9814514   2.7265478  94.5244074  39.4151242
   8.9083832  96.0406925  37.8551852   9.3167188  95.5989336  37.1106484
   8.1861094  95.4659553  38.1086045   5.2614902  90.9779532  35.2285409
   6.1076097  91.4018946  35.3720058   5.2013540  90.3213157  35.9223972
   9.2312647  96.6008116  31.6104141   8.6021509  96.7653830  30.9080209
   8.8438309  97.0149726  32.3815105  13.1101879  97.5362554  28.9648504
  12.4252917  97.9161455  28.4145538  13.1945728  98.1457881  29.6980452
   8.4114348  88.6383901  36.8866582   8.1675279  89.3925961  36.3500858
   8.6874278  89.0169248  37.7213829  10.3652810  95.1822513  35.5643848
  10.5769706  95.8254273  34.8878229  10.3182559  94.3484830  35.0965778
   7.9679039  87.7940334  32.4680420   7.1063518  88.0921587  32.7597158
   7.9941474  88.0110733  31.5361453   4.7840609  96.3382524  28.8754226
   5.2478954  96.6170227  28.0858848   4.5197407  95.4365969  28.6927316
   1.6764690  95.8854006  31.8133989   2.2466047  96.3141274  31.1751474
   2.2672802  95.6036590  32.5118175   3.7209495  92.4605677  25.6843791
   4.4233538  92.9126720  26.1517717   3.3890123  91.8189495  26.3123684
   2.1689856  91.0517433  40.0595000   1.5388517  91.7333714  40.2930397
   2.0625944  90.9400515  39.1148139  11.4798638  98.0594468  33.7366205
  12.3016082  97.6574656  33.4548887  11.4761041  97.9562703  34.6882321
   5.2455242  97.6078512  35.8926916   5.3099674  98.0698919  36.7285088
   4.5366166  96.9775877  36.0209226  19.5704631  94.4033217  30.0851177
  18.8168340  93.8340615  29.9295181  19.7052173  94.3695881  31.0321811
   1.4470599  85.3538199  42.4220251   1.0537545  84.8004398  43.0967896
   2.2636739  85.6648778  42.8126769   4.3638560  86.7696078  40.0140508
   5.1048273  87.3703231  39.9344970   4.5956483  86.0273716  39.4558550
   6.5871736  99.8970186  39.8906238   6.1435590  99.1106564  39.5727143
   7.2488949 100.0849336  39.2250129   1.3458857 101.4265987  34.4166917
   1.8966282 101.2983051  33.6443911   0.5070333 101.7260876  34.0661810
   8.6852974 100.1772986  37.9187639   8.6671449 100.9981867  37.4267909
   9.6072894 100.0527061  38.1437781   5.1426028  97.6917115  38.7611148
   5.6754365  96.9305403  38.5310456   4.6140109  97.3990767  39.5035302
   8.3095723  82.7977181  34.2904790   7.9659992  83.6878823  34.2143900
   8.6774686  82.6078839  33.4274375   8.2746006  92.7885792  22.7977225
   7.7592629  93.5590397  23.0365612   8.0023314  92.1150928  23.4210286
   5.8593117  87.6335493  27.8562463   5.0034713  87.2442343  27.6768102
   6.2720068  87.7127454  26.9962249   7.3892263  85.1681836  32.2554023
   6.8857059  85.1311971  31.4421828   7.6822870  86.0774579  32.3150679
   3.6335149  85.2520566  31.2620205   4.4988146  85.0563375  30.9026094
   3.7012658  85.0230918  32.1889561  13.2480280  95.5418147  24.7330398
  12.4709723  95.2029306  24.2885560  13.9271761  95.5470770  24.0585363
   8.0632309  90.6612884  24.6237006   7.7582444  90.9759033  25.4747149
   9.0162751  90.7394304  24.6664339   6.5078741  96.8203108  26.2729960
   5.9800102  96.0855867  25.9603197   6.0066243  97.5977784  26.0269928
  11.4871587  95.0152128  31.3897006  10.8295261  95.7051389  31.4777135
  12.2911986  95.4048560  31.7330993   1.2397468  87.4822774  28.6336571
   1.8141220  87.2597955  27.9009764   1.8268451  87.5511468  29.3865173
  10.2977046  93.3696501  29.4400948  10.8108927  94.0026493  29.9422658
  10.9478269  92.7697696  29.0744308   3.5420136  84.3564023  27.3611641
   2.8884548  84.0413040  26.7368256   3.5000610  83.7339763  28.0871464
   6.7757876  90.8445956  31.6859288   5.8580438  91.0660903  31.5280976
   7.1918020  90.9192267  30.8270996   7.5592924  92.2437372  26.8161969
   8.3064743  92.7558769  26.5069091   7.8284514  91.9221425  27.6766362
   5.8319574  94.7395913  23.7988923   4.9230794  94.4554946  23.8961393
   5.8614658  95.1594991  22.9392230  11.0638842  98.3502502  27.5680091
  10.6101169  97.5093412  27.6245281  10.4332808  98.9863901  27.9054871
  10.0071761  89.2794488  28.7980758   9.2694518  88.7671874  29.1291001
  10.2598535  88.8394870  27.9864035   9.5071781 100.1878999  28.5029909
   9.7994755 100.7484056  27.7842274  10.0170402 100.4807560  29.2583068
  10.1083389  82.0570740  29.3922527  10.4142265  81.1968104  29.1048442
  10.8335993  82.6488360  29.1921521   4.3804468  92.3524533  29.8998718
   4.4353078  91.3998370  29.8241195   3.5695670  92.5083972  30.3840017
   2.3196828  90.9701593  27.6589097   1.5064694  91.2695764  28.0654289
   2.8155822  90.5757282  28.3763579   4.4705406 100.9659350  29.5923362
   4.4281585 101.1920196  28.6631894   5.3868105 100.7322725  29.7409163
   7.9171040  91.4343418  36.4903991   8.2720428  91.6614891  37.3498457
   8.5643171  91.7661794  35.8681246  13.6468777  94.5561853  27.1953320
  13.5086675  94.7463449  26.2674509  13.2904996  95.3181236  27.6521371
   1.8110903  88.5419949  33.2750332   2.4510282  88.4008708  32.5773295
   0.9788434  88.2554462  32.8988934  13.6738157  96.6238380  32.2064592
  14.1074663  96.5313670  33.0547646  14.3869737  96.5995881  31.5684608
   2.5871207  97.8422379  29.3885325   3.3811805  97.3472699  29.1867900
   1.8762899  97.3140242  29.0253030   7.4066051 100.2240475  33.7397692
   7.4603074 100.7931411  34.5075408   6.5380833 100.3942360  33.3751729
  14.5353706  96.6662081  34.7397477  14.7289596  97.5707892  34.9856752
  14.4354324  96.2069500  35.5736062   6.1890017  86.5519972  37.2387804
   5.5417932  87.2509921  37.1452281   6.9591032  86.9856116  37.6064053
   9.5968815  96.8168824  40.3138358   9.4454321  96.5879376  39.3968441
   9.5873494  97.7739425  40.3269703   6.3654151  94.3900737  35.2984624
   7.2946211  94.5411896  35.1253591   5.9445181  94.4784757  34.4433271
   5.1642483  98.4151401  33.0683162   5.0253569  98.0470185  33.9409100
   4.3757079  98.9299040  32.8967119   6.7147698  97.7933004  30.4571999
   6.3797531  97.7533774  31.3529649   6.2151644  97.1277720  29.9842410
   0.6891942  93.2000634  35.9824581   0.5511740  92.4680873  36.5836120
   1.5996866  93.1109534  35.7008768   3.3174243  92.9120593  35.4708260
   4.0273861  92.2713785  35.4294879   3.2743551  93.1633488  36.3934441
  11.3061021  99.8487946  38.3914839  11.2473568  99.1647167  37.7245423
  11.7080540 100.5906936  37.9395465   2.0303177  89.8985811  37.2903900
   1.4940534  89.4476549  37.9425496   1.4419885  90.0331720  36.5474364
  11.3078429  97.8127530  36.6228819  10.4205207  97.4753452  36.7455218
  11.8776980  97.0810562  36.8597585   4.8379582 102.4728983  33.5890062
   4.7649754 103.2783954  34.1009367   4.3956975 102.6720949  32.7638084
   7.9366012  87.5195382  29.7427089   8.4334711  86.7665345  29.4228160
   7.1652993  87.5559699  29.1770299  15.7895769  93.2235748  31.3845381
  15.7785645  94.1060463  31.0139314  14.9213149  92.8707299  31.1899918
   7.2978266 102.3715817  35.7448221   8.0106238 103.0063282  35.6724122
   6.8068294 102.4679683  34.9288223   9.0195792  96.2767069  27.3165513
   8.0852071  96.3968532  27.1470217   9.1972461  95.3739536  27.0525523
   4.5200981  89.6612765  29.4698774   4.1498768  89.1083806  30.1579679
   5.0160073  89.0570899  28.9173774  12.4068344  92.1184389  27.8515547
  12.8728796  92.9512380  27.7775850  12.8575844  91.6529370  28.5560805
   2.3490179 100.1210260  36.5653792   3.0499639 100.7546743  36.7183186
   1.8785294 100.4624992  35.8049431  10.4744575  98.4628210  24.8501699
  10.7504419  98.3484805  25.7595573   9.6049074  98.0645695  24.8113872
  10.3785007  84.4864976  31.8906448   9.4648086  84.7169203  32.0588655
  10.8078108  84.5703420  32.7420481  10.1491465  92.6754868  34.3906342
   9.4962915  92.9230775  33.7358795  10.5271845  91.8619006  34.0568819
   7.1098639 102.7114561  28.4934513   7.2921033 101.8936217  28.9562265
   7.9331625 102.9282253  28.0559402   7.4440804 101.6382746  25.7549561
   7.9728571 101.1275201  25.1419723   7.7069024 101.3225276  26.6195094
   6.1979038  93.4174679  40.8772379   5.5219675  93.3168808  41.5474755
   7.0206672  93.2613892  41.3408377   4.9401821 104.7241606  35.1129995
   5.4920129 104.8873228  35.8779081   5.2808014 105.3146044  34.4410020
   9.7912695  99.5502864  40.9678650  10.3352599 100.1632822  40.4733605
   9.2099540 100.1082442  41.4845663   8.0770208 102.6723582  32.0993677
   7.9521348 101.8713322  31.5904623   8.7349299 103.1669775  31.6107647
  10.1405117 100.4732602  33.7273228   9.1935452 100.3537953  33.6551554
  10.4887890  99.5855100  33.8099489   2.5004690  86.3626741  37.5511469
   3.0239092  86.6089037  38.3137779   2.2817023  87.1946775  37.1314607
   7.1451550 100.2685318  29.9277580   6.9976512  99.3402025  30.1085150
   7.9705043 100.2905409  29.4434655   1.0113794  88.9203385  25.7858072
   1.3509867  89.4489306  25.0636680   1.4585915  89.2583791  26.5616638
  10.7485672 101.0913877  31.0142453  11.6732219 100.8856738  30.8766904
  10.5800975 100.8430278  31.9231794   3.7057235  87.3040436  35.2361140
   3.3654055  86.5048249  35.6381820   2.9996241  87.6042147  34.6637973
   4.3573707  84.3889748  33.6888463   5.1799776  83.9150226  33.5667353
   4.6011770  85.1680232  34.1887149   2.9981941  87.4178007  23.9851365
   3.7190304  87.7959259  23.4815082   2.3747245  88.1366883  24.0886343
   7.1413064  88.1223156  24.9209697   7.3576679  89.0047793  24.6198525
   6.6607131  87.7309369  24.1915339   1.8812286  91.0808869  31.4980442
   1.7356866  91.3949172  32.3904723   1.4037489  91.6993769  30.9451340
   3.7408669  88.0711417  31.5461331   3.7270237  87.1752510  31.2093629
   4.4581097  88.0782081  32.1799617   5.5934799  88.5048757  33.5914459
   5.3352577  89.4265828  33.5898789   5.0619840  88.1079192  34.2814923
  10.5380988 101.6099544  26.3704544  10.7117866 101.0445967  25.6178396
  11.0309879 102.4100439  26.1884034   3.1445564  86.9525797  26.8148901
   3.2661476  86.0242443  27.0139789   2.8547607  86.9664483  25.9027217
   6.0136755  84.6380708  29.9515621   6.0358452  84.7020041  28.9967601
   6.4304814  83.7985216  30.1456127  16.3920379  94.3735967  27.9894844
  16.8351525  93.6243292  27.5913967  15.5146889  94.3646103  27.6068576
  11.5256160 100.9266309  23.4701442  12.2207065 101.5473001  23.6888757
  11.8679311 100.0761660  23.7453820  13.4247584  98.3766014  24.9988773
  13.9498908  98.7153287  24.2738093  13.3369936  97.4413029  24.8151908
   5.0867632 102.2900088  37.1278650   5.3954759 102.0449234  38.0001349
   5.8843114 102.4946726  36.6397520   5.1088244 104.4437997  29.3584026
   4.6693235 103.9514376  30.0516883   5.8596361 103.9010965  29.1176101
   2.5562117  99.9876006  31.4306328   1.9342126  99.3246711  31.1308556
   3.2266983 100.0137138  30.7479976   2.6286644  88.4657794  41.0238834
   2.6774799  89.3419917  40.6416603   3.1709158  87.9235188  40.4510477
  13.1141490  99.0098918  40.3039971  12.3237033  98.9923057  39.7644470
  12.8774844  99.5487211  41.0589008  13.2339365  95.8591384  37.6172700
  13.2837370  95.6941392  38.5588222  13.1253288  94.9918643  37.2270580
  10.5243127  91.8422312  38.9332006  11.4252990  91.7028777  38.6416004
  10.5991102  92.0076767  39.8730184   4.8585932  89.2189167  37.7785193
   3.9889242  89.5122733  37.5067781   5.0945413  89.8029612  38.4992456
  14.7357562  98.2788326  37.8614721  14.4442370  98.6418306  38.6978182
  14.1229693  97.5655334  37.6828053  15.9353244  95.8441205  30.3817291
  16.7700135  96.2831009  30.5454852  16.0712373  95.3679859  29.5625537
  12.9844750  93.4020940  36.3294779  13.4598871  93.5948587  35.5213630
  12.0610315  93.4580126  36.0838163   7.5624966  85.4368784  35.2950613
   8.0806910  86.1729811  34.9697102   7.2080099  85.7432777  36.1297372
   7.8137560  81.8569066  30.8151510   8.0939314  81.1892255  31.4411936
   8.5988167  82.0498162  30.3026173  11.6846419  90.2786700  34.5623085
  12.6363842  90.3784798  34.5835309  11.5149869  89.4864969  35.0721169
   9.7060798  87.3642284  34.7482486   9.1110730  87.6447296  34.0528974
   9.4210495  87.8536184  35.5199227  14.1634497  93.4992820  33.6765384
  14.1310817  92.5608821  33.8625068  14.7735120  93.5776857  32.9431209
  14.3128985  90.2903863  33.7223667  13.7968034  89.5062320  33.5353596
  15.1968934  89.9622580  33.8870187  11.9739712  84.0344879  29.6819480
  11.7764533  83.7259967  30.5662812  12.5839418  84.7606518  29.8117410
  19.9811046  94.5608827  32.8171421  20.7114435  94.2994115  33.3779124
  19.3717992  93.8237549  32.8573489  18.0626344  92.7016689  33.4145872
  17.3359507  92.5672654  32.8062364  17.6473630  93.0093518  34.2202590
   5.8856520  96.4206619  41.1793245   6.8059529  96.5985218  41.3733292
   5.8506103  95.4762664  41.0272945   5.8022810  84.8375739  25.8091715
   4.9923539  84.4922824  26.1846961   6.4907227  84.5283283  26.3979326
   7.7313359  83.9153786  27.4316011   8.2844397  84.3349239  28.0906035
   7.9683445  82.9889534  27.4738968   3.7546458  89.9040860  43.2118775
   3.6543185  90.8535217  43.1430866   3.5368000  89.5759098  42.3394845
  11.1092166  86.0254311  26.9394676  10.5290835  86.6839115  26.5572728
  10.8428098  85.2031656  26.5282093   9.5595732  85.4259369  29.1415996
  10.0595510  85.5375903  28.3330315  10.2031340  85.1220422  29.7816805
   3.6177728  93.3337998  42.0283837   3.1344810  94.1338358  42.2347726
   3.7038667  93.3445943  41.0751281   9.8917044  88.1854401  25.9951024
   9.0042899  88.4704052  25.7771219  10.3071033  88.0248165  25.1478301
  13.2431580  88.2100922  29.7105363  14.0191970  88.6997375  29.9829980
  12.5179714  88.6358977  30.1677233  15.6804138  88.9228542  30.7679304
  16.2748629  88.6824278  30.0572612  15.7530722  88.2035672  31.3952840
   9.8658067  93.7008937  26.2101314   9.8093269  94.1577489  25.3708947
  10.4186410  92.9399622  26.0324157  13.6762873  89.4898669  27.0351434
  13.4199808  89.0895305  27.8659641  13.0515741  90.2042463  26.9101573
  17.9875211  92.2294742  29.5422725  17.4274769  92.2987932  30.3154287
  17.3818715  92.0535727  28.8222221  10.9446955  98.3881605  22.1397504
  11.7792559  97.9562804  21.9574979  10.7831297  98.2163619  23.0674399
  10.5992847  94.8913719  23.5053843  10.5441651  94.7257990  22.5642287
   9.9738902  95.5989752  23.6616033   7.9138754  97.1962630  42.8307406
   8.7829914  97.3703283  42.4694041   7.4345505  98.0157047  42.7083135
   3.9088972  84.3921828  23.0839162   3.8967642  85.3363668  23.2407433
   4.8012394  84.2091973  22.7898623   2.0824934 104.3159731  34.5096840
   2.9852181 104.3483342  34.8263335   1.8562304 103.3860182  34.5243176
   3.8378536 103.0690718  31.1706918   2.8874167 103.0692580  31.0571291
   4.1411022 102.3223453  30.6542953   7.7241092  80.9864604  27.3385099
   6.9573487  80.4323091  27.4841781   8.1351797  81.0586473  28.1999250
  19.5731230 108.9051256  32.2352681  20.2109640 108.7858004  31.5316021
  19.4552073 109.8532100  32.2940633  16.3820936 108.8578685  32.1714206
  16.0439447 108.7419749  31.2834740  17.2510704 108.4569850  32.1515212
  12.2407752 110.7114161  28.1611096  11.6772617 110.6204098  27.3927384
  12.1260147 109.8914065  28.6413589  16.8640719 110.0113536  38.1300411
  16.8529360 109.6166335  37.2580915  17.0261358 109.2779609  38.7234182
   9.7872184 112.2065353  30.9995317  10.5793476 111.8656177  30.5841616
  10.0268834 112.3160328  31.9197470  13.5847980 112.7950648  37.0779595
  13.2937846 113.6996279  36.9626261  14.2204964 112.8367176  37.7923665
  14.5104187 110.1727497  33.6680955  15.1067759 109.9483519  32.9537918
  14.5679158 109.4312242  34.2706403  19.1272498 106.6302710  29.3105889
  19.9135587 106.2122133  28.9596306  19.3911202 107.5348802  29.4787537
  19.2982576 112.0675561  24.0094546  18.6628408 112.1410187  24.7215450
  18.9679982 112.6569159  23.3313625  24.5280925 106.5677943  30.2138867
  25.2606097 105.9977160  30.4476697  23.7720281 106.1799544  30.6545373
  16.1457045 108.9905185  27.4102210  15.7815252 108.4635806  28.1215131
  17.0024161 108.6003654  27.2368695  22.0506346 100.2799518  34.6733476
  21.7189670 101.1494929  34.4494691  21.4551959  99.9635802  35.3527506
  15.7862532 104.0195085  22.4063558  15.9536934 104.8875321  22.7734029
  15.5959701 104.1822366  21.4824848  18.5437865 112.4812064  34.0729389
  18.2438588 113.3837102  33.9645196  18.1988925 112.2144247  34.9250542
  11.9950347 108.9325860  30.1066093  11.0700843 108.8002075  30.3143785
  12.2434760 109.7120080  30.6036036  21.9435009 104.9994604  31.7526826
  21.0351886 104.9310012  31.4585587  21.8922605 105.4766549  32.5808651
  15.7651753 106.4752742  23.3910225  15.6451378 106.9209793  24.2295705
  15.0704341 106.8238060  22.8323763   9.3559158 108.5759134  30.9409882
   9.4851539 108.8293613  31.8549294   8.6756609 109.1686842  30.6214537
  16.0175875 106.4184249  39.6961723  15.2409209 106.9778169  39.6864588
  16.6566438 106.9041032  40.2176593  23.8096655 103.2011042  33.5304700
  23.1671036 103.4943575  32.8844495  23.3051584 103.0863962  34.3357897
  21.4636819 106.9474215  24.2190559  22.3754675 107.1801602  24.0438257
  20.9546466 107.5311260  23.6565638  14.2722247 109.2269703  39.2579690
  15.0136931 109.7654747  38.9814514  13.5659233 109.8535991  39.4151242
  19.7477587 111.3698843  37.8551852  20.1560943 110.9281254  37.1106484
  19.0254848 110.7951471  38.1086045  16.1008657 106.3071450  35.2285409
  16.9469852 106.7310863  35.3720058  16.0407294 105.6505074  35.9223972
  20.0706401 111.9300034  31.6104141  19.4415264 112.0945748  30.9080209
  19.6832063 112.3441643  32.3815105  23.9495633 112.8654472  28.9648504
  23.2646671 113.2453373  28.4145538  24.0339483 113.4749798  29.6980452
  19.2508102 103.9675818  36.8866582  19.0069034 104.7217879  36.3500858
  19.5268033 104.3461166  37.7213829  21.2046565 110.5114431  35.5643848
  21.4163460 111.1546191  34.8878229  21.1576313 109.6776747  35.0965778
  18.8072794 103.1232251  32.4680420  17.9457273 103.4213505  32.7597158
  18.8335228 103.3402650  31.5361453  15.6234363 111.6674442  28.8754226
  16.0872709 111.9462145  28.0858848  15.3591161 110.7657886  28.6927316
  12.5158444 111.2145923  31.8133989  13.0859801 111.6433192  31.1751474
  13.1066556 110.9328508  32.5118175  14.5603249 107.7897594  25.6843791
  15.2627293 108.2418638  26.1517717  14.2283878 107.1481413  26.3123684
  13.0083611 106.3809351  40.0595000  12.3782271 107.0625632  40.2930397
  12.9019699 106.2692432  39.1148139   8.3028583 106.0481147  30.9860924
   7.5127637 106.3038675  30.5101035   8.7939831 106.8629485  31.0912965
  22.3192393 113.3886386  33.7366205  23.1409837 112.9866573  33.4548887
  22.3154796 113.2854620  34.6882321  10.2543329 106.4125726  27.9444401
   9.4574492 106.5244420  28.4627897  10.0268921 106.7512378  27.0785292
  16.0848996 112.9370429  35.8926916  16.1493429 113.3990837  36.7285088
  15.3759920 112.3067794  36.0209226   6.5866286 106.3011637  33.4175915
   6.8374325 107.1858647  33.6833491   7.1225835 106.1216239  32.6451007
  30.4098386 109.7325135  30.0851177  29.6562094 109.1632533  29.9295181
  30.5445927 109.6987799  31.0321811  12.2864354 100.6830117  42.4220251
  11.8931299 100.1296315  43.0967896  13.1030494 100.9940695  42.8126769
  15.2032315 102.0987996  40.0140508  15.9442028 102.6995149  39.9344970
  15.4350237 101.3565634  39.4558550  10.3473653 107.2844363  38.2918738
  10.2327168 106.3829620  38.5925836   9.4918170 107.5308060  37.9403554
  17.4265490 115.2262103  39.8906238  16.9829344 114.4398482  39.5727143
  18.0882704 115.4141254  39.2250129  12.1852611 116.7557905  34.4166917
  12.7360037 116.6274968  33.6443911  11.3464087 117.0552794  34.0661810
  19.5246728 115.5064903  37.9187639  19.5065204 116.3273784  37.4267909
  20.4466648 115.3818979  38.1437781  15.9819782 113.0209033  38.7611148
  16.5148119 112.2597321  38.5310456  15.4533864 112.7282685  39.5035302
  19.1489477  98.1269099  34.2904790  18.8053747  99.0170740  34.2143900
  19.5168440  97.9370756  33.4274375  19.1139760 108.1177710  22.7977225
  18.5986384 108.8882315  23.0365612  18.8417069 107.4442846  23.4210286
  16.6986871 102.9627411  27.8562463  15.8428468 102.5734261  27.6768102
  17.1113823 103.0419371  26.9962249  18.2286018 100.4973754  32.2554023
  17.7250813 100.4603889  31.4421828  18.5216625 101.4066497  32.3150679
  14.4728904 100.5812484  31.2620205  15.3381900 100.3855292  30.9026094
  14.5406413 100.3522835  32.1889561  24.0874034 110.8710065  24.7330398
  23.3103477 110.5321224  24.2885560  24.7665515 110.8762688  24.0585363
  18.9026063 105.9904802  24.6237006  18.5976199 106.3050951  25.4747149
  19.8556505 106.0686222  24.6664339  17.3472495 112.1495025  26.2729960
  16.8193857 111.4147785  25.9603197  16.8459998 112.9269702  26.0269928
  22.3265341 110.3444046  31.3897006  21.6689016 111.0343307  31.4777135
  23.1305740 110.7340478  31.7330993  12.0791223 102.8114692  28.6336571
  12.6534975 102.5889873  27.9009764  12.6662205 102.8803386  29.3865173
  21.1370800 108.6988418  29.4400948  21.6502682 109.3318410  29.9422658
  21.7872024 108.0989614  29.0744308  14.3813891  99.6855940  27.3611641
  13.7278303  99.3704958  26.7368256  14.3394365  99.0631681  28.0871464
  17.6151631 106.1737874  31.6859288  16.6974192 106.3952821  31.5280976
  18.0311775 106.2484184  30.8270996  18.3986679 107.5729290  26.8161969
  19.1458498 108.0850687  26.5069091  18.6678268 107.2513342  27.6766362
  16.6713329 110.0687830  23.7988923  15.7624548 109.7846863  23.8961393
  16.7008413 110.4886909  22.9392230  21.9032596 113.6794420  27.5680091
  21.4494923 112.8385330  27.6245281  21.2726563 114.3155818  27.9054871
  20.8465516 104.6086406  28.7980758  20.1088273 104.0963792  29.1291001
  21.0992289 104.1686788  27.9864035  20.3465535 115.5170917  28.5029909
  20.6388510 116.0775974  27.7842274  20.8564156 115.8099478  29.2583068
  20.9477143  97.3862658  29.3922527  21.2536020  96.5260021  29.1048442
  21.6729748  97.9780278  29.1921521  15.2198223 107.6816451  29.8998718
  15.2746833 106.7290287  29.8241195  14.4089425 107.8375890  30.3840017
  13.1590583 106.2993511  27.6589097  12.3458448 106.5987681  28.0654289
  13.6549577 105.9049200  28.3763579  15.3099161 116.2951268  29.5923362
  15.2675339 116.5212114  28.6631894  16.2261860 116.0614642  29.7409163
  18.7564794 106.7635335  36.4903991  19.1114182 106.9906808  37.3498457
  19.4036926 107.0953712  35.8681246  24.4862531 109.8853771  27.1953320
  24.3480430 110.0755367  26.2674509  24.1298750 110.6473154  27.6521371
  12.6504658 103.8711866  33.2750332  13.2904037 103.7300625  32.5773295
  11.8182188 103.5846380  32.8988934  24.5131911 111.9530298  32.2064592
  24.9468418 111.8605587  33.0547646  25.2263492 111.9287799  31.5684608
  13.4264961 113.1714297  29.3885325  14.2205560 112.6764617  29.1867900
  12.7156654 112.6432160  29.0253030  18.2459806 115.5532392  33.7397692
  18.2996828 116.1223329  34.5075408  17.3774587 115.7234277  33.3751729
   9.6533274 103.8412191  28.0523319   9.9140091 104.7557525  27.9432479
  10.4750446 103.3736634  28.2019932  11.1258199 105.2549948  35.2222143
  11.7981253 105.0467311  34.5734792  10.2987986 105.0572034  34.7827376
  25.3747461 111.9953999  34.7397477  25.5683351 112.8999809  34.9856752
  25.2748079 111.5361418  35.5736062  17.0283771 101.8811889  37.2387804
  16.3811686 102.5801839  37.1452281  17.7984787 102.3148033  37.6064053
  20.4362569 112.1460742  40.3138358  20.2848076 111.9171293  39.3968441
  20.4267249 113.1031343  40.3269703  17.2047906 109.7192654  35.2984624
  18.1339966 109.8703814  35.1253591  16.7838936 109.8076675  34.4433271
  16.0036237 113.7443319  33.0683162  15.8647323 113.3762103  33.9409100
  15.2150834 114.2590958  32.8967119  17.5541453 113.1224921  30.4571999
  17.2191285 113.0825691  31.3529649  17.0545398 112.4569637  29.9842410
  11.5285697 108.5292551  35.9824581  11.3905494 107.7972790  36.5836120
  12.4390620 108.4401452  35.7008768  14.1567997 108.2412511  35.4708260
  14.8667616 107.6005703  35.4294879  14.1137305 108.4925406  36.3934441
  22.1454776 115.1779864  38.3914839  22.0867322 114.4939084  37.7245423
  22.5474294 115.9198854  37.9395465  12.8696931 105.2277729  37.2903900
  12.3334288 104.7768467  37.9425496  12.2813640 105.3623637  36.5474364
  22.1472183 113.1419448  36.6228819  21.2598962 112.8045370  36.7455218
  22.7170734 112.4102479  36.8597585   8.6036052 104.3633736  34.3756894
   8.5194241 103.7559406  33.6407304   7.7818759 104.8542755  34.3766391
  15.6773337 117.8020900  33.5890062  15.6043508 118.6075872  34.1009367
  15.2350730 118.0012866  32.7638084  18.7759766 102.8487300  29.7427089
  19.2728466 102.0957262  29.4228160  18.0046748 102.8851617  29.1770299
  26.6289524 108.5527665  31.3845381  26.6179400 109.4352381  31.0139314
  25.7606903 108.1999216  31.1899918  18.1372020 117.7007734  35.7448221
  18.8499992 118.3355199  35.6724122  17.6462049 117.7971600  34.9288223
  19.8589547 111.6058987  27.3165513  18.9245826 111.7260450  27.1470217
  20.0366215 110.7031454  27.0525523  15.3594735 104.9904683  29.4698774
  14.9892523 104.4375723  30.1579679  15.8553827 104.3862816  28.9173774
  23.2462098 107.4476306  27.8515547  23.7122551 108.2804298  27.7775850
  23.6969599 106.9821288  28.5560805  13.1883934 115.4502178  36.5653792
  13.8893393 116.0838661  36.7183186  12.7179049 115.7916909  35.8049431
  21.3138329 113.7920128  24.8501699  21.5898173 113.6776722  25.7595573
  20.4442828 113.3937612  24.8113872  21.2178761  99.8156893  31.8906448
  20.3041841 100.0461120  32.0588655  21.6471863  99.8995337  32.7420481
  20.9885220 108.0046785  34.3906342  20.3356670 108.2522693  33.7358795
  21.3665599 107.1910923  34.0568819  17.9492393 118.0406478  28.4934513
  18.1314788 117.2228134  28.9562265  18.7725379 118.2574171  28.0559402
  18.2834559 116.9674664  25.7549561  18.8122325 116.4567118  25.1419723
  18.5462779 116.6517194  26.6195094  17.0372793 108.7466596  40.8772379
  16.3613430 108.6460726  41.5474755  17.8600426 108.5905810  41.3408377
   8.7851652 114.9838533  33.4984895   9.3705088 114.2382221  33.6312799
   8.5876490 115.2942490  34.3821558  15.7795575 120.0533524  35.1129995
  16.3313884 120.2165145  35.8779081  16.1201769 120.6437962  34.4410020
  10.7560069 102.4008674  35.7151880  10.8201395 103.2623505  35.3029278
  10.6927189 101.7882675  34.9824239  10.2312341 104.4731806  39.3624914
  10.8584380 104.0908883  39.9762439   9.3740260 104.2546008  39.7280607
  20.6306450 114.8794781  40.9678650  21.1746354 115.4924740  40.4733605
  20.0493295 115.4374360  41.4845663  18.9163963 118.0015499  32.0993677
  18.7915102 117.2005239  31.5904623  19.5743054 118.4961693  31.6107647
  10.5372131 104.3564232  31.2770818   9.8158717 104.9700200  31.1378291
  11.3265387 104.8921997  31.1987464  20.9798871 115.8024519  33.7273228
  20.0329207 115.6829871  33.6551554  21.3281644 114.9147017  33.8099489
  13.3398445 101.6918658  37.5511469  13.8632846 101.9380955  38.3137779
  13.1210778 102.5238693  37.1314607  17.9845304 115.5977236  29.9277580
  17.8370267 114.6693943  30.1085150  18.8098798 115.6197326  29.4434655
  11.8507549 104.2495303  25.7858072  12.1903621 104.7781224  25.0636680
  12.2979669 104.5875709  26.5616638  21.5879426 116.4205794  31.0142453
  22.5125974 116.2148656  30.8766904  21.4194730 116.1722196  31.9231794
  14.5450990 102.6332353  35.2361140  14.2047810 101.8340167  35.6381820
  13.8389996 102.9334064  34.6637973  15.1967461  99.7181666  33.6888463
  16.0193531  99.2442144  33.5667353  15.4405525 100.4972150  34.1887149
  13.8375696 102.7469924  23.9851365  14.5584058 103.1251177  23.4815082
  13.2141000 103.4658801  24.0886343  17.9806819 103.4515073  24.9209697
  18.1970433 104.3339711  24.6198525  17.5000886 103.0601287  24.1915339
  12.7206040 106.4100787  31.4980442  12.5750621 106.7241090  32.3904723
  12.2431244 107.0285687  30.9451340  14.5802423 103.4003335  31.5461331
  14.5663992 102.5044428  31.2093629  15.2974851 103.4073998  32.1799617
  16.4328554 103.8340675  33.5914459  16.1746332 104.7557745  33.5898789
  15.9013594 103.4371109  34.2814923  21.3774742 116.9391462  26.3704544
  21.5511620 116.3737884  25.6178396  21.8703634 117.7392357  26.1884034
   7.1951702 108.9506131  34.4368103   6.6505170 109.7265939  34.5688377
   8.0731052 109.2976935  34.2787224  13.9839319 102.2817715  26.8148901
  14.1055230 101.3534361  27.0139789  13.6941361 102.2956401  25.9027217
  16.8530509  99.9672625  29.9515621  16.8752206 100.0311958  28.9967601
  17.2698568  99.1277134  30.1456127  27.2314134 109.7027885  27.9894844
  27.6745280 108.9535210  27.5913967  26.3540644 109.6938021  27.6068576
  22.3649915 116.2558226  23.4701442  23.0600820 116.8764919  23.6888757
  22.7073065 115.4053577  23.7453820   7.9817724 108.0776027  37.3298260
   7.2399460 108.2258663  37.9162890   7.6610468 108.3384293  36.4665009
  24.2641338 113.7057932  24.9988773  24.7892662 114.0445205  24.2738093
  24.1763691 112.7704947  24.8151908  15.9261387 117.6192005  37.1278650
  16.2348513 117.3741152  38.0001349  16.7236869 117.8238644  36.6397520
  15.9481999 119.7729915  29.3584026  15.5086989 119.2806294  30.0516883
  16.6990116 119.2302883  29.1176101  13.3955871 115.3167924  31.4306328
  12.7735880 114.6538629  31.1308556  14.0660738 115.3429056  30.7479976
  13.4680398 103.7949712  41.0238834  13.5168554 104.6711835  40.6416603
  14.0102913 103.2527105  40.4510477  23.9535244 114.3390835  40.3039971
  23.1630788 114.3214974  39.7644470  23.7168599 114.8779129  41.0589008
  24.0733119 111.1883302  37.6172700  24.1231124 111.0233309  38.5588222
  23.9647043 110.3210561  37.2270580  21.3636882 107.1714230  38.9332006
  22.2646744 107.0320695  38.6416004  21.4384856 107.3368685  39.8730184
  15.6979687 104.5481085  37.7785193  14.8282996 104.8414651  37.5067781
  15.9339167 105.1321530  38.4992456  25.5751316 113.6080243  37.8614721
  25.2836124 113.9710224  38.6978182  24.9623447 112.8947252  37.6828053
  26.7746998 111.1733123  30.3817291  27.6093890 111.6122927  30.5454852
  26.9106127 110.6971776  29.5625537  23.8238504 108.7312858  36.3294779
  24.2992626 108.9240504  35.5213630  22.9004070 108.7872044  36.0838163
  18.4018721 100.7660701  35.2950613  18.9200665 101.5021728  34.9697102
  18.0473854 101.0724695  36.1297372  18.6531315  97.1860984  30.8151510
  18.9333069  96.5184173  31.4411936  19.4381922  97.3790080  30.3026173
  22.5240173 105.6078618  34.5623085  23.4757596 105.7076716  34.5835309
  22.3543624 104.8156887  35.0721169  20.5454553 102.6934201  34.7482486
  19.9504485 102.9739214  34.0528974  20.2604249 103.1828102  35.5199227
  25.0028251 108.8284738  33.6765384  24.9704571 107.8900738  33.8625068
  25.6128875 108.9068774  32.9431209  25.1522740 105.6195781  33.7223667
  24.6361788 104.8354238  33.5353596  26.0362688 105.2914498  33.8870187
  22.8133466  99.3636797  29.6819480  22.6158288  99.0551885  30.5662812
  23.4233172 100.0898436  29.8117410  30.8204801 109.8900745  32.8171421
  31.5508189 109.6286033  33.3779124  30.2111746 109.1529466  32.8573489
  28.9020098 108.0308607  33.4145872  28.1753262 107.8964572  32.8062364
  28.4867385 108.3385436  34.2202590  16.7250274 111.7498537  41.1793245
  17.6453284 111.9277136  41.3733292  16.6899857 110.8054582  41.0272945
   5.9432439 106.9437130  30.1046520   5.6235224 106.0902439  29.8120894
   5.3965868 107.1585709  30.8604487   9.7212347 109.6599571  33.8216026
   9.9398357 110.5916679  33.8404060  10.1338121 109.3007546  34.6070830
  16.6416565 100.1667657  25.8091715  15.8317293  99.8214742  26.1846961
  17.3300982  99.8575201  26.3979326  18.5707113  99.2445704  27.4316011
  19.1238152  99.6641157  28.0906035  18.8077199  98.3181452  27.4738968
  14.5940212 105.2332777  43.2118775  14.4936939 106.1827134  43.1430866
  14.3761754 104.9051016  42.3394845  21.9485920 101.3546229  26.9394676
  21.3684589 102.0131033  26.5572728  21.6821853 100.5323573  26.5282093
  20.3989487 100.7551286  29.1415996  20.8989265 100.8667821  28.3330315
  21.0425094 100.4512339  29.7816805  14.4571482 108.6629916  42.0283837
  13.9738564 109.4630276  42.2347726  14.5432421 108.6737861  41.0751281
  10.3844820 112.5534451  34.0652271  11.3388073 112.5218393  33.9982202
  10.1857343 112.0925075  34.8802497  10.9744202 111.1235567  36.6323069
  11.7937091 111.6179645  36.6557906  11.2481010 110.2067535  36.6040636
  20.7310798 103.5146319  25.9951024  19.8436653 103.7995970  25.7771219
  21.1464787 103.3540082  25.1478301  24.0825334 103.5392840  29.7105363
  24.8585724 104.0289293  29.9829980  23.3573469 103.9650894  30.1677233
  26.5197893 104.2520459  30.7679304  27.1142384 104.0116195  30.0572612
  26.5924477 103.5327590  31.3952840  20.7051822 109.0300855  26.2101314
  20.6487023 109.4869406  25.3708947  21.2580164 108.2691540  26.0324157
  24.5156628 104.8190587  27.0351434  24.2593562 104.4187223  27.8659641
  23.8909496 105.5334381  26.9101573  28.8268966 107.5586660  29.5422725
  28.2668524 107.6279849  30.3154287  28.2212469 107.3827645  28.8222221
  21.7840709 113.7173523  22.1397504  22.6186313 113.2854721  21.9574979
  21.6225052 113.5455537  23.0674399  21.4386601 110.2205636  23.5053843
  21.3835405 110.0549908  22.5642287  20.8132657 110.9281669  23.6616033
   6.2279116 105.4573701  37.3315266   6.8737980 104.9472655  37.8202491
   6.0196267 106.1942382  37.9058691  18.7532508 112.5254548  42.8307406
  19.6223668 112.6995200  42.4694041  18.2739260 113.3448965  42.7083135
  14.7482727  99.7213745  23.0839162  14.7361397 100.6655585  23.2407433
  15.6406149  99.5383891  22.7898623  12.9218689 119.6451649  34.5096840
  13.8245935 119.6775259  34.8263335  12.6956059 118.7152100  34.5243176
  14.6772291 118.3982636  31.1706918  13.7267922 118.3984497  31.0571291
  14.9804777 117.6515370  30.6542953  18.5634846  96.3156522  27.3385099
  17.7967242  95.7615009  27.4841781  18.9745551  96.3878391  28.1999250
  10.5676607 102.6041318  41.4290280  11.4308069 102.2478123  41.6393604
   9.9942018 102.2655213  42.1165684  30.4124984 124.2343174  32.2352681
  31.0503394 124.1149921  31.5316021  30.2945827 125.1824018  32.2940633
  27.2214690 124.1870602  32.1714206  26.8833202 124.0711667  31.2834740
  28.0904459 123.7861767  32.1515212  23.0801506 126.0406079  28.1611096
  22.5166371 125.9496016  27.3927384  22.9653901 125.2205983  28.6413589
  27.7034473 125.3405454  38.1300411  27.6923114 124.9458252  37.2580915
  27.8655113 124.6071527  38.7234182  20.6265938 127.5357270  30.9995317
  21.4187230 127.1948095  30.5841616  20.8662588 127.6452245  31.9197470
  25.3497941 125.5019414  33.6680955  25.9461514 125.2775437  32.9537918
  25.4072913 124.7604160  34.2706403  29.9666253 121.9594628  29.3105889
  30.7529342 121.5414051  28.9596306  30.2304957 122.8640720  29.4787537
  30.1376330 127.3967478  24.0094546  29.5022163 127.4702105  24.7215450
  29.8073736 127.9861077  23.3313625  35.3674680 121.8969861  30.2138867
  36.0999852 121.3269078  30.4476697  34.6114035 121.5091462  30.6545373
  26.9850800 124.3197103  27.4102210  26.6209007 123.7927724  28.1215131
  27.8417915 123.9295572  27.2368695  32.8900100 115.6091435  34.6733476
  32.5583425 116.4786846  34.4494691  32.2945714 115.2927719  35.3527506
  26.6256286 119.3487002  22.4063558  26.7930689 120.2167239  22.7734029
  26.4353456 119.5114284  21.4824848  29.3831620 127.8103981  34.0729389
  29.0832343 128.7129020  33.9645196  29.0382679 127.5436164  34.9250542
  22.8344101 124.2617778  30.1066093  21.9094598 124.1293992  30.3143785
  23.0828514 125.0411997  30.6036036  32.7828763 120.3286521  31.7526826
  31.8745641 120.2601930  31.4585587  32.7316359 120.8058466  32.5808651
  26.6045507 121.8044660  23.3910225  26.4845133 122.2501711  24.2295705
  25.9098096 122.1529978  22.8323763  20.1952912 123.9051052  30.9409882
  20.3245293 124.1585531  31.8549294  19.5150363 124.4978760  30.6214537
  26.8569629 121.7476167  39.6961723  26.0802963 122.3070087  39.6864588
  27.4960192 122.2332950  40.2176593  34.6490410 118.5302960  33.5304700
  34.0064790 118.8235493  32.8844495  34.1445338 118.4155880  34.3357897
  32.3030574 122.2766133  24.2190559  33.2148430 122.5093520  24.0438257
  31.7940221 122.8603177  23.6565638  25.1116002 124.5561620  39.2579690
  25.8530686 125.0946664  38.9814514  24.4052987 125.1827909  39.4151242
  30.5871341 126.6990761  37.8551852  30.9954697 126.2573171  37.1106484
  29.8648603 126.1243388  38.1086045  26.9402411 121.6363368  35.2285409
  27.7863606 122.0602781  35.3720058  26.8801049 120.9796992  35.9223972
  30.9100156 127.2591951  31.6104141  30.2809018 127.4237666  30.9080209
  30.5225818 127.6733561  32.3815105  34.7889388 128.1946389  28.9648504
  34.1040426 128.5745291  28.4145538  34.8733237 128.8041716  29.6980452
  30.0901857 119.2967736  36.8866582  29.8462788 120.0509797  36.3500858
  30.3661787 119.6753084  37.7213829  32.0440319 125.8406348  35.5643848
  32.2557215 126.4838108  34.8878229  31.9970068 125.0068665  35.0965778
  29.6466548 118.4524169  32.4680420  28.7851027 118.7505423  32.7597158
  29.6728983 118.6694568  31.5361453  26.4628118 126.9966360  28.8754226
  26.9266463 127.2754063  28.0858848  26.1984916 126.0949804  28.6927316
  23.3552199 126.5437841  31.8133989  23.9253556 126.9725109  31.1751474
  23.9460311 126.2620426  32.5118175  25.3997004 123.1189512  25.6843791
  26.1021047 123.5710556  26.1517717  25.0677632 122.4773331  26.3123684
  23.8477365 121.7101269  40.0595000  23.2176026 122.3917549  40.2930397
  23.7413453 121.5984350  39.1148139  19.1422338 121.3773065  30.9860924
  18.3521392 121.6330593  30.5101035  19.6333585 122.1921402  31.0912965
  33.1586147 128.7178304  33.7366205  33.9803591 128.3158491  33.4548887
  33.1548550 128.6146538  34.6882321  21.0937083 121.7417644  27.9444401
  20.2968246 121.8536338  28.4627897  20.8662675 122.0804296  27.0785292
  26.9242751 128.2662347  35.8926916  26.9887183 128.7282754  36.7285088
  26.2153675 127.6359712  36.0209226  17.4260041 121.6303555  33.4175915
  17.6768079 122.5150565  33.6833491  17.9619589 121.4508157  32.6451007
  41.2492140 125.0617052  30.0851177  40.4955849 124.4924450  29.9295181
  41.3839682 125.0279717  31.0321811  23.1258108 116.0122034  42.4220251
  22.7325054 115.4588233  43.0967896  23.9424248 116.3232613  42.8126769
  26.0426069 117.4279913  40.0140508  26.7835782 118.0287067  39.9344970
  26.2743992 116.6857551  39.4558550  21.1867407 122.6136281  38.2918738
  21.0720922 121.7121538  38.5925836  20.3311925 122.8599978  37.9403554
  26.8213537 128.3500950  38.7611148  27.3541874 127.5889239  38.5310456
  26.2927618 128.0574602  39.5035302  29.9883232 113.4561016  34.2904790
  29.6447501 114.3462658  34.2143900  30.3562195 113.2662674  33.4274375
  29.9533515 123.4469628  22.7977225  29.4380138 124.2174232  23.0365612
  29.6810823 122.7734764  23.4210286  27.5380626 118.2919328  27.8562463
  26.6822222 117.9026179  27.6768102  27.9507577 118.3711289  26.9962249
  29.0679772 115.8265672  32.2554023  28.5644568 115.7895807  31.4421828
  29.3610379 116.7358414  32.3150679  25.3122658 115.9104401  31.2620205
  26.1775655 115.7147210  30.9026094  25.3800167 115.6814753  32.1889561
  34.9267789 126.2001982  24.7330398  34.1497232 125.8613142  24.2885560
  35.6059270 126.2054605  24.0585363  29.7419818 121.3196720  24.6237006
  29.4369953 121.6342869  25.4747149  30.6950260 121.3978140  24.6664339
  28.1866250 127.4786943  26.2729960  27.6587611 126.7439703  25.9603197
  27.6853752 128.2561619  26.0269928  33.1659096 125.6735963  31.3897006
  32.5082770 126.3635225  31.4777135  33.9699495 126.0632395  31.7330993
  22.9184977 118.1406609  28.6336571  23.4928729 117.9181791  27.9009764
  23.5055960 118.2095304  29.3865173  31.9764555 124.0280336  29.4400948
  32.4896436 124.6610328  29.9422658  32.6265778 123.4281532  29.0744308
  25.2207645 115.0147858  27.3611641  24.5672057 114.6996875  26.7368256
  25.1788119 114.3923599  28.0871464  28.4545385 121.5029792  31.6859288
  27.5367947 121.7244739  31.5280976  28.8705529 121.5776102  30.8270996
  29.2380433 122.9021207  26.8161969  29.9852252 123.4142605  26.5069091
  29.5072023 122.5805260  27.6766362  27.5107083 125.3979748  23.7988923
  26.6018303 125.1138781  23.8961393  27.5402167 125.8178827  22.9392230
  32.7426351 129.0086338  27.5680091  32.2888678 128.1677247  27.6245281
  32.1120317 129.6447736  27.9054871  31.6859270 119.9378324  28.7980758
  30.9482027 119.4255710  29.1291001  31.9386044 119.4978705  27.9864035
  31.1859290 130.8462834  28.5029909  31.4782264 131.4067891  27.7842274
  31.6957911 131.1391395  29.2583068  31.7870898 112.7154576  29.3922527
  32.0929774 111.8551939  29.1048442  32.5123502 113.3072196  29.1921521
  26.0591977 123.0108369  29.8998718  26.1140587 122.0582205  29.8241195
  25.2483179 123.1667808  30.3840017  23.9984337 121.6285428  27.6589097
  23.1852203 121.9279599  28.0654289  24.4943331 121.2341117  28.3763579
  29.5958549 122.0927253  36.4903991  29.9507937 122.3198726  37.3498457
  30.2430680 122.4245630  35.8681246  35.3256286 125.2145689  27.1953320
  35.1874184 125.4047285  26.2674509  34.9692505 125.9765072  27.6521371
  23.4898412 119.2003784  33.2750332  24.1297791 119.0592543  32.5773295
  22.6575943 118.9138297  32.8988934  35.3525665 127.2822216  32.2064592
  35.7862172 127.1897505  33.0547646  36.0657246 127.2579716  31.5684608
  24.2658716 128.5006214  29.3885325  25.0599314 128.0056535  29.1867900
  23.5550408 127.9724078  29.0253030  20.4927028 119.1704109  28.0523319
  20.7533846 120.0849442  27.9432479  21.3144201 118.7028552  28.2019932
  21.9651954 120.5841866  35.2222143  22.6375007 120.3759228  34.5734792
  21.1381740 120.3863952  34.7827376  36.2141215 127.3245916  34.7397477
  36.4077105 128.2291727  34.9856752  36.1141833 126.8653336  35.5736062
  27.8677526 117.2103807  37.2387804  27.2205441 117.9093757  37.1452281
  28.6378541 117.6439951  37.6064053  31.2756324 127.4752659  40.3138358
  31.1241830 127.2463211  39.3968441  31.2661003 128.4323261  40.3269703
  28.0441660 125.0484572  35.2984624  28.9733720 125.1995732  35.1253591
  27.6232690 125.1368593  34.4433271  28.3935207 128.4516839  30.4571999
  28.0585040 128.4117609  31.3529649  27.8939153 127.7861555  29.9842410
  22.3679451 123.8584469  35.9824581  22.2299249 123.1264708  36.5836120
  23.2784374 123.7693369  35.7008768  24.9961752 123.5704428  35.4708260
  25.7061370 122.9297621  35.4294879  24.9531060 123.8217323  36.3934441
  32.9848530 130.5071782  38.3914839  32.9261077 129.8231002  37.7245423
  33.3868049 131.2490772  37.9395465  23.7090686 120.5569646  37.2903900
  23.1728043 120.1060385  37.9425496  23.1207394 120.6915555  36.5474364
  32.9865938 128.4711366  36.6228819  32.0992716 128.1337287  36.7455218
  33.5564489 127.7394397  36.8597585  19.4429807 119.6925654  34.3756894
  19.3587996 119.0851324  33.6407304  18.6212513 120.1834672  34.3766391
  29.6153521 118.1779218  29.7427089  30.1122220 117.4249180  29.4228160
  28.8440502 118.2143534  29.1770299  37.4683278 123.8819583  31.3845381
  37.4573154 124.7644298  31.0139314  36.6000658 123.5291134  31.1899918
  30.6983301 126.9350905  27.3165513  29.7639580 127.0552367  27.1470217
  30.8759970 126.0323372  27.0525523  26.1988490 120.3196601  29.4698774
  25.8286277 119.7667641  30.1579679  26.6947582 119.7154734  28.9173774
  34.0855853 122.7768224  27.8515547  34.5516305 123.6096216  27.7775850
  34.5363353 122.3113206  28.5560805  32.1532084 129.1212045  24.8501699
  32.4291928 129.0068640  25.7595573  31.2836583 128.7229530  24.8113872
  32.0572516 115.1448811  31.8906448  31.1435595 115.3753038  32.0588655
  32.4865617 115.2287255  32.7420481  31.8278974 123.3338703  34.3906342
  31.1750424 123.5814610  33.7358795  32.2059354 122.5202841  34.0568819
  27.8766547 124.0758514  40.8772379  27.2007184 123.9752643  41.5474755
  28.6994181 123.9197728  41.3408377  21.5953823 117.7300591  35.7151880
  21.6595150 118.5915422  35.3029278  21.5320943 117.1174593  34.9824239
  21.0706096 119.8023724  39.3624914  21.6978135 119.4200801  39.9762439
  20.2134015 119.5837926  39.7280607  31.4700204 130.2086699  40.9678650
  32.0140108 130.8216657  40.4733605  30.8887049 130.7666277  41.4845663
  21.3765885 119.6856150  31.2770818  20.6552471 120.2992117  31.1378291
  22.1659141 120.2213914  31.1987464  31.8192626 131.1316437  33.7273228
  30.8722961 131.0121788  33.6551554  32.1675399 130.2438935  33.8099489
  24.1792199 117.0210576  37.5511469  24.7026601 117.2672873  38.3137779
  23.9604532 117.8530611  37.1314607  22.6901303 119.5787220  25.7858072
  23.0297376 120.1073142  25.0636680  23.1373424 119.9167627  26.5616638
  32.4273181 131.7497712  31.0142453  33.3519728 131.5440573  30.8766904
  32.2588484 131.5014113  31.9231794  25.3844744 117.9624271  35.2361140
  25.0441564 117.1632084  35.6381820  24.6783750 118.2625982  34.6637973
  26.0361216 115.0473584  33.6888463  26.8587285 114.5734062  33.5667353
  26.2799279 115.8264067  34.1887149  24.6769450 118.0761842  23.9851365
  25.3977813 118.4543095  23.4815082  24.0534754 118.7950719  24.0886343
  28.8200573 118.7806991  24.9209697  29.0364188 119.6631629  24.6198525
  28.3394640 118.3893204  24.1915339  23.5599795 121.7392704  31.4980442
  23.4144375 122.0533007  32.3904723  23.0824998 122.3577605  30.9451340
  25.4196178 118.7295252  31.5461331  25.4057746 117.8336345  31.2093629
  26.1368606 118.7365916  32.1799617  27.2722308 119.1632592  33.5914459
  27.0140086 120.0849663  33.5898789  26.7407349 118.7663027  34.2814923
  18.0345457 124.2798049  34.4368103  17.4898925 125.0557857  34.5688377
  18.9124807 124.6268853  34.2787224  24.8233073 117.6109632  26.8148901
  24.9448985 116.6826279  27.0139789  24.5335116 117.6248318  25.9027217
  27.6924264 115.2964543  29.9515621  27.7145961 115.3603876  28.9967601
  28.1092323 114.4569052  30.1456127  38.0707888 125.0319802  27.9894844
  38.5139034 124.2827128  27.5913967  37.1934398 125.0229939  27.6068576
  33.2043669 131.5850144  23.4701442  33.8994574 132.2056837  23.6888757
  33.5466820 130.7345495  23.7453820  18.8211479 123.4067945  37.3298260
  18.0793215 123.5550580  37.9162890  18.5004223 123.6676210  36.4665009
  35.1035093 129.0349849  24.9988773  35.6286417 129.3737122  24.2738093
  35.0157445 128.0996865  24.8151908  24.3074153 119.1241630  41.0238834
  24.3562308 120.0003753  40.6416603  24.8496667 118.5819023  40.4510477
  34.7928999 129.6682753  40.3039971  34.0024542 129.6506892  39.7644470
  34.5562353 130.2071047  41.0589008  34.9126874 126.5175219  37.6172700
  34.9624879 126.3525227  38.5588222  34.8040797 125.6502478  37.2270580
  32.2030636 122.5006147  38.9332006  33.1040499 122.3612612  38.6416004
  32.2778611 122.6660602  39.8730184  26.5373441 119.8773002  37.7785193
  25.6676751 120.1706568  37.5067781  26.7732922 120.4613447  38.4992456
  36.4145071 128.9372161  37.8614721  36.1229879 129.3002142  38.6978182
  35.8017202 128.2239169  37.6828053  37.6140753 126.5025041  30.3817291
  38.4487644 126.9414845  30.5454852  37.7499882 126.0263694  29.5625537
  34.6632259 124.0604776  36.3294779  35.1386380 124.2532422  35.5213630
  33.7397824 124.1163961  36.0838163  29.2412475 116.0952619  35.2950613
  29.7594419 116.8313646  34.9697102  28.8867608 116.4016612  36.1297372
  29.4925069 112.5152902  30.8151510  29.7726823 111.8476091  31.4411936
  30.2775676 112.7081997  30.3026173  33.3633928 120.9370536  34.5623085
  34.3151351 121.0368633  34.5835309  33.1937378 120.1448804  35.0721169
  31.3848307 118.0226119  34.7482486  30.7898239 118.3031132  34.0528974
  31.0998004 118.5120020  35.5199227  35.8422006 124.1576655  33.6765384
  35.8098326 123.2192656  33.8625068  36.4522629 124.2360692  32.9431209
  35.9916494 120.9487699  33.7223667  35.4755543 120.1646155  33.5353596
  36.8756443 120.6206415  33.8870187  33.6527221 114.6928714  29.6819480
  33.4552042 114.3843803  30.5662812  34.2626927 115.4190353  29.8117410
  41.6598555 125.2192662  32.8171421  42.3901944 124.9577950  33.3779124
  41.0505501 124.4821384  32.8573489  39.7413853 123.3600525  33.4145872
  39.0147016 123.2256490  32.8062364  39.3261139 123.6677353  34.2202590
  27.5644029 127.0790454  41.1793245  28.4847038 127.2569053  41.3733292
  27.5293612 126.1346500  41.0272945  16.7826194 122.2729048  30.1046520
  16.4628978 121.4194356  29.8120894  16.2359622 122.4877626  30.8604487
  20.5606102 124.9891489  33.8216026  20.7792111 125.9208597  33.8404060
  20.9731875 124.6299464  34.6070830  27.4810319 115.4959574  25.8091715
  26.6711048 115.1506659  26.1846961  28.1694736 115.1867118  26.3979326
  29.4100868 114.5737621  27.4316011  29.9631906 114.9933075  28.0906035
  29.6470954 113.6473369  27.4738968  25.4333967 120.5624695  43.2118775
  25.3330694 121.5119052  43.1430866  25.2155509 120.2342934  42.3394845
  32.7879675 116.6838146  26.9394676  32.2078344 117.3422950  26.5572728
  32.5215607 115.8615491  26.5282093  31.2383241 116.0843204  29.1415996
  31.7383019 116.1959739  28.3330315  31.8818849 115.7804257  29.7816805
  25.2965237 123.9921834  42.0283837  24.8132319 124.7922194  42.2347726
  25.3826176 124.0029779  41.0751281  21.8137956 126.4527484  36.6323069
  22.6330845 126.9471563  36.6557906  22.0874764 125.5359453  36.6040636
  31.5704553 118.8438237  25.9951024  30.6830408 119.1287887  25.7771219
  31.9858542 118.6832000  25.1478301  34.9219089 118.8684758  29.7105363
  35.6979479 119.3581210  29.9829980  34.1967223 119.2942812  30.1677233
  37.3591647 119.5812377  30.7679304  37.9536138 119.3408113  30.0572612
  37.4318231 118.8619508  31.3952840  31.5445576 124.3592773  26.2101314
  31.4880778 124.8161324  25.3708947  32.0973919 123.5983457  26.0324157
  35.3550382 120.1482505  27.0351434  35.0987317 119.7479140  27.8659641
  34.7303250 120.8626299  26.9101573  39.6662720 122.8878578  29.5422725
  39.1062278 122.9571767  30.3154287  39.0606224 122.7119562  28.8222221
  32.6234464 129.0465441  22.1397504  33.4580067 128.6146639  21.9574979
  32.4618806 128.8747454  23.0674399  32.2780356 125.5497554  23.5053843
  32.2229160 125.3841825  22.5642287  31.6526411 126.2573587  23.6616033
  17.0672871 120.7865618  37.3315266  17.7131734 120.2764572  37.8202491
  16.8590022 121.5234300  37.9058691  29.5926263 127.8546466  42.8307406
  30.4617423 128.0287118  42.4694041  29.1133014 128.6740883  42.7083135
  25.5876481 115.0505663  23.0839162  25.5755151 115.9947503  23.2407433
  26.4799903 114.8675808  22.7898623  29.4028601 111.6448440  27.3385099
  28.6360996 111.0906926  27.4841781  29.8139306 111.7170308  28.1999250
  21.4070362 117.9333235  41.4290280  22.2701823 117.5770040  41.6393604
  20.8335772 117.5947130  42.1165684  43.7293855 130.9383353  34.6733476
  43.3977179 131.8078764  34.4494691  43.1339468 130.6219637  35.3527506
  45.4884164 133.8594878  33.5304700  44.8458545 134.1527411  32.8844495
  44.9839093 133.7447798  34.3357897  40.4860303 133.7816087  32.4680420
  39.6244782 134.0797340  32.7597158  40.5122737 133.9986486  31.5361453
  33.9651863 131.3413952  42.4220251  33.5718808 130.7880151  43.0967896
  34.7818003 131.6524531  42.8126769  36.8819823 132.7571831  40.0140508
  37.6229537 133.3578984  39.9344970  37.1137746 132.0149469  39.4558550
  40.8276986 128.7852934  34.2904790  40.4841256 129.6754576  34.2143900
  41.1955949 128.5954592  33.4274375  38.3774380 133.6211246  27.8562463
  37.5215977 133.2318096  27.6768102  38.7901332 133.7003207  26.9962249
  39.9073527 131.1557589  32.2554023  39.4038322 131.1187724  31.4421828
  40.2004134 132.0650332  32.3150679  36.1516413 131.2396319  31.2620205
  37.0169409 131.0439128  30.9026094  36.2193922 131.0106671  32.1889561
  36.0601399 130.3439776  27.3611641  35.4065812 130.0288793  26.7368256
  36.0181874 129.7215516  28.0871464  42.5253025 135.2670241  28.7980758
  41.7875782 134.7547628  29.1291001  42.7779798 134.8270623  27.9864035
  42.6264652 128.0446493  29.3922527  42.9323529 127.1843857  29.1048442
  43.3517257 128.6364113  29.1921521  38.7071280 132.5395725  37.2387804
  38.0599195 133.2385674  37.1452281  39.4772296 132.9731869  37.6064053
  40.4547275 133.5071135  29.7427089  40.9515975 132.7541098  29.4228160
  39.6834257 133.5435452  29.1770299  42.8966270 130.4740729  31.8906448
  41.9829350 130.7044956  32.0588655  43.3259372 130.5579173  32.7420481
  36.8754970 130.3765501  33.6888463  37.6981040 129.9025979  33.5667353
  37.1193034 131.1555985  34.1887149  38.5318018 130.6256461  29.9515621
  38.5539715 130.6895794  28.9967601  38.9486077 129.7860969  30.1456127
  40.0806230 131.4244537  35.2950613  40.5988174 132.1605564  34.9697102
  39.7261363 131.7308530  36.1297372  40.3318824 127.8444819  30.8151510
  40.6120578 127.1768008  31.4411936  41.1169431 128.0373915  30.3026173
  42.2242062 133.3518037  34.7482486  41.6291994 133.6323049  34.0528974
  41.9391758 133.8411938  35.5199227  46.8310249 136.2779616  33.7223667
  46.3149297 135.4938073  33.5353596  47.7150197 135.9498333  33.8870187
  44.4920975 130.0220632  29.6819480  44.2945797 129.7135720  30.5662812
  45.1020681 130.7482271  29.8117410  38.3204074 130.8251492  25.8091715
  37.5104802 130.4798577  26.1846961  39.0088491 130.5159036  26.3979326
  40.2494622 129.9029539  27.4316011  40.8025661 130.3224992  28.0906035
  40.4864708 128.9765287  27.4738968  43.6273429 132.0130064  26.9394676
  43.0472098 132.6714868  26.5572728  43.3609362 131.1907409  26.5282093
  42.0776996 131.4135122  29.1415996  42.5776774 131.5251656  28.3330315
  42.7212603 131.1096175  29.7816805  42.4098307 134.1730154  25.9951024
  41.5224162 134.4579805  25.7771219  42.8252296 134.0123918  25.1478301
  45.7612843 134.1976675  29.7105363  46.5373233 134.6873128  29.9829980
  45.0360977 134.6234730  30.1677233  48.1985402 134.9104295  30.7679304
  48.7929893 134.6700031  30.0572612  48.2711986 134.1911425  31.3952840
  46.1944137 135.4774422  27.0351434  45.9381071 135.0771058  27.8659641
  45.5697005 136.1918216  26.9101573  36.4270236 130.3797581  23.0839162
  36.4148906 131.3239421  23.2407433  37.3193658 130.1967726  22.7898623
  40.2422355 126.9740357  27.3385099  39.4754751 126.4198844  27.4841781
  40.6533060 127.0462226  28.1999250   0.6404885  59.7364673  20.4611512
   1.4622329  59.3344861  20.1794194   0.6367288  59.6332908  21.4127628
   3.6959953  58.3432286  21.4642784   3.8895843  59.2478097  21.7102059
   3.5960571  57.8839705  22.2981369   2.2747736  60.6869123  27.0285278
   1.4843280  60.6693261  26.4889777   2.0381091  61.2257416  27.7834314
   2.3945611  57.5361589  24.3418006   2.4443616  57.3711596  25.2833529
   2.2859535  56.6688848  23.9515887   3.8963808  59.9558531  24.5860028
   3.6048617  60.3188511  25.4223489   3.2835940  59.2425539  24.4073360
   2.1450997  55.0791145  23.0540086   2.6205118  55.2718791  22.2458937
   1.2216562  55.1350331  22.8083469   9.1417293  56.2379032  19.5416728
   9.8720682  55.9764320  20.1024431   8.5324239  55.5007754  19.5818796
   8.7337476  70.5821461  18.9597987   9.3715886  70.4628209  18.2561328
   8.6158319  71.5302305  19.0185940   5.5427183  70.5348889  18.8959512
   5.2045694  70.4189954  18.0080047   6.4116951  70.1340055  18.8760518
   1.4013998  72.3884366  14.8856403   0.8378864  72.2974303  14.1172691
   1.2866393  71.5684270  15.3658896   6.0246966  71.6883741  24.8545718
   6.0135606  71.2936539  23.9826221   6.1867605  70.9549814  25.4479489
   2.7454227  74.4720853  23.8024902   2.4544093  75.3766484  23.6871568
   3.3811211  74.5137381  24.5168971   3.6710434  71.8497702  20.3926261
   4.2674006  71.6253724  19.6783224   3.7285405  71.1082447  20.9951709
   8.2878745  68.3072915  16.0351195   9.0741834  67.8892338  15.6841612
   8.5517449  69.2119007  16.2032844   8.4588822  73.7445766  10.7339852
   7.8234655  73.8180392  11.4460757   8.1286229  74.3339364  10.0558932
  13.6887172  68.2448148  16.9384174  14.4212344  67.6747365  17.1722003
  12.9326528  67.8569749  17.3790680   5.3063292  70.6675390  14.1347516
   4.9421499  70.1406011  14.8460438   6.1630408  70.2773859  13.9614002
  11.2112592  61.9569723  21.3978783  10.8795917  62.8265133  21.1739998
  10.6158206  61.6406007  22.0772813   7.7044112  74.1582268  20.7974695
   7.4044835  75.0607307  20.6890503   7.3595171  73.8914452  21.6495848
  11.1041256  66.6764809  18.4772133  10.1958133  66.6080217  18.1830894
  11.0528852  67.1536754  19.3053958   5.1782122  68.0954454  26.4207030
   4.4015456  68.6548374  26.4109895   5.8172685  68.5811237  26.9421900
  12.9702902  64.8781247  20.2550007  12.3277282  65.1713780  19.6089801
  12.4657831  64.7634167  21.0603203  10.6243066  68.6244420  10.9435866
  11.5360922  68.8571807  10.7683563  10.1152713  69.2081464  10.3810944
   3.4328494  70.9039908  25.9824997   4.1743178  71.4424952  25.7059821
   2.7265479  71.5306196  26.1396549   8.9083833  73.0469048  24.5797158
   9.3167189  72.6051459  23.8351791   8.1861095  72.4721676  24.8331351
   5.2614903  67.9841655  21.9530715   6.1076099  68.4081068  22.0965364
   5.2013541  67.3275279  22.6469278   9.2312648  73.6070239  18.3349447
   8.6021511  73.7715953  17.6325515   8.8438310  74.0211848  19.1060411
  13.1101880  74.5424677  15.6893811  12.4252918  74.9223578  15.1390844
  13.1945729  75.1520003  16.4225759   8.4114349  65.6446023  23.6111889
   8.1675281  66.3988084  23.0746165   8.6874279  66.0231371  24.4459136
  10.3652812  72.1884636  22.2889155  10.5769707  72.8316395  21.6123536
  10.3182560  71.3546952  21.8211085   7.9679041  64.8002456  19.1925727
   7.1063520  65.0983710  19.4842464   7.9941475  65.0172855  18.2606759
   4.7840610  73.3444647  15.5999532   5.2478956  73.6232350  14.8104155
   4.5197408  72.4428091  15.4172623   1.6764691  72.8916128  18.5379296
   2.2466048  73.3203397  17.8996780   2.2672803  72.6098713  19.2363481
   2.1689858  68.0579556  26.7840307   1.5388518  68.7395837  27.0175704
   2.0625945  67.9462637  25.8393445  11.4798640  75.0656591  20.4611512
  12.3016083  74.6636778  20.1794194  11.4761042  74.9624825  21.4127628
   5.2455243  74.6140634  22.6172222   5.3099676  75.0761042  23.4530394
   4.5366167  73.9837999  22.7454532  19.5704633  71.4095339  16.8096483
  18.8168341  70.8402738  16.6540488  19.7052174  71.3758004  17.7567118
   1.4470600  62.3600322  29.1465558   1.0537546  61.8066520  29.8213202
   2.2636741  62.6710900  29.5372075   4.3638561  63.7758201  26.7385815
   5.1048275  64.3765354  26.6590277   4.5956484  63.0335839  26.1803857
   6.5871737  76.9032308  26.6151545   6.1435591  76.1168687  26.2972449
   7.2488951  77.0911459  25.9495436   1.3458858  78.4328110  21.1412223
   1.8966283  78.3045173  20.3689217   0.5070334  78.7322999  20.7907116
   8.6852975  77.1835108  24.6432946   8.6671450  78.0043989  24.1513215
   9.6072895  77.0589183  24.8683087   5.1426029  74.6979238  25.4856454
   5.6754366  73.9367526  25.2555762   4.6140110  74.4052890  26.2280609
   8.3095724  59.8039304  21.0150096   7.9659994  60.6940945  20.9389207
   8.6774687  59.6140961  20.1519681   7.3892265  62.1743959  18.9799329
   6.8857060  62.1374094  18.1667135   7.6822871  63.0836702  19.0395986
   3.6335150  62.2582689  17.9865511   4.4988147  62.0625497  17.6271401
   3.7012659  62.0293040  18.9134868  13.2480281  72.5480269  11.4575705
  12.4709724  72.2091429  11.0130867  13.9271762  72.5532893  10.7830670
   6.5078742  73.8265230  12.9975266   5.9800104  73.0917990  12.6848504
   6.0066245  74.6039907  12.7515235  11.4871588  72.0214251  18.1142313
  10.8295262  72.7113512  18.2022441  12.2911987  72.4110683  18.4576299
  10.2977047  70.3758623  16.1646255  10.8108929  71.0088615  16.6667964
  10.9478271  69.7759819  15.7989615   6.7757878  67.8508079  18.4104595
   5.8580439  68.0723026  18.2526283   7.1918021  67.9254389  17.5516302
   7.5592925  69.2499495  13.5407275   8.3064744  69.7620892  13.2314397
   7.8284515  68.9283547  14.4011669  11.0638843  75.3564625  14.2925397
  10.6101170  74.5155535  14.3490588  10.4332810  75.9926023  14.6300177
  10.0071763  66.2856611  15.5226065   9.2694519  65.7733997  15.8536307
  10.2598536  65.8456992  14.7109341   9.5071782  77.1941122  15.2275215
   9.7994757  77.7546179  14.5087581  10.0170403  77.4869683  15.9828374
   4.3804470  69.3586656  16.6244025   4.4353079  68.4060492  16.5486502
   3.5695672  69.5146095  17.1085323   2.3196830  67.9763716  14.3834404
   1.5064695  68.2757886  14.7899596   2.8155824  67.5819404  15.1008886
   4.4705407  77.9721473  16.3168669   4.4281586  78.1982319  15.3877201
   5.3868106  77.7384847  16.4654470   7.9171041  68.4405540  23.2149298
   8.2720429  68.6677013  24.0743763   8.5643172  68.7723917  22.5926553
  13.6468778  71.5623976  13.9198627  13.5086677  71.7525572  12.9919816
  13.2904997  72.3243359  14.3766678   1.8110904  65.5482071  19.9995639
   2.4510284  65.4070830  19.3018602   0.9788435  65.2616585  19.6234241
  13.6738158  73.6300503  18.9309898  14.1074664  73.5375792  19.7792952
  14.3869738  73.6058004  18.2929914   2.5871208  74.8484502  16.1130631
   3.3811807  74.3534822  15.9113206   1.8762901  74.3202365  15.7498337
   7.4066053  77.2302597  20.4642999   7.4603075  77.7993533  21.2320715
   6.5380834  77.4004482  20.0997036  14.5353707  73.6724204  21.4642784
  14.7289597  74.5770014  21.7102059  14.4354325  73.2131623  22.2981369
   6.1890018  63.5582094  23.9633111   5.5417933  64.2572044  23.8697587
   6.9591033  63.9918238  24.3309359   9.5968816  73.8230946  27.0383664
   9.4454322  73.5941498  26.1213748   9.5873495  74.7801548  27.0515009
   6.3654152  71.3962859  22.0229931   7.2946212  71.5474019  21.8498898
   5.9445182  71.4846880  21.1678577   5.1642484  75.4213524  19.7928468
   5.0253570  75.0532308  20.6654406   4.3757080  75.9361163  19.6212426
   6.7147699  74.7995126  17.1817306   6.3797532  74.7595896  18.0774956
   6.2151645  74.1339842  16.7087716   0.6891943  70.2062756  22.7069887
   0.5511741  69.4742995  23.3081426   1.5996867  70.1171656  22.4254075
   3.3174244  69.9182716  22.1953567   4.0273862  69.2775908  22.1540185
   3.2743552  70.1695611  23.1179748  11.3061023  76.8550069  25.1160146
  11.2473569  76.1709289  24.4490729  11.7080541  77.5969059  24.6640772
   2.0303178  66.9047934  24.0149206   1.4940535  66.4538672  24.6670803
   1.4419886  67.0393842  23.2719671  11.3078430  74.8189653  23.3474126
  10.4205209  74.4815575  23.4700525  11.8776981  74.0872684  23.5842891
   4.8379583  79.4791105  20.3135369   4.7649755  80.2846077  20.8254674
   4.3956976  79.6783071  19.4883390   7.9366013  64.5257505  16.4672396
   8.4334713  63.7727467  16.1473466   7.1652995  64.5621821  15.9015605
  15.7895770  70.2297870  18.1090687  15.7785647  71.1122586  17.7384621
  14.9213150  69.8769421  17.9145225   7.2978267  79.3777939  22.4693528
   8.0106239  80.0125404  22.3969429   6.8068295  79.4741805  21.6533530
   9.0195794  73.2829192  14.0410819   8.0852072  73.4030654  13.8715524
   9.1972462  72.3801659  13.7770829   4.5200982  66.6674888  16.1944081
   4.1498769  66.1145928  16.8824986   5.0160074  66.0633021  15.6419081
  12.4068345  69.1246511  14.5760853  12.8728797  69.9574503  14.5021156
  12.8575846  68.6591493  15.2806112   2.3490180  77.1272383  23.2899098
   3.0499640  77.7608866  23.4428493   1.8785295  77.4687114  22.5294738
  10.4744576  75.4690333  11.5747006  10.7504420  75.3546927  12.4840880
   9.6049075  75.0707817  11.5359179  10.3785008  61.4927098  18.6151755
   9.4648088  61.7231325  18.7833962  10.8078109  61.5765542  19.4665787
  10.1491466  69.6816990  21.1151649   9.4962917  69.9292898  20.4604102
  10.5271846  68.8681128  20.7814126   7.1098640  79.7176683  15.2179819
   7.2921035  78.8998339  15.6807571   7.9331626  79.9344376  14.7804709
   7.4440806  78.6444869  12.4794868   7.9728572  78.1337323  11.8665030
   7.7069025  78.3287399  13.3440401   6.1979039  70.4236801  27.6017686
   5.5219676  70.3230931  28.2720061   7.0206673  70.2676015  28.0653683
   4.9401822  81.7303729  21.8375302   5.4920130  81.8935350  22.6024387
   5.2808016  82.3208167  21.1655327   9.7912697  76.5564986  27.6923956
  10.3352601  77.1694945  27.1978911   9.2099541  77.1144565  28.2090969
   8.0770210  79.6785704  18.8238984   7.9521349  78.8775444  18.3149930
   8.7349301  80.1731898  18.3352954  10.1405118  77.4794724  20.4518534
   9.1935453  77.3600076  20.3796861  10.4887891  76.5917222  20.5344796
   2.5004691  63.3688863  24.2756776   3.0239093  63.6151160  25.0383085
   2.2817025  64.2008898  23.8559913   7.1451551  77.2747441  16.6522886
   6.9976514  76.3464148  16.8330456   7.9705045  77.2967531  16.1679962
  10.7485673  78.0975999  17.7387759  11.6732221  77.8918861  17.6012210
  10.5800976  77.8492400  18.6477101   3.7057236  64.3102558  21.9606447
   3.3654057  63.5110371  22.3627126   2.9996243  64.6104269  21.3883280
   4.3573708  61.3951871  20.4133770   5.1799777  60.9212349  20.2912660
   4.6011772  62.1742355  20.9132456   1.8812287  68.0870991  18.2225748
   1.7356868  68.4011295  19.1150030   1.4037491  68.7055892  17.6696647
   3.7408670  65.0773539  18.2706638   3.7270239  64.1814633  17.9338936
   4.4581098  65.0844203  18.9044924   5.5934800  65.5110880  20.3159765
   5.3352578  66.4327950  20.3144096   5.0619841  65.1141314  21.0060229
  10.5380989  78.6161667  13.0949851  10.7117867  78.0508089  12.3423703
  11.0309880  79.4162562  12.9129341  16.3920380  71.3798090  14.7140150
  16.8351526  70.6305415  14.3159274  15.5146891  71.3708226  14.3313882
  11.5256162  77.9328431  10.1946749  12.2207066  78.5535124  10.4134064
  11.8679312  77.0823782  10.4699127  13.4247585  75.3828137  11.7234080
  13.9498909  75.7215409  10.9983400  13.3369937  74.4475152  11.5397214
   5.0867634  79.2962210  23.8523956   5.3954760  79.0511357  24.7246656
   5.8843116  79.5008849  23.3642827   5.1088246  81.4500120  16.0829333
   4.6693236  80.9576499  16.7762190   5.8596363  80.9073088  15.8421408
   2.5562118  76.9938129  18.1551635   1.9342127  76.3308834  17.8553862
   3.2266985  77.0199261  17.4725282   2.6286645  65.4719917  27.7484141
   2.6774801  66.3482040  27.3661910   3.1709159  64.9297310  27.1755784
  13.1141491  76.0161040  27.0285278  12.3237035  75.9985179  26.4889777
  12.8774845  76.5549334  27.7834314  13.2339366  72.8653507  24.3418006
  13.2837371  72.7003514  25.2833529  13.1253289  71.9980766  23.9515887
  10.5243128  68.8484435  25.6577313  11.4252991  68.7090900  25.3661311
  10.5991103  69.0138890  26.5975490   4.8585934  66.2251289  24.5030499
   3.9889243  66.5184856  24.2313088   5.0945414  66.8091734  25.2237763
  14.7357563  75.2850448  24.5860028  14.4442371  75.6480429  25.4223489
  14.1229694  74.5717456  24.4073360  15.9353245  72.8503328  17.1062598
  16.7700137  73.2893132  17.2700158  16.0712374  72.3741981  16.2870844
  12.9844751  70.4083063  23.0540086  13.4598873  70.6010709  22.2458937
  12.0610316  70.4642249  22.8083469   7.5624968  62.4430906  22.0195920
   8.0806911  63.1791933  21.6942408   7.2080100  62.7494900  22.8542679
   7.8137562  58.8631189  17.5396816   8.0939315  58.1954378  18.1657243
   8.5988169  59.0560285  17.0271480  11.6846420  67.2848823  21.2868391
  12.6363843  67.3846921  21.3080615  11.5149870  66.4927091  21.7966476
   9.7060800  64.3704406  21.4727792   9.1110732  64.6509419  20.7774281
   9.4210496  64.8598307  22.2444533  14.1634498  70.5054943  20.4010691
  14.1310818  69.5670943  20.5870375  14.7735121  70.5838979  19.6676516
  14.3128986  67.2965986  20.4468974  13.7968035  66.5124443  20.2598903
  15.1968935  66.9684703  20.6115494  11.9739713  61.0407002  16.4064787
  11.7764534  60.7322090  17.2908119  12.5839419  61.7668641  16.5362717
  19.9811048  71.5670949  19.5416728  20.7114436  71.3056238  20.1024431
  19.3717993  70.8299671  19.5818796  18.0626345  69.7078812  20.1391179
  17.3359508  69.5734777  19.5307671  17.6473632  70.0155641  20.9447897
   5.8856521  73.4268742  27.9038552   6.8059531  73.6047341  28.0978598
   5.8506104  72.4824787  27.7518251   3.7546459  66.9102982  29.9364082
   3.6543186  67.8597339  29.8676173   3.5368001  66.5821221  29.0640152
   9.5595733  62.4321491  15.8661303  10.0595512  62.5438026  15.0575622
  10.2031341  62.1282544  16.5062111   3.6177729  70.3400121  28.7529144
   3.1344811  71.1400481  28.9593033   3.7038668  70.3508066  27.7996588
  13.2431581  65.2163045  16.4350670  14.0191971  65.7059497  16.7075287
  12.5179715  65.6421099  16.8922539  15.6804140  65.9290664  17.4924611
  16.2748631  65.6886400  16.7817919  15.7530723  65.2097795  18.1198147
   9.8658069  70.7071060  12.9346621   9.8093270  71.1639611  12.0954253
  10.4186411  69.9461745  12.7569464  13.6762875  66.4960792  13.7596740
  13.4199809  66.0957428  14.5904948  13.0515743  67.2104586  13.6346879
  17.9875212  69.2356865  16.2668032  17.4274770  69.3050054  17.0399594
  17.3818716  69.0597850  15.5467528  10.9446956  75.3943728   8.8642811
  11.7792560  74.9624926   8.6820285  10.7831299  75.2225742   9.7919705
  10.5992848  71.8975841  10.2299150  10.5441652  71.7320113   9.2887594
   9.9738903  72.6051874  10.3861340   7.9138755  74.2024753  29.5552713
   8.7829915  74.3765405  29.1939348   7.4345507  75.0219170  29.4328442
   2.0824935  81.3221854  21.2342146   2.9852182  81.3545464  21.5508641
   1.8562305  80.3922305  21.2488482   3.8378537  80.0752841  17.8952225
   2.8874168  80.0754702  17.7816597   4.1411024  79.3285575  17.3788260
  19.5731231  85.9113379  18.9597987  20.2109641  85.7920126  18.2561328
  19.4552074  86.8594223  19.0185940  16.3820937  85.8640807  18.8959512
  16.0439449  85.7481872  18.0080047  17.2510705  85.4631972  18.8760518
  12.2407753  87.7176284  14.8856403  11.6772618  87.6266220  14.1172691
  12.1260148  86.8976188  15.3658896  16.8640720  87.0175659  24.8545718
  16.8529361  86.6228457  23.9826221  17.0261360  86.2841731  25.4479489
   9.7872185  89.2127475  17.7240624  10.5793477  88.8718300  17.3086923
  10.0268835  89.3222450  18.6442777  13.5847981  89.8012771  23.8024902
  13.2937847  90.7058402  23.6871568  14.2204966  89.8429298  24.5168971
  14.5104188  87.1789619  20.3926261  15.1067760  86.9545642  19.6783224
  14.5679160  86.4374365  20.9951709  19.1272499  83.6364833  16.0351195
  19.9135589  83.2184256  15.6841612  19.3911204  84.5410925  16.2032844
  19.2982577  89.0737683  10.7339852  18.6628410  89.1472310  11.4460757
  18.9679983  89.6631282  10.0558932  24.5280927  83.5740066  16.9384174
  25.2606098  83.0039283  17.1722003  23.7720282  83.1861667  17.3790680
  16.1457046  85.9967308  14.1347516  15.7815253  85.4697929  14.8460438
  17.0024162  85.6065777  13.9614002  22.0506347  77.2861640  21.3978783
  21.7189672  78.1557051  21.1739998  21.4551960  76.9697924  22.0772813
  15.7862533  81.0257207   9.1308865  15.9536936  81.8937444   9.4979336
  15.5959702  81.1884489   8.2070154  18.5437866  89.4874186  20.7974695
  18.2438590  90.3899225  20.6890503  18.1988926  89.2206369  21.6495848
  11.9950348  85.9387983  16.8311400  11.0700844  85.8064197  17.0389092
  12.2434761  86.7182202  17.3281342  21.9435010  82.0056726  18.4772133
  21.0351888  81.9372135  18.1830894  21.8922606  82.4828671  19.3053958
  15.7651754  83.4814865  10.1155532  15.6451379  83.9271916  10.9541012
  15.0704342  83.8300182   9.5569070   9.3559159  85.5821257  17.6655189
   9.4851540  85.8355735  18.5794601   8.6756610  86.1748965  17.3459844
  16.0175876  83.4246372  26.4207030  15.2409210  83.9840292  26.4109895
  16.6566439  83.9103155  26.9421900  23.8096657  80.2073165  20.2550007
  23.1671037  80.5005698  19.6089801  23.3051585  80.0926085  21.0603203
  21.4636820  83.9536338  10.9435866  22.3754676  84.1863725  10.7683563
  20.9546467  84.5373382  10.3810944  14.2722248  86.2331825  25.9824997
  15.0136933  86.7716869  25.7059821  13.5659234  86.8598114  26.1396549
  19.7477588  88.3760966  24.5797158  20.1560944  87.9343376  23.8351791
  19.0254849  87.8013593  24.8331351  16.1008658  83.3133573  21.9530715
  16.9469853  83.7372986  22.0965364  16.0407296  82.6567197  22.6469278
  20.0706403  88.9362156  18.3349447  19.4415265  89.1007871  17.6325515
  19.6832065  89.3503766  19.1060411  23.9495634  89.8716594  15.6893811
  23.2646673  90.2515496  15.1390844  24.0339484  90.4811921  16.4225759
  19.2508103  80.9737941  23.6111889  19.0069035  81.7280001  23.0746165
  19.5268034  81.3523289  24.4459136  21.2046566  87.5176553  22.2889155
  21.4163461  88.1608313  21.6123536  21.1576314  86.6838870  21.8211085
  18.8072795  80.1294374  19.1925727  17.9457274  80.4275627  19.4842464
  18.8335230  80.3464773  18.2606759  15.6234364  88.6736564  15.5999532
  16.0872710  88.9524267  14.8104155  15.3591163  87.7720009  15.4172623
  12.5158446  88.2208046  18.5379296  13.0859803  88.6495314  17.8996780
  13.1066557  87.9390631  19.2363481  14.5603251  84.7959717  12.4089098
  15.2627294  85.2480761  12.8763024  14.2283879  84.1543536  13.0368991
  13.0083612  83.3871473  26.7840307  12.3782273  84.0687754  27.0175704
  12.9019700  83.2754555  25.8393445   8.3028584  83.0543270  17.7106231
   7.5127638  83.3100798  17.2346342   8.7939832  83.8691607  17.8158272
  22.3192394  90.3948509  20.4611512  23.1409838  89.9928696  20.1794194
  22.3154797  90.2916743  21.4127628  10.2543330  83.4187849  14.6689708
   9.4574493  83.5306543  15.1873203  10.0268922  83.7574501  13.8030598
  16.0848997  89.9432552  22.6172222  16.1493430  90.4052959  23.4530394
  15.3759921  89.3129917  22.7454532   6.5866287  83.3073760  20.1421222
   6.8374326  84.1920770  20.4078798   7.1225836  83.1278361  19.3696314
  30.4098387  86.7387257  16.8096483  29.6562095  86.1694655  16.6540488
  30.5445928  86.7049922  17.7567118  12.2864355  77.6892239  29.1465558
  11.8931300  77.1358438  29.8213202  13.1030495  78.0002818  29.5372075
  15.2032316  79.1050118  26.7385815  15.9442029  79.7057272  26.6590277
  15.4350239  78.3627756  26.1803857  10.3473654  84.2906486  25.0164044
  10.2327169  83.3891743  25.3171143   9.4918172  84.5370182  24.6648861
  17.4265492  92.2324226  26.6151545  16.9829346  91.4460605  26.2972449
  18.0882705  92.4203376  25.9495436  12.1852613  93.7620028  21.1412223
  12.7360038  93.6337091  20.3689217  11.3464089  94.0614917  20.7907116
  19.5246730  92.5127026  24.6432946  19.5065205  93.3335907  24.1513215
  20.4466650  92.3881101  24.8683087  15.9819784  90.0271155  25.4856454
  16.5148121  89.2659444  25.2555762  15.4533865  89.7344807  26.2280609
  19.1489479  75.1331221  21.0150096  18.8053748  76.0232863  20.9389207
  19.5168441  74.9432879  20.1519681  19.1139761  85.1239832   9.5222531
  18.5986385  85.8944437   9.7610919  18.8417070  84.4504969  10.1455593
  16.6986872  79.9689533  14.5807770  15.8428469  79.5796384  14.4013408
  17.1113824  80.0481494  13.7207555  18.2286019  77.5035877  18.9799329
  17.7250815  77.4666012  18.1667135  18.5216626  78.4128619  19.0395986
  14.4728905  77.5874606  17.9865511  15.3381902  77.3917415  17.6271401
  14.5406414  77.3584958  18.9134868  24.0874036  87.8772187  11.4575705
  23.3103478  87.5383347  11.0130867  24.7665517  87.8824810  10.7830670
  18.9026065  82.9966925  11.3482312  18.5976200  83.3113074  12.1992456
  19.8556507  83.0748344  11.3909645  17.3472496  89.1557148  12.9975266
  16.8193858  88.4209907  12.6848504  16.8459999  89.9331824  12.7515235
  22.3265342  87.3506168  18.1142313  21.6689017  88.0405430  18.2022441
  23.1305742  87.7402600  18.4576299  12.0791224  79.8176814  15.3581878
  12.6534976  79.5951996  14.6255071  12.6662206  79.8865509  16.1110479
  21.1370801  85.7050541  16.1646255  21.6502683  86.3380533  16.6667964
  21.7872025  85.1051737  15.7989615  14.3813892  76.6918063  14.0856947
  13.7278304  76.3767080  13.4613562  14.3394366  76.0693804  14.8116770
  17.6151632  83.1799997  18.4104595  16.6974194  83.4014944  18.2526283
  18.0311776  83.2546307  17.5516302  18.3986680  84.5791412  13.5407275
  19.1458499  85.0912809  13.2314397  18.6678269  84.2575465  14.4011669
  16.6713330  87.0749953  10.5234230  15.7624549  86.7908986  10.6206699
  16.7008414  87.4949032   9.6637536  21.9032597  90.6856543  14.2925397
  21.4494925  89.8447452  14.3490588  21.2726564  91.3217941  14.6300177
  20.8465517  81.6148529  15.5226065  20.1088274  81.1025915  15.8536307
  21.0992291  81.1748910  14.7109341  20.3465537  92.5233039  15.2275215
  20.6388511  93.0838096  14.5087581  20.8564157  92.8161600  15.9828374
  20.9477144  74.3924781  16.1167834  21.2536021  73.5322144  15.8293749
  21.6729749  74.9842401  15.9166828  15.2198224  84.6878574  16.6244025
  15.2746834  83.7352410  16.5486502  14.4089426  84.8438013  17.1085323
  13.1590584  83.3055633  14.3834404  12.3458450  83.6049804  14.7899596
  13.6549578  82.9111322  15.1008886  15.3099162  93.3013390  16.3168669
  15.2675341  93.5274237  15.3877201  16.2261861  93.0676765  16.4654470
  18.7564796  83.7697458  23.2149298  19.1114183  83.9968931  24.0743763
  19.4036927  84.1015835  22.5926553  24.4862533  86.8915894  13.9198627
  24.3480431  87.0817490  12.9919816  24.1298751  87.6535277  14.3766678
  12.6504659  80.8773989  19.9995639  13.2904038  80.7362748  19.3018602
  11.8182189  80.5908502  19.6234241  24.5131912  88.9592421  18.9309898
  24.9468419  88.8667710  19.7792952  25.2263493  88.9349921  18.2929914
  13.4264963  90.1776419  16.1130631  14.2205561  89.6826739  15.9113206
  12.7156655  89.6494282  15.7498337  18.2459807  92.5594515  20.4642999
  18.2996829  93.1285451  21.2320715  17.3774589  92.7296400  20.0997036
   9.6533275  80.8474314  14.7768626   9.9140093  81.7619647  14.6677786
  10.4750448  80.3798756  14.9265238  11.1258201  82.2612071  21.9467450
  11.7981254  82.0529433  21.2980099  10.2987987  82.0634157  21.5072682
  25.3747462  89.0016121  21.4642784  25.5683352  89.9061932  21.7102059
  25.2748080  88.5423540  22.2981369  17.0283773  78.8874012  23.9633111
  16.3811688  79.5863962  23.8697587  17.7984788  79.3210156  24.3309359
  20.4362570  89.1522864  27.0383664  20.2848077  88.9233416  26.1213748
  20.4267250  90.1093466  27.0515009  17.2047907  86.7254777  22.0229931
  18.1339967  86.8765936  21.8498898  16.7838937  86.8138798  21.1678577
  16.0036239  90.7505441  19.7928468  15.8647324  90.3824226  20.6654406
  15.2150835  91.2653081  19.6212426  17.5541454  90.1287044  17.1817306
  17.2191286  90.0887814  18.0774956  17.0545400  89.4631760  16.7087716
  11.5285698  85.5354674  22.7069887  11.3905496  84.8034913  23.3081426
  12.4390621  85.4463574  22.4254075  14.1567998  85.2474633  22.1953567
  14.8667617  84.6067826  22.1540185  14.1137307  85.4987528  23.1179748
  22.1454777  92.1841987  25.1160146  22.0867323  91.5001207  24.4490729
  22.5474296  92.9260977  24.6640772  12.8696932  82.2339851  24.0149206
  12.3334289  81.7830590  24.6670803  12.2813641  82.3685760  23.2719671
  22.1472184  90.1481571  23.3474126  21.2598963  89.8107492  23.4700525
  22.7170735  89.4164602  23.5842891   8.6036054  81.3695859  21.1002201
   8.5194242  80.7621528  20.3652611   7.7818760  81.8604877  21.1011697
  15.6773338  94.8083023  20.3135369  15.6043509  95.6137994  20.8254674
  15.2350731  95.0074989  19.4883390  18.7759768  79.8549422  16.4672396
  19.2728467  79.1019385  16.1473466  18.0046749  79.8913739  15.9015605
  26.6289525  85.5589788  18.1090687  26.6179401  86.4414503  17.7384621
  25.7606904  85.2061339  17.9145225  18.1372021  94.7069857  22.4693528
  18.8499994  95.3417322  22.3969429  17.6462050  94.8033723  21.6533530
  19.8589548  88.6121110  14.0410819  18.9245827  88.7322572  13.8715524
  20.0366217  87.7093576  13.7770829  15.3594736  81.9966805  16.1944081
  14.9892524  81.4437846  16.8824986  15.8553829  81.3924939  15.6419081
  23.2462100  84.4538429  14.5760853  23.7122552  85.2866421  14.5021156
  23.6969600  83.9883411  15.2806112  13.1883935  92.4564300  23.2899098
  13.8893394  93.0900783  23.4428493  12.7179050  92.7979032  22.5294738
  21.3138331  90.7982250  11.5747006  21.5898175  90.6838845  12.4840880
  20.4442829  90.3999735  11.5359179  21.2178762  76.8219016  18.6151755
  20.3041842  77.0523243  18.7833962  21.6471864  76.9057460  19.4665787
  20.9885221  85.0108908  21.1151649  20.3356671  85.2584815  20.4604102
  21.3665601  84.1973046  20.7814126  17.9492395  95.0468601  15.2179819
  18.1314789  94.2290257  15.6807571  18.7725381  95.2636293  14.7804709
  18.2834560  93.9736786  12.4794868  18.8122327  93.4629241  11.8665030
  18.5462780  93.6579316  13.3440401  17.0372794  85.7528719  27.6017686
  16.3613431  85.6522848  28.2720061  17.8600428  85.5967933  28.0653683
   8.7851653  91.9900655  20.2230201   9.3705090  91.2444343  20.3558105
   8.5876491  92.3004612  21.1066865  15.7795577  97.0595646  21.8375302
  16.3313885  97.2227268  22.6024387  16.1201770  97.6500084  21.1655327
  10.7560070  79.4070796  22.4397187  10.8201396  80.2685627  22.0274584
  10.6927190  78.7944798  21.7069545  10.2312342  81.4793929  26.0870221
  10.8584381  81.0971006  26.7007745   9.3740261  81.2608131  26.4525913
  20.6306451  91.8856904  27.6923956  21.1746355  92.4986862  27.1978911
  20.0493296  92.4436482  28.2090969  18.9163964  95.0077622  18.8238984
  18.7915103  94.2067362  18.3149930  19.5743055  95.5023815  18.3352954
  10.5372132  81.3626354  18.0016124   9.8158718  81.9762322  17.8623598
  11.3265388  81.8984119  17.9232770  20.9798872  92.8086642  20.4518534
  20.0329208  92.6891993  20.3796861  21.3281645  91.9209140  20.5344796
  13.3398446  78.6980781  24.2756776  13.8632848  78.9443077  25.0383085
  13.1210779  79.5300816  23.8559913  17.9845306  92.6039358  16.6522886
  17.8370268  91.6756066  16.8330456  18.8098799  92.6259449  16.1679962
  11.8507550  81.2557425  12.5103379  12.1903622  81.7843347  11.7881987
  12.2979670  81.5937831  13.2861945  21.5879428  93.4267917  17.7387759
  22.5125975  93.2210778  17.6012210  21.4194731  93.1784318  18.6477101
  14.5450991  79.6394476  21.9606447  14.2047811  78.8402289  22.3627126
  13.8389997  79.9396187  21.3883280  15.1967463  76.7243788  20.4133770
  16.0193532  76.2504267  20.2912660  15.4405526  77.5034272  20.9132456
  13.8375697  79.7532047  10.7096671  14.5584060  80.1313300  10.2060388
  13.2141001  80.4720924  10.8131649  17.9806820  80.4577196  11.6455004
  18.1970434  81.3401834  11.3443832  17.5000887  80.0663409  10.9160646
  12.7206041  83.4162909  18.2225748  12.5750622  83.7303212  19.1150030
  12.2431245  84.0347809  17.6696647  14.5802424  80.4065457  18.2706638
  14.5663993  79.5106550  17.9338936  15.2974852  80.4136121  18.9044924
  16.4328555  80.8402797  20.3159765  16.1746333  81.7619868  20.3144096
  15.9013595  80.4433232  21.0060229  21.3774744  93.9453584  13.0949851
  21.5511621  93.3800007  12.3423703  21.8703635  94.7454479  12.9129341
   7.1951704  85.9568254  21.1613409   6.6505172  86.7328061  21.2933684
   8.0731053  86.3039058  21.0032531  13.9839320  79.2879837  13.5394208
  14.1055231  78.3596484  13.7385095  13.6941363  79.3018523  12.6272523
  16.8530511  76.9734748  16.6760928  16.8752207  77.0374081  15.7212907
  17.2698570  76.1339256  16.8701434  27.2314135  86.7090007  14.7140150
  27.6745281  85.9597333  14.3159274  26.3540645  86.7000144  14.3313882
  22.3649916  93.2620349  10.1946749  23.0600821  93.8827042  10.4134064
  22.7073066  92.4115700  10.4699127   7.9817725  85.0838150  24.0543566
   7.2399461  85.2320785  24.6408197   7.6610470  85.3446415  23.1910316
  24.2641339  90.7120054  11.7234080  24.7892663  91.0507327  10.9983400
  24.1763692  89.7767070  11.5397214  15.9261388  94.6254128  23.8523956
  16.2348514  94.3803275  24.7246656  16.7236870  94.8300766  23.3642827
  15.9482000  96.7792038  16.0829333  15.5086990  96.2868416  16.7762190
  16.6990117  96.2365005  15.8421408  13.3955872  92.3230047  18.1551635
  12.7735882  91.6600752  17.8553862  14.0660739  92.3491179  17.4725282
  13.4680400  80.8011835  27.7484141  13.5168555  81.6773958  27.3661910
  14.0102914  80.2589228  27.1755784  23.9535245  91.3452958  27.0285278
  23.1630789  91.3277097  26.4889777  23.7168600  91.8841252  27.7834314
  24.0733120  88.1945424  24.3418006  24.1231125  88.0295432  25.2833529
  23.9647044  87.3272683  23.9515887  21.3636883  84.1776352  25.6577313
  22.2646746  84.0382817  25.3661311  21.4384857  84.3430807  26.5975490
  15.6979688  81.5543207  24.5030499  14.8282998  81.8476773  24.2313088
  15.9339169  82.1383652  25.2237763  25.5751317  90.6142366  24.5860028
  25.2836126  90.9772346  25.4223489  24.9623449  89.9009374  24.4073360
  26.7747000  88.1795246  17.1062598  27.6093891  88.6185050  17.2700158
  26.9106128  87.7033899  16.2870844  23.8238506  85.7374981  23.0540086
  24.2992627  85.9302627  22.2458937  22.9004071  85.7934166  22.8083469
  18.4018722  77.7722824  22.0195920  18.9200666  78.5083851  21.6942408
  18.0473855  78.0786817  22.8542679  18.6531316  74.1923107  17.5396816
  18.9333070  73.5246296  18.1657243  19.4381923  74.3852202  17.0271480
  22.5240175  82.6140741  21.2868391  23.4757597  82.7138838  21.3080615
  22.3543625  81.8219009  21.7966476  20.5454554  79.6996324  21.4727792
  19.9504486  79.9801337  20.7774281  20.2604251  80.1890225  22.2444533
  25.0028252  85.8346860  20.4010691  24.9704572  84.8962861  20.5870375
  25.6128876  85.9130897  19.6676516  25.1522741  82.6257904  20.4468974
  24.6361789  81.8416360  20.2598903  26.0362689  82.2976620  20.6115494
  22.8133468  76.3698919  16.4064787  22.6158289  76.0614007  17.2908119
  23.4233173  77.0960558  16.5362717  30.8204802  86.8962867  19.5416728
  31.5508191  86.6348155  20.1024431  30.2111748  86.1591589  19.5818796
  28.9020099  85.0370730  20.1391179  28.1753263  84.9026695  19.5307671
  28.4867386  85.3447558  20.9447897  16.7250276  88.7560659  27.9038552
  17.6453285  88.9339258  28.0978598  16.6899859  87.8116705  27.7518251
   5.9432441  83.9499253  16.8291827   5.6235225  83.0964561  16.5366201
   5.3965869  84.1647831  17.5849794   9.7212348  86.6661694  20.5461333
   9.9398358  87.5978802  20.5649367  10.1338122  86.3069668  21.3316137
  16.6416566  77.1729779  12.5337021  15.8317294  76.8276864  12.9092268
  17.3300983  76.8637323  13.1224633  18.5707114  76.2507826  14.1561318
  19.1238153  76.6703280  14.8151341  18.8077201  75.3243574  14.1984274
  14.5940214  82.2394900  29.9364082  14.4936940  83.1889257  29.8676173
  14.3761756  81.9113139  29.0640152  21.9485921  78.3608351  13.6639982
  21.3684590  79.0193155  13.2818035  21.6821854  77.5385696  13.2527400
  20.3989488  77.7613409  15.8661303  20.8989266  77.8729944  15.0575622
  21.0425096  77.4574462  16.5062111  14.4571484  85.6692039  28.7529144
  13.9738565  86.4692399  28.9593033  14.5432423  85.6799984  27.7996588
  10.3844821  89.5596573  20.7897577  11.3388075  89.5280516  20.7227509
  10.1857345  89.0987197  21.6047803  10.9744203  88.1297689  23.3568375
  11.7937092  88.6241768  23.3803212  11.2481011  87.2129658  23.3285943
  20.7310799  80.5208442  12.7196331  19.8436654  80.8058092  12.5016525
  21.1464789  80.3602205  11.8723608  24.0825336  80.5454963  16.4350670
  24.8585726  81.0351415  16.7075287  23.3573470  80.9713017  16.8922539
  26.5197894  81.2582582  17.4924611  27.1142385  81.0178318  16.7817919
  26.5924478  80.5389712  18.1198147  20.7051823  86.0362978  12.9346621
  20.6487025  86.4931529  12.0954253  21.2580166  85.2753662  12.7569464
  24.5156629  81.8252710  13.7596740  24.2593563  81.4249345  14.5904948
  23.8909497  82.5396503  13.6346879  28.8268967  84.5648783  16.2668032
  28.2668525  84.6341972  17.0399594  28.2212470  84.3889767  15.5467528
  21.7840710  90.7235646   8.8642811  22.6186314  90.2916844   8.6820285
  21.6225053  90.5517659   9.7919705  21.4386603  87.2267759  10.2299150
  21.3835406  87.0612030   9.2887594  20.8132658  87.9343792  10.3861340
   6.2279117  82.4635823  24.0560572   6.8737981  81.9534777  24.5447797
   6.0196269  83.2004505  24.6303997  18.7532510  89.5316671  29.5552713
  19.6223669  89.7057323  29.1939348  18.2739261  90.3511088  29.4328442
  14.7482728  76.7275868   9.8084468  14.7361398  77.6717708   9.9652739
  15.6406150  76.5446013   9.5143930  12.9218690  96.6513772  21.2342146
  13.8245937  96.6837382  21.5508641  12.6956060  95.7214223  21.2488482
  14.6772292  95.4044758  17.8952225  13.7267923  95.4046620  17.7816597
  14.9804778  94.6577493  17.3788260  18.5634847  73.3218645  14.0630405
  17.7967243  72.7677131  14.2087088  18.9745552  73.3940513  14.9244557
  10.5676608  79.6103440  28.1535586  11.4308070  79.2540245  28.3638911
   9.9942019  79.2717335  28.8410991  30.4124985 101.2405297  18.9597987
  31.0503395 101.1212044  18.2561328  30.2945828 102.1886141  19.0185940
  27.2214692 101.1932725  18.8959512  26.8833203 101.0773789  18.0080047
  28.0904460 100.7923890  18.8760518  23.0801507 103.0468201  14.8856403
  22.5166373 102.9558138  14.1172691  22.9653902 102.2268106  15.3658896
  27.7034475 102.3467577  24.8545718  27.6923115 101.9520375  23.9826221
  27.8655114 101.6133649  25.4479489  20.6265939 104.5419393  17.7240624
  21.4187231 104.2010217  17.3086923  20.8662589 104.6514368  18.6442777
  24.4241736 105.1304688  23.8024902  24.1331602 106.0350319  23.6871568
  25.0598720 105.1721216  24.5168971  25.3497943 102.5081537  20.3926261
  25.9461515 102.2837559  19.6783224  25.4072914 101.7666282  20.9951709
  29.9666254  98.9656751  16.0351195  30.7529343  98.5476174  15.6841612
  30.2304958  99.8702843  16.2032844  30.1376331 104.4029601  10.7339852
  29.5022164 104.4764227  11.4460757  29.8073738 104.9923200  10.0558932
  35.3674681  98.9031984  16.9384174  36.0999853  98.3331201  17.1722003
  34.6114037  98.5153584  17.3790680  26.9850801 101.3259225  14.1347516
  26.6209008 100.7989846  14.8460438  27.8417917 100.9357694  13.9614002
  32.8900101  92.6153558  21.3978783  32.5583426  93.4848969  21.1739998
  32.2945715  92.2989842  22.0772813  26.6256288  96.3549125   9.1308865
  26.7930690  97.2229361   9.4979336  26.4353457  96.5176407   8.2070154
  29.3831621 104.8166104  20.7974695  29.0832344 105.7191143  20.6890503
  29.0382680 104.5498287  21.6495848  22.8344102 101.2679901  16.8311400
  21.9094599 101.1356115  17.0389092  23.0828516 102.0474120  17.3281342
  32.7828765  97.3348644  18.4772133  31.8745642  97.2664052  18.1830894
  32.7316360  97.8120589  19.3053958  26.6045509  98.8106782  10.1155532
  26.4845134  99.2563833  10.9541012  25.9098097  99.1592100   9.5569070
  20.1952913 100.9113174  17.6655189  20.3245295 101.1647653  18.5794601
  19.5150365 101.5040882  17.3459844  26.8569630  98.7538290  26.4207030
  26.0802965  99.3132210  26.4109895  27.4960194  99.2395073  26.9421900
  34.6490411  95.5365082  20.2550007  34.0064791  95.8297616  19.6089801
  34.1445340  95.4218003  21.0603203  32.3030575  99.2828256  10.9435866
  33.2148431  99.5155642  10.7683563  31.7940222  99.8665300  10.3810944
  25.1116003 101.5623743  25.9824997  25.8530687 102.1008787  25.7059821
  24.4052988 102.1890032  26.1396549  30.5871342 103.7052883  24.5797158
  30.9954698 103.2635294  23.8351791  29.8648604 103.1305511  24.8331351
  26.9402412  98.6425490  21.9530715  27.7863608  99.0664904  22.0965364
  26.8801050  97.9859115  22.6469278  30.9100157 104.2654074  18.3349447
  30.2809020 104.4299788  17.6325515  30.5225819 104.6795684  19.1060411
  34.7889389 105.2008512  15.6893811  34.1040427 105.5807413  15.1390844
  34.8733238 105.8103839  16.4225759  30.0901858  96.3029859  23.6111889
  29.8462790  97.0571919  23.0746165  30.3661788  96.6815206  24.4459136
  32.0440321 102.8468471  22.2889155  32.2557216 103.4900231  21.6123536
  31.9970069 102.0130788  21.8211085  29.6466550  95.4586292  19.1925727
  28.7851029  95.7567545  19.4842464  29.6728984  95.6756690  18.2606759
  26.4628119 104.0028482  15.5999532  26.9266464 104.2816185  14.8104155
  26.1984917 103.1011927  15.4172623  23.3552200 103.5499964  18.5379296
  23.9253557 103.9787232  17.8996780  23.9460312 103.2682548  19.2363481
  25.3997005 100.1251635  12.4089098  26.1021048 100.5772678  12.8763024
  25.0677634  99.4835453  13.0368991  23.8477367  98.7163391  26.7840307
  23.2176027  99.3979672  27.0175704  23.7413454  98.6046473  25.8393445
  19.1422339  98.3835187  17.7106231  18.3521393  98.6392716  17.2346342
  19.6333586  99.1983525  17.8158272  33.1586149 105.7240426  20.4611512
  33.9803592 105.3220614  20.1794194  33.1548551 105.6208661  21.4127628
  21.0937084  98.7479766  14.6689708  20.2968248  98.8598461  15.1873203
  20.8662677  99.0866419  13.8030598  26.9242752 105.2724470  22.6172222
  26.9887184 105.7344877  23.4530394  26.2153676 104.6421835  22.7454532
  17.4260042  98.6365678  20.1421222  17.6768080  99.5212688  20.4078798
  17.9619590  98.4570279  19.3696314  41.2492142 102.0679175  16.8096483
  40.4955850 101.4986573  16.6540488  41.3839683 102.0341839  17.7567118
  23.1258109  93.0184157  29.1465558  22.7325055  92.4650356  29.8213202
  23.9424250  93.3294735  29.5372075  26.0426070  94.4342036  26.7385815
  26.7835784  95.0349189  26.6590277  26.2743993  93.6919674  26.1803857
  21.1867408  99.6198403  25.0164044  21.0720923  98.7183661  25.3171143
  20.3311926  99.8662100  24.6648861  28.2659246 107.5616144  26.6151545
  27.8223100 106.7752522  26.2972449  28.9276460 107.7495294  25.9495436
  23.0246367 109.0911945  21.1412223  23.5753792 108.9629009  20.3689217
  22.1857843 109.3906834  20.7907116  30.3640484 107.8418944  24.6432946
  30.3458959 108.6627825  24.1513215  31.2860404 107.7173019  24.8683087
  26.8213538 105.3563073  25.4856454  27.3541875 104.5951361  25.2555762
  26.2927619 105.0636725  26.2280609  29.9883233  90.4623139  21.0150096
  29.6447503  91.3524781  20.9389207  30.3562196  90.2724797  20.1519681
  29.9533516 100.4531750   9.5222531  29.4380139 101.2236355   9.7610919
  29.6810824  99.7796886  10.1455593  27.5380627  95.2981451  14.5807770
  26.6822223  94.9088301  14.4013408  27.9507579  95.3773412  13.7207555
  29.0679774  92.8327794  18.9799329  28.5644569  92.7957929  18.1667135
  29.3610380  93.7420537  19.0395986  25.3122659  92.9166524  17.9865511
  26.1775656  92.7209333  17.6271401  25.3800168  92.6876876  18.9134868
  34.9267790 103.2064105  11.4575705  34.1497233 102.8675264  11.0130867
  35.6059271 103.2116728  10.7830670  29.7419819  98.3258842  11.3482312
  29.4369955  98.6404991  12.1992456  30.6950261  98.4040262  11.3909645
  28.1866251 104.4849066  12.9975266  27.6587613 103.7501825  12.6848504
  27.6853754 105.2623742  12.7515235  33.1659097 102.6798086  18.1142313
  32.5082771 103.3697347  18.2022441  33.9699496 103.0694518  18.4576299
  22.9184979  95.1468732  15.3581878  23.4928730  94.9243913  14.6255071
  23.5055961  95.2157426  16.1110479  31.9764556 101.0342459  16.1646255
  32.4896438 101.6672451  16.6667964  32.6265780 100.4343654  15.7989615
  25.2207646  92.0209981  14.0856947  24.5672059  91.7058998  13.4613562
  25.1788120  91.3985721  14.8116770  28.4545387  98.5091914  18.4104595
  27.5367948  98.7306861  18.2526283  28.8705530  98.5838225  17.5516302
  29.2380434  99.9083330  13.5407275  29.9852253 100.4204727  13.2314397
  29.5072024  99.5867383  14.4011669  27.5107085 102.4041871  10.5234230
  26.6018304 102.1200903  10.6206699  27.5402168 102.8240949   9.6637536
  32.7426352 106.0148460  14.2925397  32.2888679 105.1739370  14.3490588
  32.1120319 106.6509859  14.6300177  31.6859272  96.9440446  15.5226065
  30.9482028  96.4317832  15.8536307  31.9386045  96.5040828  14.7109341
  31.1859291 107.8524957  15.2275215  31.4782266 108.4130014  14.5087581
  31.6957912 108.1453518  15.9828374  31.7870899  89.7216698  16.1167834
  32.0929776  88.8614062  15.8293749  32.5123504  90.3134318  15.9166828
  26.0591979 100.0170491  16.6244025  26.1140588  99.0644328  16.5486502
  25.2483181 100.1729930  17.1085323  23.9984339  98.6347551  14.3834404
  23.1852204  98.9341722  14.7899596  24.4943333  98.2403240  15.1008886
  26.1492916 108.6305308  16.3168669  26.1069095 108.8566154  15.3877201
  27.0655615 108.3968683  16.4654470  29.5958550  99.0989376  23.2149298
  29.9507938  99.3260849  24.0743763  30.2430681  99.4307752  22.5926553
  35.3256287 102.2207811  13.9198627  35.1874186 102.4109407  12.9919816
  34.9692506 102.9827194  14.3766678  23.4898413  96.2065907  19.9995639
  24.1297793  96.0654666  19.3018602  22.6575944  95.9200420  19.6234241
  35.3525667 104.2884338  18.9309898  35.7862173 104.1959627  19.7792952
  36.0657247 104.2641839  18.2929914  24.2658717 105.5068337  16.1130631
  25.0599316 105.0118657  15.9113206  23.5550410 104.9786200  15.7498337
  29.0853562 107.8886433  20.4642999  29.1390584 108.4577369  21.2320715
  28.2168343 108.0588318  20.0997036  20.4927030  96.1766232  14.7768626
  20.7533847  97.0911565  14.6677786  21.3144202  95.7090674  14.9265238
  21.9651955  97.5903989  21.9467450  22.6375008  97.3821351  21.2980099
  21.1381742  97.3926075  21.5072682  36.2141216 104.3308039  21.4642784
  36.4077106 105.2353850  21.7102059  36.1141834 103.8715458  22.2981369
  27.8677527  94.2165930  23.9633111  27.2205442  94.9155879  23.8697587
  28.6378542  94.6502074  24.3309359  31.2756325 104.4814782  27.0383664
  31.1241831 104.2525333  26.1213748  31.2661004 105.4385383  27.0515009
  28.0441661 102.0546695  22.0229931  28.9733721 102.2057854  21.8498898
  27.6232691 102.1430715  21.1678577  26.8429993 106.0797359  19.7928468
  26.7041079 105.7116143  20.6654406  26.0544589 106.5944998  19.6212426
  28.3935208 105.4578962  17.1817306  28.0585041 105.4179732  18.0774956
  27.8939154 104.7923678  16.7087716  22.3679452 100.8646592  22.7069887
  22.2299250 100.1326831  23.3081426  23.2784376 100.7755492  22.4254075
  24.9961753 100.5766551  22.1953567  25.7061371  99.9359743  22.1540185
  24.9531061 100.8279446  23.1179748  32.9848532 107.5133904  25.1160146
  32.9261078 106.8293124  24.4490729  33.3868050 108.2552894  24.6640772
  23.7090687  97.5631769  24.0149206  23.1728044  97.1122507  24.6670803
  23.1207395  97.6977678  23.2719671  32.9865939 105.4773488  23.3474126
  32.0992718 105.1399410  23.4700525  33.5564490 104.7456520  23.5842891
  19.4429808  96.6987777  21.1002201  19.3587997  96.0913446  20.3652611
  18.6212515  97.1896795  21.1011697  26.5167092 110.1374941  20.3135369
  26.4437264 110.9429912  20.8254674  26.0744485 110.3366906  19.4883390
  29.6153522  95.1841340  16.4672396  30.1122222  94.4311302  16.1473466
  28.8440504  95.2205657  15.9015605  37.4683279 100.8881706  18.1090687
  37.4573156 101.7706421  17.7384621  36.6000659 100.5353256  17.9145225
  28.9765776 110.0361775  22.4693528  29.6893748 110.6709239  22.3969429
  28.4855804 110.1325641  21.6533530  30.6983303 103.9413027  14.0410819
  29.7639581 104.0614490  13.8715524  30.8759971 103.0385494  13.7770829
  26.1988491  97.3258723  16.1944081  25.8286278  96.7729763  16.8824986
  26.6947583  96.7216857  15.6419081  34.0855854  99.7830347  14.5760853
  34.5516306 100.6158338  14.5021156  34.5363355  99.3175328  15.2806112
  24.0277689 107.7856218  23.2899098  24.7287149 108.4192701  23.4428493
  23.5572804 108.1270950  22.5294738  32.1532085 106.1274168  11.5747006
  32.4291929 106.0130762  12.4840880  31.2836584 105.7291653  11.5359179
  32.0572517  92.1510934  18.6151755  31.1435597  92.3815160  18.7833962
  32.4865618  92.2349378  19.4665787  31.8278975 100.3400826  21.1151649
  31.1750426 100.5876733  20.4604102  32.2059355  99.5264964  20.7814126
  28.7886149 110.3760519  15.2179819  28.9708544 109.5582175  15.6807571
  29.6119135 110.5928211  14.7804709  29.1228315 109.3028704  12.4794868
  29.6516081 108.7921158  11.8665030  29.3856534 108.9871234  13.3440401
  27.8766548 101.0820637  27.6017686  27.2007185 100.9814766  28.2720061
  28.6994182 100.9259850  28.0653683  19.6245407 107.3192573  20.2230201
  20.2098844 106.5736261  20.3558105  19.4270246 107.6296530  21.1066865
  26.6189331 112.3887564  21.8375302  27.1707639 112.5519186  22.6024387
  26.9595525 112.9792002  21.1655327  21.5953824  94.7362714  22.4397187
  21.6595151  95.5977545  22.0274584  21.5320945  94.1236716  21.7069545
  21.0706097  96.8085846  26.0870221  21.6978136  96.4262924  26.7007745
  20.2134016  96.5900048  26.4525913  31.4700206 107.2148822  27.6923956
  32.0140110 107.8278780  27.1978911  30.8887050 107.7728400  28.2090969
  29.7557718 110.3369540  18.8238984  29.6308858 109.5359279  18.3149930
  30.4136810 110.8315733  18.3352954  21.3765887  96.6918272  18.0016124
  20.6552472  97.3054240  17.8623598  22.1659142  97.2276037  17.9232770
  31.8192627 108.1378560  20.4518534  30.8722962 108.0183911  20.3796861
  32.1675400 107.2501058  20.5344796  24.1792200  94.0272699  24.2756776
  24.7026602  94.2734995  25.0383085  23.9604534  94.8592733  23.8559913
  28.8239060 107.9331276  16.6522886  28.6764023 107.0047983  16.8330456
  29.6492554 107.9551367  16.1679962  22.6901304  96.5849343  12.5103379
  23.0297377  97.1135264  11.7881987  23.1373425  96.9229749  13.2861945
  32.4273182 108.7559835  17.7387759  33.3519729 108.5502696  17.6012210
  32.2588485 108.5076236  18.6477101  25.3844745  94.9686394  21.9606447
  25.0441566  94.1694207  22.3627126  24.6783752  95.2688105  21.3883280
  26.0361217  92.0535706  20.4133770  26.8587286  91.5796184  20.2912660
  26.2799281  92.8326190  20.9132456  24.6769452  95.0823965  10.7096671
  25.3977814  95.4605217  10.2060388  24.0534756  95.8012841  10.8131649
  28.8200574  95.7869114  11.6455004  29.0364189  96.6693751  11.3443832
  28.3394642  95.3955327  10.9160646  23.5599796  98.7454827  18.2225748
  23.4144377  99.0595130  19.1150030  23.0825000  99.3639727  17.6696647
  25.4196179  95.7357375  18.2706638  25.4057748  94.8398468  17.9338936
  26.1368607  95.7428039  18.9044924  27.2722309  96.1694715  20.3159765
  27.0140087  97.0911786  20.3144096  26.7407350  95.7725150  21.0060229
  32.2168498 109.2745502  13.0949851  32.3905376 108.7091925  12.3423703
  32.7097389 110.0746397  12.9129341  18.0345458 101.2860171  21.1613409
  17.4898926 102.0619979  21.2933684  18.9124808 101.6330976  21.0032531
  24.8233075  94.6171755  13.5394208  24.9448986  93.6888401  13.7385095
  24.5335117  94.6310441  12.6272523  27.6924265  92.3026665  16.6760928
  27.7145962  92.3665999  15.7212907  28.1092324  91.4631174  16.8701434
  38.0707889 102.0381925  14.7140150  38.5139035 101.2889250  14.3159274
  37.1934400 102.0292061  14.3313882  33.2043671 108.5912267  10.1946749
  33.8994575 109.2118959  10.4134064  33.5466821 107.7407618  10.4699127
  18.8211480 100.4130067  24.0543566  18.0793216 100.5612703  24.6408197
  18.5004224 100.6738333  23.1910316  35.1035094 106.0411972  11.7234080
  35.6286418 106.3799245  10.9983400  35.0157446 105.1058987  11.5397214
  26.7655143 109.9546046  23.8523956  27.0742269 109.7095192  24.7246656
  27.5630625 110.1592684  23.3642827  26.7875755 112.1083955  16.0829333
  26.3480745 111.6160334  16.7762190  27.5383872 111.5656923  15.8421408
  24.2349627 107.6521964  18.1551635  23.6129636 106.9892669  17.8553862
  24.9054494 107.6783096  17.4725282  24.3074154  96.1303752  27.7484141
  24.3562310  97.0065875  27.3661910  24.8496668  95.5881145  27.1755784
  34.7929000 106.6744876  27.0285278  34.0024544 106.6569015  26.4889777
  34.5562354 107.2133169  27.7834314  34.9126875 103.5237342  24.3418006
  34.9624880 103.3587349  25.2833529  34.8040798 102.6564601  23.9515887
  32.2030637  99.5068270  25.6577313  33.1040500  99.3674735  25.3661311
  32.2778612  99.6722725  26.5975490  26.5373443  96.8835125  24.5030499
  25.6676752  97.1768691  24.2313088  26.7732923  97.4675570  25.2237763
  36.4145072 105.9434284  24.5860028  36.1229880 106.3064264  25.4223489
  35.8017203 105.2301292  24.4073360  37.6140754 103.5087163  17.1062598
  38.4487645 103.9476967  17.2700158  37.7499883 103.0325817  16.2870844
  34.6632260 101.0666898  23.0540086  35.1386382 101.2594544  22.2458937
  33.7397825 101.1226084  22.8083469  29.2412477  93.1014742  22.0195920
  29.7594420  93.8375769  21.6942408  28.8867609  93.4078735  22.8542679
  29.4925071  89.5215024  17.5396816  29.7726824  88.8538213  18.1657243
  30.2775678  89.7144120  17.0271480  33.3633929  97.9432658  21.2868391
  34.3151352  98.0430756  21.3080615  33.1937379  97.1510927  21.7966476
  31.3848308  95.0288241  21.4727792  30.7898241  95.3093254  20.7774281
  31.0998005  95.5182142  22.2444533  35.8422007 101.1638778  20.4010691
  35.8098327 100.2254779  20.5870375  36.4522630 101.2422815  19.6676516
  35.9916495  97.9549821  20.4468974  35.4755544  97.1708278  20.2598903
  36.8756444  97.6268538  20.6115494  33.6527222  91.6990837  16.4064787
  33.4552043  91.3905925  17.2908119  34.2626928  92.4252476  16.5362717
  41.6598557 102.2254785  19.5416728  42.3901945 101.9640073  20.1024431
  41.0505502 101.4883507  19.5818796  39.7413854 100.3662647  20.1391179
  39.0147017 100.2318612  19.5307671  39.3261141 100.6739476  20.9447897
  27.5644030 104.0852577  27.9038552  28.4847040 104.2631176  28.0978598
  27.5293613 103.1408622  27.7518251  16.7826195  99.2791171  16.8291827
  16.4628980  98.4256479  16.5366201  16.2359623  99.4939749  17.5849794
  20.5606103 101.9953612  20.5461333  20.7792113 102.9270720  20.5649367
  20.9731877 101.6361586  21.3316137  27.4810321  92.5021697  12.5337021
  26.6711049  92.1568782  12.9092268  28.1694737  92.1929241  13.1224633
  29.4100869  91.5799744  14.1561318  29.9631907  91.9995197  14.8151341
  29.6470955  90.6535492  14.1984274  25.4333968  97.5686817  29.9364082
  25.3330695  98.5181174  29.8676173  25.2155510  97.2405056  29.0640152
  32.7879676  93.6900269  13.6639982  32.2078345  94.3485073  13.2818035
  32.5215609  92.8677614  13.2527400  31.2383242  93.0905327  15.8661303
  31.7383021  93.2021861  15.0575622  31.8818850  92.7866380  16.5062111
  25.2965238 100.9983956  28.7529144  24.8132320 101.7984316  28.9593033
  25.3826177 101.0091901  27.7996588  21.2238576 104.8888491  20.7897577
  22.1781829 104.8572433  20.7227509  21.0251099 104.4279115  21.6047803
  21.8137958 103.4589607  23.3568375  22.6330847 103.9533686  23.3803212
  22.0874765 102.5421575  23.3285943  31.5704554  95.8500359  12.7196331
  30.6830409  96.1350010  12.5016525  31.9858543  95.6894123  11.8723608
  34.9219090  95.8746880  16.4350670  35.6979480  96.3643333  16.7075287
  34.1967224  96.3004935  16.8922539  37.3591649  96.5874500  17.4924611
  37.9536140  96.3470236  16.7817919  37.4318232  95.8681630  18.1198147
  31.5445578 101.3654895  12.9346621  31.4880779 101.8223447  12.0954253
  32.0973920 100.6045580  12.7569464  35.3550384  97.1544627  13.7596740
  35.0987318  96.7541263  14.5904948  34.7303252  97.8688421  13.6346879
  39.6662721  99.8940700  16.2668032  39.1062279  99.9633890  17.0399594
  39.0606225  99.7181685  15.5467528  32.6234465 106.0527563   8.8642811
  33.4580069 105.6208762   8.6820285  32.4618808 105.8809577   9.7919705
  32.2780357 102.5559677  10.2299150  32.2229161 102.3903948   9.2887594
  31.6526412 103.2635709  10.3861340  17.0672872  97.7927741  24.0560572
  17.7131736  97.2826695  24.5447797  16.8590023  98.5296423  24.6303997
  29.5926264 104.8608588  29.5552713  30.4617424 105.0349241  29.1939348
  29.1133016 105.6803005  29.4328442  25.5876482  92.0567786   9.8084468
  25.5755152  93.0009625   9.9652739  26.4799904  91.8737931   9.5143930
  23.7612444 111.9805689  21.2342146  24.6639691 112.0129300  21.5508641
  23.5349814 111.0506140  21.2488482  25.5166046 110.7336676  17.8952225
  24.5661677 110.7338538  17.7816597  25.8198533 109.9869411  17.3788260
  29.4028602  88.6510562  14.0630405  28.6360998  88.0969049  14.2087088
  29.8139307  88.7232431  14.9244557  21.4070363  94.9395358  28.1535586
  22.2701825  94.5832163  28.3638911  20.8335774  94.6009253  28.8410991
  41.2518740 116.5697214  18.9597987  41.8897150 116.4503962  18.2561328
  41.1339583 117.5178058  19.0185940  38.0608446 116.5224642  18.8959512
  37.7226958 116.4065707  18.0080047  38.9298214 116.1215808  18.8760518
  33.9195262 118.3760119  14.8856403  33.3560127 118.2850056  14.1172691
  33.8047657 117.5560023  15.3658896  38.5428229 117.6759494  24.8545718
  38.5316870 117.2812292  23.9826221  38.7048869 116.9425567  25.4479489
  31.4659694 119.8711310  17.7240624  32.2580986 119.5302135  17.3086923
  31.7056344 119.9806286  18.6442777  35.2635490 120.4596606  23.8024902
  34.9725356 121.3642237  23.6871568  35.8992475 120.5013134  24.5168971
  36.1891697 117.8373455  20.3926261  36.7855269 117.6129477  19.6783224
  36.2466669 117.0958200  20.9951709  40.8060008 114.2948668  16.0351195
  41.5923098 113.8768091  15.6841612  41.0698713 115.1994760  16.2032844
  40.9770086 119.7321519  10.7339852  40.3415919 119.8056145  11.4460757
  40.6467492 120.3215117  10.0558932  46.2068436 114.2323901  16.9384174
  46.9393607 113.6623118  17.1722003  45.4507791 113.8445502  17.3790680
  37.8244555 116.6551143  14.1347516  37.4602762 116.1281764  14.8460438
  38.6811671 116.2649612  13.9614002  43.7293856 107.9445476  21.3978783
  43.3977181 108.8140886  21.1739998  43.1339469 107.6281760  22.0772813
  37.4650042 111.6841043   9.1308865  37.6324445 112.5521279   9.4979336
  37.2747211 111.8468324   8.2070154  40.2225375 120.1458022  20.7974695
  39.9226098 121.0483060  20.6890503  39.8776435 119.8790205  21.6495848
  33.6737857 116.5971818  16.8311400  32.7488353 116.4648032  17.0389092
  33.9222270 117.3766038  17.3281342  43.6222519 112.6640562  18.4772133
  42.7139397 112.5955970  18.1830894  43.5710115 113.1412507  19.3053958
  37.4439263 114.1398700  10.1155532  37.3238888 114.5855751  10.9541012
  36.7491851 114.4884018   9.5569070  31.0346668 116.2405092  17.6655189
  31.1639049 116.4939571  18.5794601  30.3544119 116.8332800  17.3459844
  37.6963385 114.0830207  26.4207030  36.9196719 114.6424127  26.4109895
  38.3353948 114.5686990  26.9421900  45.4884166 110.8657000  20.2550007
  44.8458546 111.1589533  19.6089801  44.9839094 110.7509920  21.0603203
  43.1424329 114.6120173  10.9435866  44.0542185 114.8447560  10.7683563
  42.6333976 115.1957218  10.3810944  35.9509757 116.8915661  25.9824997
  36.6924442 117.4300705  25.7059821  35.2446743 117.5181949  26.1396549
  41.4265097 119.0344801  24.5797158  41.8348453 118.5927212  23.8351791
  40.7042358 118.4597429  24.8331351  37.7796167 113.9717408  21.9530715
  38.6257362 114.3956821  22.0965364  37.7194805 113.3151032  22.6469278
  41.7493912 119.5945992  18.3349447  41.1202774 119.7591706  17.6325515
  41.3619574 120.0087601  19.1060411  45.6283143 120.5300430  15.6893811
  44.9434182 120.9099331  15.1390844  45.7126993 121.1395756  16.4225759
  40.9295612 111.6321776  23.6111889  40.6856544 112.3863837  23.0746165
  41.2055543 112.0107124  24.4459136  42.8834075 118.1760389  22.2889155
  43.0950970 118.8192149  21.6123536  42.8363823 117.3422705  21.8211085
  40.4860304 110.7878209  19.1925727  39.6244783 111.0859463  19.4842464
  40.5122739 111.0048608  18.2606759  37.3021873 119.3320400  15.5999532
  37.7660219 119.6108103  14.8104155  37.0378672 118.4303844  15.4172623
  34.1945955 118.8791881  18.5379296  34.7647312 119.3079150  17.8996780
  34.7854066 118.5974466  19.2363481  36.2390760 115.4543552  12.4089098
  36.9414803 115.9064596  12.8763024  35.9071388 114.8127371  13.0368991
  34.6871121 114.0455309  26.7840307  34.0569782 114.7271590  27.0175704
  34.5807209 113.9338390  25.8393445  29.9816093 113.7127105  17.7106231
  29.1915147 113.9684633  17.2346342  30.4727341 114.5275443  17.8158272
  43.9979903 121.0532344  20.4611512  44.8197347 120.6512531  20.1794194
  43.9942306 120.9500578  21.4127628  31.9330839 114.0771684  14.6689708
  31.1362002 114.1890378  15.1873203  31.7056431 114.4158336  13.8030598
  37.7636506 120.6016387  22.6172222  37.8280939 121.0636795  23.4530394
  37.0547430 119.9713752  22.7454532  28.2653796 113.9657595  20.1421222
  28.5161835 114.8504605  20.4078798  28.8013345 113.7862197  19.3696314
  52.0885896 117.3971093  16.8096483  51.3349604 116.8278491  16.6540488
  52.2233437 117.3633757  17.7567118  33.9651864 108.3476075  29.1465558
  33.5718809 107.7942273  29.8213202  34.7818004 108.6586653  29.5372075
  36.8819825 109.7633954  26.7385815  37.6229538 110.3641107  26.6590277
  37.1137748 109.0211592  26.1803857  32.0261163 114.9490321  25.0164044
  31.9114678 114.0475578  25.3171143  31.1705681 115.1954018  24.6648861
  39.1053001 122.8908061  26.6151545  38.6616855 122.1044440  26.2972449
  39.7670214 123.0787212  25.9495436  33.8640122 124.4203863  21.1412223
  34.4147547 124.2920926  20.3689217  33.0251598 124.7198752  20.7907116
  41.2034239 123.1710861  24.6432946  41.1852714 123.9919742  24.1513215
  42.1254159 123.0464936  24.8683087  37.6607293 120.6854991  25.4856454
  38.1935630 119.9243279  25.2555762  37.1321374 120.3928643  26.2280609
  40.8276988 105.7915057  21.0150096  40.4841257 106.6816698  20.9389207
  41.1955950 105.6016714  20.1519681  40.7927270 115.7823668   9.5222531
  40.2773894 116.5528272   9.7610919  40.5204579 115.1088804  10.1455593
  38.3774381 110.6273369  14.5807770  37.5215978 110.2380219  14.4013408
  38.7901333 110.7065329  13.7207555  39.9073528 108.1619712  18.9799329
  39.4038324 108.1249847  18.1667135  40.2004135 109.0712455  19.0395986
  36.1516414 108.2458442  17.9865511  37.0169411 108.0501250  17.6271401
  36.2193923 108.0168793  18.9134868  45.7661545 118.5356022  11.4575705
  44.9890987 118.1967182  11.0130867  46.4453026 118.5408646  10.7830670
  40.5813574 113.6550760  11.3482312  40.2763709 113.9696909  12.1992456
  41.5344016 113.7332180  11.3909645  39.0260005 119.8140983  12.9975266
  38.4981367 119.0793743  12.6848504  38.5247508 120.5915660  12.7515235
  44.0052851 118.0090004  18.1142313  43.3476526 118.6989265  18.2022441
  44.8093251 118.3986436  18.4576299  33.7578733 110.4760650  15.3581878
  34.3322485 110.2535831  14.6255071  34.3449715 110.5449344  16.1110479
  42.8158310 116.3634376  16.1646255  43.3290192 116.9964368  16.6667964
  43.4659534 115.7635572  15.7989615  36.0601401 107.3501898  14.0856947
  35.4065813 107.0350916  13.4613562  36.0181875 106.7277639  14.8116770
  39.2939141 113.8383832  18.4104595  38.3761702 114.0598779  18.2526283
  39.7099285 113.9130142  17.5516302  40.0774189 115.2375248  13.5407275
  40.8246008 115.7496645  13.2314397  40.3465778 114.9159300  14.4011669
  38.3500839 117.7333788  10.5234230  37.4412058 117.4492821  10.6206699
  38.3795923 118.1532867   9.6637536  43.5820106 121.3440378  14.2925397
  43.1282434 120.5031288  14.3490588  42.9514073 121.9801776  14.6300177
  42.5253026 112.2732364  15.5226065  41.7875783 111.7609750  15.8536307
  42.7779800 111.8332745  14.7109341  42.0253046 123.1816875  15.2275215
  42.3176020 123.7421932  14.5087581  42.5351666 123.4745436  15.9828374
  42.6264653 105.0508616  16.1167834  42.9323530 104.1905979  15.8293749
  43.3517258 105.6426236  15.9166828  36.8985733 115.3462409  16.6244025
  36.9534343 114.3936245  16.5486502  36.0876935 115.5021848  17.1085323
  34.8378093 113.9639469  14.3834404  34.0245959 114.2633639  14.7899596
  35.3337087 113.5695157  15.1008886  36.9886671 123.9597226  16.3168669
  36.9462850 124.1858072  15.3877201  37.9049370 123.7260600  16.4654470
  40.4352305 114.4281293  23.2149298  40.7901692 114.6552766  24.0743763
  41.0824436 114.7599670  22.5926553  46.1650042 117.5499729  13.9198627
  46.0267940 117.7401325  12.9919816  45.8086260 118.3119112  14.3766678
  34.3292168 111.5357824  19.9995639  34.9691547 111.3946583  19.3018602
  33.4969698 111.2492338  19.6234241  46.1919421 119.6176256  18.9309898
  46.6255928 119.5251545  19.7792952  46.9051002 119.5933757  18.2929914
  35.1052472 120.8360255  16.1130631  35.8993070 120.3410575  15.9113206
  34.3944164 120.3078118  15.7498337  39.9247316 123.2178350  20.4642999
  39.9784338 123.7869286  21.2320715  39.0562098 123.3880235  20.0997036
  31.3320784 111.5058149  14.7768626  31.5927601 112.4203482  14.6677786
  32.1537957 111.0382592  14.9265238  32.8045710 112.9195906  21.9467450
  33.4768763 112.7113269  21.2980099  31.9775496 112.7217992  21.5072682
  47.0534971 119.6599957  21.4642784  47.2470861 120.5645767  21.7102059
  46.9535589 119.2007376  22.2981369  38.7071282 109.5457847  23.9633111
  38.0599197 110.2447797  23.8697587  39.4772297 109.9793991  24.3309359
  42.1150079 119.8106699  27.0383664  41.9635586 119.5817251  26.1213748
  42.1054759 120.7677301  27.0515009  38.8835416 117.3838612  22.0229931
  39.8127476 117.5349772  21.8498898  38.4626446 117.4722633  21.1678577
  37.6823748 121.4089277  19.7928468  37.5434833 121.0408061  20.6654406
  36.8938344 121.9236916  19.6212426  39.2328963 120.7870879  17.1817306
  38.8978795 120.7471649  18.0774956  38.7332908 120.1215595  16.7087716
  33.2073207 116.1938509  22.7069887  33.0693005 115.4618748  23.3081426
  34.1178130 116.1047409  22.4254075  35.8355507 115.9058469  22.1953567
  36.5455126 115.2651661  22.1540185  35.7924816 116.1571364  23.1179748
  43.8242286 122.8425822  25.1160146  43.7654832 122.1585042  24.4490729
  44.2261805 123.5844812  24.6640772  34.5484441 112.8923687  24.0149206
  34.0121798 112.4414425  24.6670803  33.9601150 113.0269595  23.2719671
  43.8259693 120.8065406  23.3474126  42.9386472 120.4691328  23.4700525
  44.3958244 120.0748437  23.5842891  30.2823563 112.0279694  21.1002201
  30.1981751 111.4205364  20.3652611  29.4606269 112.5188713  21.1011697
  37.3560847 125.4666858  20.3135369  37.2831018 126.2721830  20.8254674
  36.9138240 125.6658824  19.4883390  40.4547277 110.5133258  16.4672396
  40.9515976 109.7603220  16.1473466  39.6834258 110.5497574  15.9015605
  48.3077034 116.2173623  18.1090687  48.2966910 117.0998339  17.7384621
  47.4394413 115.8645174  17.9145225  39.8159530 125.3653692  22.4693528
  40.5287503 126.0001157  22.3969429  39.3249559 125.4617558  21.6533530
  41.5377057 119.2704945  14.0410819  40.6033336 119.3906407  13.8715524
  41.7153726 118.3677412  13.7770829  37.0382245 112.6550641  16.1944081
  36.6680033 112.1021681  16.8824986  37.5341338 112.0508774  15.6419081
  44.9249609 115.1122264  14.5760853  45.3910061 115.9450256  14.5021156
  45.3757109 114.6467246  15.2806112  34.8671444 123.1148136  23.2899098
  35.5680903 123.7484619  23.4428493  34.3966559 123.4562867  22.5294738
  42.9925840 121.4566086  11.5747006  43.2685684 121.3422680  12.4840880
  42.1230338 121.0583570  11.5359179  42.8966271 107.4802851  18.6151755
  41.9829351 107.7107078  18.7833962  43.3259373 107.5641295  19.4665787
  42.6672730 115.6692743  21.1151649  42.0144180 115.9168651  20.4604102
  43.0453110 114.8556881  20.7814126  39.6279904 125.7052436  15.2179819
  39.8102298 124.8874092  15.6807571  40.4512890 125.9220129  14.7804709
  39.9622069 124.6320622  12.4794868  40.4909836 124.1213076  11.8665030
  40.2250289 124.3163152  13.3440401  38.7160303 116.4112554  27.6017686
  38.0400940 116.3106684  28.2720061  39.5387937 116.2551768  28.0653683
  30.4639162 122.6484491  20.2230201  31.0492599 121.9028179  20.3558105
  30.2664000 122.9588448  21.1066865  37.4583086 127.7179482  21.8375302
  38.0101394 127.8811103  22.6024387  37.7989279 128.3083920  21.1655327
  32.4347579 110.0654632  22.4397187  32.4988905 110.9269462  22.0274584
  32.3714699 109.4528633  21.7069545  31.9099851 112.1377764  26.0870221
  32.5371890 111.7554841  26.7007745  31.0527770 111.9191966  26.4525913
  42.3093960 122.5440739  27.6923956  42.8533864 123.1570698  27.1978911
  41.7280805 123.1020318  28.2090969  40.5951473 125.6661457  18.8238984
  40.4702612 124.8651197  18.3149930  41.2530564 126.1607651  18.3352954
  32.2159641 112.0210190  18.0016124  31.4946227 112.6346158  17.8623598
  33.0052897 112.5567955  17.9232770  42.6586381 123.4670477  20.4518534
  41.7116717 123.3475829  20.3796861  43.0069154 122.5792975  20.5344796
  35.0185955 109.3564616  24.2756776  35.5420357 109.6026913  25.0383085
  34.7998288 110.1884651  23.8559913  39.6632815 123.2623194  16.6522886
  39.5157777 122.3339901  16.8330456  40.4886308 123.2843284  16.1679962
  33.5295059 111.9141261  12.5103379  33.8691131 112.4427182  11.7881987
  33.9767179 112.2521667  13.2861945  43.2666937 124.0851752  17.7387759
  44.1913484 123.8794614  17.6012210  43.0982240 123.8368153  18.6477101
  36.2238500 110.2978311  21.9606447  35.8835320 109.4986124  22.3627126
  35.5177506 110.5980022  21.3883280  36.8754972 107.3827624  20.4133770
  37.6981041 106.9088102  20.2912660  37.1193035 108.1618108  20.9132456
  35.5163206 110.4115882  10.7096671  36.2371569 110.7897135  10.2060388
  34.8928510 111.1304759  10.8131649  39.6594329 111.1161031  11.6455004
  39.8757943 111.9985669  11.3443832  39.1788396 110.7247245  10.9160646
  34.3993550 114.0746744  18.2225748  34.2538131 114.3887048  19.1150030
  33.9218754 114.6931645  17.6696647  36.2589933 111.0649292  18.2706638
  36.2451502 110.1690386  17.9338936  36.9762361 111.0719956  18.9044924
  38.1116064 111.4986633  20.3159765  37.8533842 112.4203703  20.3144096
  37.5801104 111.1017067  21.0060229  43.0562253 124.6037420  13.0949851
  43.2299130 124.0383842  12.3423703  43.5491144 125.4038315  12.9129341
  28.8739213 116.6152089  21.1613409  28.3292681 117.3911897  21.2933684
  29.7518562 116.9622893  21.0032531  35.6626829 109.9463673  13.5394208
  35.7842740 109.0180319  13.7385095  35.3728872 109.9602359  12.6272523
  38.5318020 107.6318583  16.6760928  38.5539716 107.6957916  15.7212907
  38.9486079 106.7923092  16.8701434  48.9101644 117.3673843  14.7140150
  49.3532790 116.6181168  14.3159274  48.0328154 117.3583979  14.3313882
  44.0437425 123.9204184  10.1946749  44.7388330 124.5410877  10.4134064
  44.3860575 123.0699535  10.4699127  29.6605234 115.7421985  24.0543566
  28.9186970 115.8904620  24.6408197  29.3397979 116.0030251  23.1910316
  45.9428848 121.3703890  11.7234080  46.4680172 121.7091162  10.9983400
  45.8551201 120.4350905  11.5397214  37.6048897 125.2837963  23.8523956
  37.9136023 125.0387110  24.7246656  38.4024379 125.4884602  23.3642827
  37.6269509 127.4375873  16.0829333  37.1874499 126.9452252  16.7762190
  38.3777626 126.8948841  15.8421408  35.0743381 122.9813882  18.1551635
  34.4523391 122.3184587  17.8553862  35.7448248 123.0075014  17.4725282
  35.1467909 111.4595670  27.7484141  35.1956064 112.3357793  27.3661910
  35.6890423 110.9173063  27.1755784  45.6322754 122.0036793  27.0285278
  44.8418298 121.9860932  26.4889777  45.3956109 122.5425087  27.7834314
  45.7520629 118.8529260  24.3418006  45.8018634 118.6879267  25.2833529
  45.6434553 117.9856519  23.9515887  43.0424392 114.8360188  25.6577313
  43.9434255 114.6966653  25.3661311  43.1172366 115.0014643  26.5975490
  37.3767197 112.2127043  24.5030499  36.5070507 112.5060609  24.2313088
  37.6126678 112.7967488  25.2237763  47.2538826 121.2726201  24.5860028
  46.9623635 121.6356182  25.4223489  46.6410958 120.5593210  24.4073360
  48.4534509 118.8379081  17.1062598  49.2881400 119.2768885  17.2700158
  48.5893637 118.3617734  16.2870844  45.5026015 116.3958816  23.0540086
  45.9780136 116.5886462  22.2458937  44.5791580 116.4518002  22.8083469
  40.0806231 108.4306659  22.0195920  40.5988175 109.1667686  21.6942408
  39.7261364 108.7370653  22.8542679  40.3318825 104.8506942  17.5396816
  40.6120579 104.1830131  18.1657243  41.1169432 105.0436038  17.0271480
  44.2027684 113.2724576  21.2868391  45.1545106 113.3722674  21.3080615
  44.0331134 112.4802845  21.7966476  42.2242063 110.3580159  21.4727792
  41.6291995 110.6385172  20.7774281  41.9391760 110.8474060  22.2444533
  46.6815761 116.4930696  20.4010691  46.6492081 115.5546696  20.5870375
  47.2916385 116.5714732  19.6676516  46.8310250 113.2841739  20.4468974
  46.3149298 112.5000196  20.2598903  47.7150198 112.9560456  20.6115494
  44.4920977 107.0282755  16.4064787  44.2945798 106.7197843  17.2908119
  45.1020682 107.7544394  16.5362717  52.4992311 117.5546702  19.5416728
  53.2295700 117.2931991  20.1024431  51.8899257 116.8175424  19.5818796
  50.5807608 115.6954565  20.1391179  49.8540772 115.5610530  19.5307671
  50.1654895 116.0031394  20.9447897  38.4037785 119.4144495  27.9038552
  39.3240794 119.5923094  28.0978598  38.3687368 118.4700540  27.7518251
  27.6219950 114.6083088  16.8291827  27.3022734 113.7548397  16.5366201
  27.0753378 114.8231667  17.5849794  31.3999857 117.3245529  20.5461333
  31.6185867 118.2562637  20.5649367  31.8125631 116.9653504  21.3316137
  38.3204075 107.8313615  12.5337021  37.5104803 107.4860700  12.9092268
  39.0088492 107.5221158  13.1224633  40.2494623 106.9091662  14.1561318
  40.8025662 107.3287115  14.8151341  40.4864710 105.9827410  14.1984274
  36.2727723 112.8978735  29.9364082  36.1724449 113.8473092  29.8676173
  36.0549265 112.5696974  29.0640152  43.6273430 109.0192187  13.6639982
  43.0472099 109.6776991  13.2818035  43.3609363 108.1969531  13.2527400
  42.0776997 108.4197244  15.8661303  42.5776775 108.5313779  15.0575622
  42.7212605 108.1158297  16.5062111  36.1358993 116.3275874  28.7529144
  35.6526074 117.1276234  28.9593033  36.2219932 116.3383819  27.7996588
  32.0632330 120.2180409  20.7897577  33.0175584 120.1864351  20.7227509
  31.8644854 119.7571032  21.6047803  32.6531712 118.7881525  23.3568375
  33.4724601 119.2825603  23.3803212  32.9268520 117.8713493  23.3285943
  42.4098308 111.1792277  12.7196331  41.5224163 111.4641928  12.5016525
  42.8252298 111.0186040  11.8723608  45.7612845 111.2038798  16.4350670
  46.5373235 111.6935250  16.7075287  45.0360979 111.6296852  16.8922539
  48.1985403 111.9166417  17.4924611  48.7929894 111.6762153  16.7817919
  48.2711987 111.1973548  18.1198147  42.3839332 116.6946813  12.9346621
  42.3274534 117.1515364  12.0954253  42.9367675 115.9337498  12.7569464
  46.1944138 112.4836545  13.7596740  45.9381072 112.0833181  14.5904948
  45.5697006 113.1980339  13.6346879  50.5056476 115.2232618  16.2668032
  49.9456034 115.2925807  17.0399594  49.8999979 115.0473603  15.5467528
  43.4628219 121.3819481   8.8642811  44.2973823 120.9500679   8.6820285
  43.3012562 121.2101495   9.7919705  43.1174111 117.8851594  10.2299150
  43.0622915 117.7195866   9.2887594  42.4920167 118.5927627  10.3861340
  27.9066626 113.1219659  24.0560572  28.5525490 112.6118613  24.5447797
  27.6983778 113.8588340  24.6303997  40.4320019 120.1900506  29.5552713
  41.3011178 120.3641158  29.1939348  39.9526770 121.0094923  29.4328442
  36.4270237 107.3859703   9.8084468  36.4148907 108.3301543   9.9652739
  37.3193659 107.2029849   9.5143930  34.6006199 127.3097607  21.2342146
  35.5033446 127.3421217  21.5508641  34.3743569 126.3798058  21.2488482
  36.3559801 126.0628594  17.8952225  35.4055432 126.0630455  17.7816597
  36.6592287 125.3161328  17.3788260  40.2422356 103.9802480  14.0630405
  39.4754752 103.4260967  14.2087088  40.6533061 104.0524349  14.9244557
  32.2464117 110.2687276  28.1535586  33.1095579 109.9124081  28.3638911
  31.6729528 109.9301171  28.8410991  52.0912494 131.8989132  18.9597987
  52.7290904 131.7795879  18.2561328  51.9733337 132.8469976  19.0185940
  48.9002201 131.8516560  18.8959512  48.5620712 131.7357625  18.0080047
  49.7691969 131.4507725  18.8760518  44.7589016 133.7052037  14.8856403
  44.1953882 133.6141974  14.1172691  44.6441411 132.8851941  15.3658896
  49.3821984 133.0051412  24.8545718  49.3710624 132.6104210  23.9826221
  49.5442623 132.2717484  25.4479489  42.3053448 135.2003228  17.7240624
  43.0974740 134.8594053  17.3086923  42.5450098 135.3098203  18.6442777
  47.0285452 133.1665372  20.3926261  47.6249024 132.9421395  19.6783224
  47.0860423 132.4250118  20.9951709  51.6453763 129.6240586  16.0351195
  52.4316852 129.2060009  15.6841612  51.9092467 130.5286678  16.2032844
  57.0462190 129.5615819  16.9384174  57.7787362 128.9915036  17.1722003
  56.2901546 129.1737420  17.3790680  48.6638310 131.9843061  14.1347516
  48.2996517 131.4573682  14.8460438  49.5205426 131.5941530  13.9614002
  54.5687610 123.2737393  21.3978783  54.2370935 124.1432804  21.1739998
  53.9733224 122.9573677  22.0772813  48.3043797 127.0132960   9.1308865
  48.4718199 127.8813197   9.4979336  48.1140966 127.1760242   8.2070154
  51.0619130 135.4749939  20.7974695  50.7619853 136.3774978  20.6890503
  50.7170189 135.2082122  21.6495848  44.5131611 131.9263736  16.8311400
  43.5882108 131.7939950  17.0389092  44.7616025 132.7057955  17.3281342
  54.4616274 127.9932479  18.4772133  53.5533151 127.9247888  18.1830894
  54.4103869 128.4704424  19.3053958  48.2833018 129.4690618  10.1155532
  48.1632643 129.9147669  10.9541012  47.5885606 129.8175935   9.5569070
  41.8740422 131.5697010  17.6655189  42.0032804 131.8231489  18.5794601
  41.1937874 132.1624718  17.3459844  48.5357139 129.4122125  26.4207030
  47.7590474 129.9716045  26.4109895  49.1747703 129.8978908  26.9421900
  56.3277920 126.1948918  20.2550007  55.6852300 126.4881451  19.6089801
  55.8232849 126.0801838  21.0603203  46.7903512 132.2207578  25.9824997
  47.5318196 132.7592622  25.7059821  46.0840497 132.8473867  26.1396549
  52.2658851 134.3636719  24.5797158  52.6742207 133.9219129  23.8351791
  51.5436113 133.7889346  24.8331351  48.6189921 129.3009326  21.9530715
  49.4651117 129.7248739  22.0965364  48.5588559 128.6442950  22.6469278
  52.5887666 134.9237909  18.3349447  51.9596529 135.0883624  17.6325515
  52.2013328 135.3379519  19.1060411  51.7689367 126.9613694  23.6111889
  51.5250299 127.7155754  23.0746165  52.0449297 127.3399042  24.4459136
  53.7227830 133.5052306  22.2889155  53.9344725 134.1484066  21.6123536
  53.6757578 132.6714623  21.8211085  51.3254059 126.1170127  19.1925727
  50.4638538 126.4151381  19.4842464  51.3516493 126.3340526  18.2606759
  48.1415628 134.6612318  15.5999532  48.6053973 134.9400021  14.8104155
  47.8772426 133.7595762  15.4172623  45.0339709 134.2083799  18.5379296
  45.6041066 134.6371067  17.8996780  45.6247821 133.9266384  19.2363481
  47.0784514 130.7835470  12.4089098  47.7808557 131.2356514  12.8763024
  46.7465142 130.1419289  13.0368991  45.5264876 129.3747227  26.7840307
  44.8963536 130.0563507  27.0175704  45.4200963 129.2630308  25.8393445
  40.8209848 129.0419023  17.7106231  40.0308902 129.2976551  17.2346342
  41.3121095 129.8567360  17.8158272  54.8373658 136.3824262  20.4611512
  55.6591101 135.9804449  20.1794194  54.8336060 136.2792496  21.4127628
  42.7724593 129.4063602  14.6689708  41.9755757 129.5182296  15.1873203
  42.5450186 129.7450254  13.8030598  48.6030261 135.9308305  22.6172222
  48.6674693 136.3928712  23.4530394  47.8941185 135.3005670  22.7454532
  39.1047551 129.2949513  20.1421222  39.3555589 130.1796523  20.4078798
  39.6407099 129.1154115  19.3696314  44.8045618 123.6767992  29.1465558
  44.4112564 123.1234191  29.8213202  45.6211759 123.9878571  29.5372075
  47.7213579 125.0925871  26.7385815  48.4623293 125.6933025  26.6590277
  47.9531502 124.3503509  26.1803857  42.8654917 130.2782239  25.0164044
  42.7508432 129.3767496  25.3171143  42.0099435 130.5245935  24.6648861
  48.5001047 136.0146908  25.4856454  49.0329384 135.2535197  25.2555762
  47.9715128 135.7220560  26.2280609  51.6670742 121.1206974  21.0150096
  51.3235012 122.0108616  20.9389207  52.0349705 120.9308632  20.1519681
  49.2168136 125.9565286  14.5807770  48.3609732 125.5672137  14.4013408
  49.6295088 126.0357247  13.7207555  50.7467283 123.4911630  18.9799329
  50.2432078 123.4541765  18.1667135  51.0397889 124.4004372  19.0395986
  46.9910168 123.5750359  17.9865511  47.8563165 123.3793168  17.6271401
  47.0587677 123.3460711  18.9134868  51.4207328 128.9842678  11.3482312
  51.1157464 129.2988827  12.1992456  52.3737770 129.0624097  11.3909645
  54.8446606 133.3381921  18.1142313  54.1870280 134.0281183  18.2022441
  55.6487005 133.7278353  18.4576299  44.5972488 125.8052567  15.3581878
  45.1716239 125.5827749  14.6255071  45.1843470 125.8741262  16.1110479
  53.6552065 131.6926294  16.1646255  54.1683946 132.3256286  16.6667964
  54.3053289 131.0927490  15.7989615  46.8995155 122.6793816  14.0856947
  46.2459568 122.3642833  13.4613562  46.8575629 122.0569557  14.8116770
  50.1332896 129.1675750  18.4104595  49.2155457 129.3890697  18.2526283
  50.5493039 129.2422060  17.5516302  50.9167943 130.5667165  13.5407275
  51.6639762 131.0788563  13.2314397  51.1859533 130.2451218  14.4011669
  53.3646781 127.6024282  15.5226065  52.6269537 127.0901668  15.8536307
  53.6173554 127.1624663  14.7109341  53.4658408 120.3800534  16.1167834
  53.7717285 119.5197897  15.8293749  54.1911013 120.9718154  15.9166828
  47.7379488 130.6754327  16.6244025  47.7928097 129.7228163  16.5486502
  46.9270690 130.8313766  17.1085323  45.6771847 129.2931386  14.3834404
  44.8639713 129.5925557  14.7899596  46.1730842 128.8987075  15.1008886
  51.2746059 129.7573211  23.2149298  51.6295447 129.9844684  24.0743763
  51.9218190 130.0891588  22.5926553  45.1685922 126.8649742  19.9995639
  45.8085302 126.7238501  19.3018602  44.3363453 126.5784255  19.6234241
  57.0313176 134.9468174  18.9309898  57.4649682 134.8543463  19.7792952
  57.7444756 134.9225674  18.2929914  45.9446226 136.1652172  16.1130631
  46.7386825 135.6702492  15.9113206  45.2337919 135.6370035  15.7498337
  42.1714539 126.8350067  14.7768626  42.4321356 127.7495400  14.6677786
  42.9931711 126.3674509  14.9265238  43.6439464 128.2487824  21.9467450
  44.3162517 128.0405186  21.2980099  42.8169251 128.0509910  21.5072682
  57.8928725 134.9891874  21.4642784  58.0864615 135.8937685  21.7102059
  57.7929343 134.5299293  22.2981369  49.5465036 124.8749765  23.9633111
  48.8992951 125.5739715  23.8697587  50.3166051 125.3085909  24.3309359
  52.9543834 135.1398617  27.0383664  52.8029340 134.9109169  26.1213748
  52.9448513 136.0969219  27.0515009  49.7229170 132.7130530  22.0229931
  50.6521230 132.8641690  21.8498898  49.3020200 132.8014551  21.1678577
  50.0722717 136.1162797  17.1817306  49.7372550 136.0763567  18.0774956
  49.5726663 135.4507513  16.7087716  44.0466961 131.5230427  22.7069887
  43.9086759 130.7910666  23.3081426  44.9571885 131.4339327  22.4254075
  46.6749262 131.2350386  22.1953567  47.3848880 130.5943579  22.1540185
  46.6318570 131.4863281  23.1179748  54.6636041 138.1717740  25.1160146
  54.6048587 137.4876960  24.4490729  55.0655559 138.9136730  24.6640772
  45.3878196 128.2215604  24.0149206  44.8515553 127.7706343  24.6670803
  44.7994904 128.3561513  23.2719671  54.6653448 136.1357324  23.3474126
  53.7780227 135.7983245  23.4700525  55.2351999 135.4040355  23.5842891
  41.1217317 127.3571612  21.1002201  41.0375506 126.7497282  20.3652611
  40.3000024 127.8480630  21.1011697  51.2941031 125.8425175  16.4672396
  51.7909731 125.0895138  16.1473466  50.5228013 125.8789492  15.9015605
  59.1470788 131.5465541  18.1090687  59.1360665 132.4290256  17.7384621
  58.2788168 131.1937092  17.9145225  52.3770812 134.5996863  14.0410819
  51.4427090 134.7198325  13.8715524  52.5547480 133.6969329  13.7770829
  47.8776000 127.9842558  16.1944081  47.5073787 127.4313599  16.8824986
  48.3735092 127.3800692  15.6419081  55.7643363 130.4414182  14.5760853
  56.2303815 131.2742174  14.5021156  56.2150864 129.9759164  15.2806112
  53.7360026 122.8094769  18.6151755  52.8223106 123.0398996  18.7833962
  54.1653127 122.8933213  19.4665787  53.5066484 130.9984661  21.1151649
  52.8537935 131.2460568  20.4604102  53.8846864 130.1848799  20.7814126
  49.5554057 131.7404472  27.6017686  48.8794694 131.6398601  28.2720061
  50.3781691 131.5843686  28.0653683  43.2741333 125.3946549  22.4397187
  43.3382660 126.2561380  22.0274584  43.2108454 124.7820551  21.7069545
  42.7493606 127.4669682  26.0870221  43.3765645 127.0846759  26.7007745
  41.8921525 127.2483884  26.4525913  53.1487715 137.8732657  27.6923956
  53.6927619 138.4862615  27.1978911  52.5674559 138.4312235  28.2090969
  43.0553396 127.3502107  18.0016124  42.3339981 127.9638075  17.8623598
  43.8446651 127.8859872  17.9232770  53.4980136 138.7962395  20.4518534
  52.5510471 138.6767746  20.3796861  53.8462909 137.9084893  20.5344796
  45.8579709 124.6856534  24.2756776  46.3814111 124.9318831  25.0383085
  45.6392043 125.5176569  23.8559913  44.3688813 127.2433178  12.5103379
  44.7084886 127.7719100  11.7881987  44.8160934 127.5813584  13.2861945
  54.1060691 139.4143670  17.7387759  55.0307238 139.2086531  17.6012210
  53.9375994 139.1660071  18.6477101  47.0632254 125.6270229  21.9606447
  46.7229075 124.8278042  22.3627126  46.3571261 125.9271940  21.3883280
  47.7148726 122.7119541  20.4133770  48.5374795 122.2380020  20.2912660
  47.9586790 123.4910025  20.9132456  46.3556961 125.7407800  10.7096671
  47.0765323 126.1189053  10.2060388  45.7322265 126.4596677  10.8131649
  50.4988083 126.4452949  11.6455004  50.7151698 127.3277587  11.3443832
  50.0182151 126.0539162  10.9160646  45.2387305 129.4038662  18.2225748
  45.0931886 129.7178965  19.1150030  44.7612508 130.0223562  17.6696647
  47.0983688 126.3941210  18.2706638  47.0845256 125.4982303  17.9338936
  47.8156116 126.4011874  18.9044924  48.9509818 126.8278550  20.3159765
  48.6927596 127.7495621  20.3144096  48.4194859 126.4308985  21.0060229
  39.7132967 131.9444007  21.1613409  39.1686435 132.7203814  21.2933684
  40.5912317 132.2914811  21.0032531  46.5020584 125.2755590  13.5394208
  46.6236495 124.3472237  13.7385095  46.2122626 125.2894276  12.6272523
  49.3711774 122.9610501  16.6760928  49.3933471 123.0249834  15.7212907
  49.7879833 122.1215009  16.8701434  40.4998989 131.0713903  24.0543566
  39.7580725 131.2196538  24.6408197  40.1791733 131.3322168  23.1910316
  45.9861663 126.7887588  27.7484141  46.0349819 127.6649711  27.3661910
  46.5284177 126.2464981  27.1755784  56.4716509 137.3328711  27.0285278
  55.6812053 137.3152850  26.4889777  56.2349863 137.8717005  27.7834314
  56.5914384 134.1821177  24.3418006  56.6412389 134.0171185  25.2833529
  56.4828307 133.3148436  23.9515887  53.8818146 130.1652105  25.6577313
  54.7828009 130.0258570  25.3661311  53.9566121 130.3306560  26.5975490
  48.2160952 127.5418960  24.5030499  47.3464261 127.8352526  24.2313088
  48.4520432 128.1259405  25.2237763  58.0932581 136.6018119  24.5860028
  57.8017389 136.9648099  25.4223489  57.4804712 135.8885127  24.4073360
  59.2928263 134.1670999  17.1062598  60.1275154 134.6060803  17.2700158
  59.4287392 133.6909652  16.2870844  56.3419769 131.7250734  23.0540086
  56.8173891 131.9178380  22.2458937  55.4185334 131.7809919  22.8083469
  50.9199985 123.7598577  22.0195920  51.4381929 124.4959604  21.6942408
  50.5655118 124.0662570  22.8542679  51.1712580 120.1798860  17.5396816
  51.4514333 119.5122049  18.1657243  51.9563187 120.3727955  17.0271480
  55.0421438 128.6016494  21.2868391  55.9938861 128.7014591  21.3080615
  54.8724888 127.8094762  21.7966476  53.0635817 125.6872077  21.4727792
  52.4685750 125.9677090  20.7774281  52.7785514 126.1765978  22.2444533
  57.5209516 131.8222613  20.4010691  57.4885836 130.8838614  20.5870375
  58.1310139 131.9006650  19.6676516  57.6704004 128.6133657  20.4468974
  57.1543053 127.8292113  20.2598903  58.5543953 128.2852373  20.6115494
  55.3314731 122.3574672  16.4064787  55.1339552 122.0489761  17.2908119
  55.9414437 123.0836311  16.5362717  63.3386066 132.8838620  19.5416728
  64.0689454 132.6223908  20.1024431  62.7293011 132.1467342  19.5818796
  61.4201363 131.0246483  20.1391179  60.6934526 130.8902448  19.5307671
  61.0048650 131.3323311  20.9447897  49.2431539 134.7436412  27.9038552
  50.1634549 134.9215011  28.0978598  49.2081122 133.7992458  27.7518251
  38.4613704 129.9375006  16.8291827  38.1416489 129.0840314  16.5366201
  37.9147132 130.1523584  17.5849794  42.2393612 132.6537447  20.5461333
  42.4579622 133.5854555  20.5649367  42.6519386 132.2945421  21.3316137
  49.1597830 123.1605532  12.5337021  48.3498558 122.8152617  12.9092268
  49.8482246 122.8513076  13.1224633  51.0888378 122.2383579  14.1561318
  51.6419416 122.6579033  14.8151341  51.3258464 121.3119327  14.1984274
  47.1121477 128.2270653  29.9364082  47.0118204 129.1765010  29.8676173
  46.8943019 127.8988892  29.0640152  54.4667185 124.3484104  13.6639982
  53.8865854 125.0068908  13.2818035  54.2003118 123.5261449  13.2527400
  52.9170751 123.7489162  15.8661303  53.4170530 123.8605697  15.0575622
  53.5606359 123.4450215  16.5062111  46.9752747 131.6567792  28.7529144
  46.4919829 132.4568152  28.9593033  47.0613686 131.6675737  27.7996588
  43.4925467 134.1173442  23.3568375  44.3118356 134.6117521  23.3803212
  43.7662274 133.2005411  23.3285943  53.2492063 126.5084195  12.7196331
  52.3617918 126.7933845  12.5016525  53.6646052 126.3477958  11.8723608
  56.6006599 126.5330716  16.4350670  57.3766989 127.0227168  16.7075287
  55.8754733 126.9588770  16.8922539  59.0379158 127.2458335  17.4924611
  59.6323648 127.0054071  16.7817919  59.1105741 126.5265466  18.1198147
  57.0337893 127.8128463  13.7596740  56.7774827 127.4125098  14.5904948
  56.4090761 128.5272256  13.6346879  61.3450230 130.5524536  16.2668032
  60.7849788 130.6217725  17.0399594  60.7393734 130.3765520  15.5467528
  38.7460381 128.4511576  24.0560572  39.3919245 127.9410530  24.5447797
  38.5377532 129.1880258  24.6303997  51.2713773 135.5192424  29.5552713
  52.1404933 135.6933076  29.1939348  50.7920525 136.3386841  29.4328442
  47.2663991 122.7151621   9.8084468  47.2542661 123.6593461   9.9652739
  48.1587413 122.5321766   9.5143930  51.0816111 119.3094398  14.0630405
  50.3148507 118.7552884  14.2087088  51.4926816 119.3816266  14.9244557
  43.0857872 125.5979193  28.1535586  43.9489334 125.2415998  28.3638911
  42.5123283 125.2593088  28.8410991  55.6439373 139.0059910  29.1465558
  55.2506318 138.4526109  29.8213202  56.4605513 139.3170489  29.5372075
  58.5607334 140.4217789  26.7385815  59.3017047 141.0224942  26.6590277
  58.7925257 139.6795427  26.1803857  62.5064497 136.4498892  21.0150096
  62.1628766 137.3400534  20.9389207  62.8743459 136.2600550  20.1519681
  60.3858791 140.2041683  23.9633111  59.7386706 140.9031632  23.8697587
  61.1559806 140.6377827  24.3309359  58.5542481 138.0411459  20.4133770
  59.3768550 137.5671937  20.2912660  58.7980544 138.8201943  20.9132456
  61.7593740 139.0890495  22.0195920  62.2775684 139.8251522  21.6942408
  61.4048873 139.3954488  22.8542679  16.8640721  64.0237781  11.5791024
  16.8529362  63.6290580  10.7071528  17.0261361  63.2903854  12.1724796
  13.5847983  66.8074893  10.5270208  13.2937849  67.7120524  10.4116875
  14.2204967  66.8491421  11.2414278  16.0175877  60.4308495  13.1452337
  15.2409211  60.9902415  13.1355201  16.6566440  60.9165278  13.6667207
  14.2722250  63.2393948  12.7070304  15.0136934  63.7778992  12.4305127
  13.5659235  63.8660237  12.8641855  19.7477589  65.3823088  11.3042465
  20.1560945  64.9405499  10.5597097  19.0254851  64.8075716  11.5576658
  22.3192395  67.4010631   7.1856819  23.1409839  66.9990819   6.9039500
  22.3154798  67.2978865   8.1372934  17.4265493  69.2386349  13.3396851
  16.9829347  68.4522727  13.0217756  18.0882706  69.4265499  12.6740742
  19.5246731  69.5189149  11.3678253  19.5065206  70.3398030  10.8758522
  20.4466651  69.3943224  11.5928394  15.9819785  67.0333278  12.2101761
  16.5148122  66.2721566  11.9801069  15.4533866  66.7406930  12.9525916
  25.3747463  66.0078244   8.1888090  25.5683353  66.9124054   8.4347365
  25.2748081  65.5485663   9.0226675  20.4362572  66.1584987  13.7628971
  20.2848078  65.9295538  12.8459055  20.4267251  67.1155588  13.7760316
  22.1454778  69.1904109  11.8405453  22.0867325  68.5063329  11.1736036
  22.5474297  69.9323099  11.3886079  22.1472186  67.1543693  10.0719432
  21.2598964  66.8169615  10.1945831  22.7170737  66.4226724  10.3088198
  18.1372023  71.7131980   9.1938834  18.8499995  72.3479444   9.1214736
  17.6462051  71.8095846   8.3778836  13.1883936  69.4626423  10.0144405
  13.8893396  70.0962906  10.1673799  12.7179051  69.8041155   9.2540044
  17.0372795  62.7590842  14.3262993  16.3613432  62.6584971  14.9965368
  17.8600429  62.6030055  14.7898990  15.7795578  74.0657769   8.5620609
  16.3313886  74.2289391   9.3269694  16.1201771  74.6562207   7.8900633
  20.6306452  68.8919027  14.4169263  21.1746356  69.5048985  13.9224218
  20.0493297  69.4498605  14.9336276  20.9798874  69.8148765   7.1763841
  20.0329209  69.6954116   7.1042168  21.3281647  68.9271263   7.2590102
  15.9261389  71.6316251  10.5769263  16.2348516  71.3865397  11.4491963
  16.7236871  71.8362889  10.0888133  23.9535247  68.3515081  13.7530584
  23.1630790  68.3339219  13.2135084  23.7168601  68.8903374  14.5079621
  24.0733122  65.2007547  11.0663313  24.1231127  65.0357554  12.0078836
  23.9647045  64.3334806  10.6761194  21.3636884  61.1838475  12.3822619
  22.2646747  61.0444940  12.0906617  21.4384859  61.3492930  13.3220797
  25.5751319  67.6204488  11.3105334  25.2836127  67.9834469  12.1468795
  24.9623450  66.9071497  11.1318666  23.8238507  62.7437103   9.7785392
  24.2992628  62.9364749   8.9704244  22.9004072  62.7996289   9.5328776
  30.8204803  63.9024990   6.2662034  31.5508192  63.6410278   6.8269738
  30.2111749  63.1653712   6.3064102  16.7250277  65.7622782  14.6283859
  17.6453286  65.9401381  14.8223905  16.6899860  64.8178827  14.4763558
  14.5940215  59.2457022  16.6609389  14.4936942  60.1951379  16.5921480
  14.3761757  58.9175261  15.7885459  14.4571485  62.6754161  15.4774450
  13.9738567  63.4754521  15.6838339  14.5432424  62.6862106  14.5241894
  18.7532511  66.5378793  16.2798019  19.6223671  66.7119446  15.9184654
  18.2739262  67.3573210  16.1573749  12.9218691  73.6575894   7.9587453
  13.8245938  73.6899505   8.2753948  12.6956061  72.7276345   7.9733789
  30.4124987  78.2467419   5.6843294  31.0503397  78.1274167   4.9806634
  30.2945830  79.1948263   5.7431246  27.2214693  78.1994847   5.6204819
  26.8833204  78.0835912   4.7325354  28.0904461  77.7986012   5.6005825
  23.0801509  80.0530324   1.6101710  22.5166374  79.9620261   0.8417997
  22.9653904  79.2330228   2.0904202  27.7034476  79.3529699  11.5791024
  27.6923117  78.9582497  10.7071528  27.8655115  78.6195772  12.1724796
  20.6265941  81.5481515   4.4485930  21.4187233  81.2072340   4.0332229
  20.8662591  81.6576490   5.3688083  24.4241737  82.1366811  10.5270208
  24.1331603  83.0412442  10.4116875  25.0598721  82.1783339  11.2414278
  25.3497944  79.5143659   7.1171568  25.9461516  79.2899682   6.4028531
  25.4072915  78.7728405   7.7197016  29.9666255  75.9718873   2.7596502
  30.7529344  75.5538296   2.4086919  30.2304959  76.8764965   2.9278150
  30.1376333  81.4091723  -2.5414841  29.5022165  81.4826350  -1.8293936
  29.8073739  81.9985322  -3.2195762  35.3674682  75.9094106   3.6629481
  36.0999854  75.3393323   3.8967310  34.6114038  75.5215707   4.1035986
  26.9850802  78.3321348   0.8592823  26.6209009  77.8051969   1.5705745
  27.8417918  77.9419817   0.6859308  32.8900103  69.6215680   8.1224089
  32.5583427  70.4911091   7.8985304  32.2945716  69.3051964   8.8018120
  29.3831622  81.8228226   7.5220002  29.0832345  82.7253265   7.4135809
  29.0382682  81.5560410   8.3741155  22.8344104  78.2742023   3.5556706
  21.9094600  78.1418237   3.7634398  23.0828517  79.0536243   4.0526649
  32.7828766  74.3410767   5.2017439  31.8745643  74.2726175   4.9076200
  32.7316362  74.8182712   6.0299265  20.1952915  77.9175297   4.3900495
  20.3245296  78.1709776   5.3039907  19.5150366  78.5103005   4.0705151
  26.8569632  75.7600412  13.1452337  26.0802966  76.3194332  13.1355201
  27.4960195  76.2457195  13.6667207  34.6490412  72.5427205   6.9795313
  34.0064793  72.8359738   6.3335108  34.1445341  72.4280125   7.7848510
  32.3030576  76.2890378  -2.3318828  33.2148432  76.5217765  -2.5071130
  31.7940223  76.8727422  -2.8943749  25.1116004  78.5685866  12.7070304
  25.8530688  79.1070910  12.4305127  24.4052990  79.1952154  12.8641855
  30.5871344  80.7115006  11.3042465  30.9954700  80.2697417  10.5597097
  29.8648605  80.1367634  11.5576658  26.9402414  75.6487613   8.6776022
  27.7863609  76.0727026   8.8210671  26.8801051  74.9921237   9.3714585
  30.9100158  81.2716197   5.0594754  30.2809021  81.4361911   4.3570822
  30.5225820  81.6857806   5.8305718  34.7889390  82.2070635   2.4139118
  34.1040428  82.5869536   1.8636151  34.8733240  82.8165961   3.1471065
  30.0901859  73.3091981  10.3357196  29.8462791  74.0634042   9.7991471
  30.3661790  73.6877329  11.1704443  32.0440322  79.8530594   9.0134461
  32.2557217  80.4962353   8.3368842  31.9970070  79.0192910   8.5456391
  29.6466551  72.4648414   5.9171033  28.7851030  72.7629668   6.2087771
  29.6728985  72.6818813   4.9852066  26.4628120  81.0090605   2.3244839
  26.9266466  81.2878308   1.5349462  26.1984918  80.1074049   2.1417930
  23.3552201  80.5562086   5.2624602  23.9253558  80.9849355   4.6242087
  23.9460313  80.2744671   5.9608788  23.8477368  75.7225514  13.5085614
  23.2176028  76.4041795  13.7421010  23.7413456  75.6108595  12.5638752
  19.1422340  75.3897310   4.4351538  18.3521394  75.6454838   3.9591648
  19.6333588  76.2045648   4.5403578  33.1586150  82.7302549   7.1856819
  33.9803594  82.3282736   6.9039500  33.1548553  82.6270783   8.1372934
  26.9242753  82.2786592   9.3417529  26.9887186  82.7406999  10.1775701
  26.2153677  81.6483957   9.4699839  17.4260043  75.6427800   6.8666529
  17.6768082  76.5274810   7.1324104  17.9619592  75.4632402   6.0941620
  41.2492143  79.0741297   3.5341790  40.4955851  78.5048696   3.3785794
  41.3839684  79.0403962   4.4812425  23.1258111  70.0246280  15.8710865
  22.7325056  69.4712478  16.5458509  23.9424251  70.3356858  16.2617382
  26.0426072  71.4404159  13.4631121  26.7835785  72.0411312  13.3835584
  26.2743994  70.6981796  12.9049164  21.1867410  76.6260526  11.7409351
  21.0720925  75.7245783  12.0416450  20.3311927  76.8724223  11.3894167
  28.2659247  84.5678266  13.3396851  27.8223101  83.7814645  13.0217756
  28.9276461  84.7557417  12.6740742  23.0246368  86.0974068   7.8657530
  23.5753794  85.9691131   7.0934524  22.1857844  86.3968957   7.5152423
  30.3640485  84.8481066  11.3678253  30.3458961  85.6689947  10.8758522
  31.2860405  84.7235141  11.5928394  26.8213540  82.3625196  12.2101761
  27.3541876  81.6013484  11.9801069  26.2927621  82.0698847  12.9525916
  29.9883234  67.4685262   7.7395403  29.6447504  68.3586903   7.6634513
  30.3562197  67.2786919   6.8764988  29.0679775  69.8389917   5.7044636
  28.5644570  69.8020052   4.8912441  29.3610382  70.7482660   5.7641293
  25.3122661  69.9228647   4.7110818  26.1775658  69.7271455   4.3516707
  25.3800170  69.6938998   5.6380175  34.9267791  80.2126227  -1.8178989
  34.1497234  79.8737387  -2.2623826  35.6059272  80.2178851  -2.4924024
  28.1866252  81.4911188  -0.2779427  27.6587614  80.7563948  -0.5906189
  27.6853755  82.2685864  -0.5239459  33.1659098  79.6860209   4.8387619
  32.5082773  80.3759470   4.9267748  33.9699497  80.0756641   5.1821606
  31.9764557  78.0404581   2.8891561  32.4896439  78.6734573   3.3913271
  32.6265781  77.4405777   2.5234921  28.4545388  75.5154037   5.1349902
  27.5367949  75.7368984   4.9771590  28.8705532  75.5900347   4.2761609
  29.2380436  76.9145453   0.2652582  29.9852255  77.4266850  -0.0440296
  29.5072025  76.5929505   1.1256976  32.7426353  83.0210583   1.0170704
  32.2888680  82.1801493   1.0735894  32.1120320  83.6571981   1.3545484
  31.6859273  73.9502569   2.2471371  30.9482030  73.4379955   2.5781614
  31.9386046  73.5102950   1.4354648  31.1859292  84.8587079   1.9520522
  31.4782267  85.4192137   1.2332888  31.6957913  85.1515640   2.7073681
  26.0591980  77.0232614   3.3489332  26.1140590  76.0706450   3.2731808
  25.2483182  77.1792053   3.8330630  23.9984340  75.6409674   1.1079710
  23.1852205  75.9403844   1.5144903  24.4943334  75.2465362   1.8254193
  26.1492918  85.6367431   3.0413975  26.1069096  85.8628277   2.1122507
  27.0655617  85.4030805   3.1899776  29.5958551  76.1051498   9.9394604
  29.9507939  76.3322971  10.7989070  30.2430683  76.4369875   9.3171860
  35.3256288  79.2269934   0.6443933  35.1874187  79.4171530  -0.2834877
  34.9692507  79.9889317   1.1011985  23.4898415  73.2128029   6.7240945
  24.1297794  73.0716788   6.0263909  22.6575945  72.9262543   6.3479547
  35.3525668  81.2946461   5.6555205  35.7862175  81.2021750   6.5038259
  36.0657249  81.2703961   5.0175221  24.2658718  82.5130460   2.8375938
  25.0599317  82.0180780   2.6358513  23.5550411  81.9848323   2.4743643
  29.0853563  84.8948555   7.1888305  29.1390585  85.4639491   7.9566021
  28.2168344  85.0650440   6.8242343  21.9651956  74.5966111   8.6712757
  22.6375010  74.3883473   8.0225406  21.1381743  74.3988197   8.2317989
  36.2141218  81.3370162   8.1888090  36.4077108  82.2415972   8.4347365
  36.1141836  80.8777581   9.0226675  27.8677528  71.2228052  10.6878418
  27.2205443  71.9218002  10.5942894  28.6378544  71.6564196  11.0554666
  31.2756326  81.4876904  13.7628971  31.1241833  81.2587456  12.8459055
  31.2661006  82.4447506  13.7760316  28.0441663  79.0608817   8.7475237
  28.9733723  79.2119977   8.5744205  27.6232693  79.1492838   7.8923884
  26.8429994  83.0859482   6.5173775  26.7041080  82.7178266   7.3899713
  26.0544591  83.6007121   6.3457733  28.3935210  82.4641084   3.9062613
  28.0585042  82.4241854   4.8020263  27.8939155  81.7985800   3.4333023
  22.3679454  77.8708714   9.4315194  22.2299251  77.1388953  10.0326733
  23.2784377  77.7817614   9.1499382  24.9961754  77.5828674   8.9198874
  25.7061373  76.9421866   8.8785492  24.9531062  77.8341568   9.8425054
  32.9848533  84.5196027  11.8405453  32.9261079  83.8355247  11.1736036
  33.3868051  85.2615017  11.3886079  23.7090688  74.5693891  10.7394513
  23.1728045  74.1184630  11.3916109  23.1207397  74.7039800   9.9964977
  32.9865940  82.4835611  10.0719432  32.0992719  82.1461533  10.1945831
  33.5564491  81.7518642  10.3088198  19.4429809  73.7049899   7.8247508
  19.3587998  73.0975569   7.0897917  18.6212516  74.1958917   7.8257004
  26.5167094  87.1437063   7.0380676  26.4437265  87.9492035   7.5499980
  26.0744487  87.3429029   6.2128697  29.6153523  72.1903463   3.1917703
  30.1122223  71.4373425   2.8718773  28.8440505  72.2267779   2.6260912
  37.4683281  77.8943828   4.8335994  37.4573157  78.7768544   4.4629927
  36.6000660  77.5415379   4.6390531  28.9765777  87.0423897   9.1938834
  29.6893749  87.6771362   9.1214736  28.4855806  87.1387763   8.3778836
  30.6983304  80.9475150   0.7656126  29.7639583  81.0676612   0.5960830
  30.8759972  80.0447617   0.5016136  26.1988492  74.3320846   2.9189387
  25.8286280  73.7791886   3.6070293  26.6947584  73.7278979   2.3664387
  34.0855855  76.7892469   1.3006160  34.5516308  77.6220461   1.2266463
  34.5363356  76.3237451   2.0051419  24.0277691  84.7918341  10.0144405
  24.7287150  85.4254824  10.1673799  23.5572806  85.1333072   9.2540044
  32.1532086  83.1336291  -1.7007688  32.4291930  83.0192885  -0.7913814
  31.2836585  82.7353775  -1.7395515  32.0572518  69.1573056   5.3397061
  31.1435598  69.3877283   5.5079268  32.4865620  69.2411500   6.1911094
  31.8278977  77.3462948   7.8396955  31.1750427  77.5938856   7.1849408
  32.2059356  76.5327086   7.5059433  28.7886150  87.3822641   1.9425126
  28.9708545  86.5644297   2.4052878  29.6119136  87.5990334   1.5050016
  29.1228316  86.3090826  -0.7959826  29.6516082  85.7983281  -1.4089664
  29.3856536  85.9933357   0.0685707  27.8766550  78.0882759  14.3262993
  27.2007187  77.9876889  14.9965368  28.6994183  77.9321973  14.7898990
  19.6245409  84.3254696   6.9475508  20.2098845  83.5798384   7.0803412
  19.4270247  84.6358652   7.8312172  26.6189332  89.3949687   8.5620609
  27.1707641  89.5581308   9.3269694  26.9595526  89.9854125   7.8900633
  21.5953826  71.7424836   9.1642493  21.6595152  72.6039667   8.7519891
  21.5320946  71.1298838   8.4314852  21.0706098  73.8147969  12.8115528
  21.6978137  73.4325046  13.4253052  20.2134017  73.5962171  13.1771220
  31.4700207  84.2210944  14.4169263  32.0140111  84.8340902  13.9224218
  30.8887052  84.7790523  14.9336276  29.7557720  87.3431662   5.5484291
  29.6308859  86.5421402   5.0395236  30.4136811  87.8377856   5.0598261
  21.3765888  73.6980395   4.7261431  20.6552474  74.3116362   4.5868904
  22.1659144  74.2338160   4.6478077  31.8192628  85.1440682   7.1763841
  30.8722964  85.0246033   7.1042168  32.1675401  84.2563180   7.2590102
  24.1792202  71.0334821  11.0002083  24.7026603  71.2797118  11.7628392
  23.9604535  71.8654856  10.5805220  28.8239061  84.9393399   3.3768193
  28.6764024  84.0110106   3.5575763  29.6492555  84.9613489   2.8925268
  32.4273183  85.7621957   4.4633066  33.3519731  85.5564819   4.3257517
  32.2588487  85.5138358   5.3722407  25.3844747  71.9748516   8.6851753
  25.0441567  71.1756329   9.0872433  24.6783753  72.2750227   8.1128586
  26.0361218  69.0597829   7.1379076  26.8587288  68.5858307   7.0157967
  26.2799282  69.8388313   7.6377763  23.5599797  75.7516949   4.9471055
  23.4144378  76.0657252   5.8395336  23.0825001  76.3701850   4.3941954
  25.4196180  72.7419497   4.9951944  25.4057749  71.8460591   4.6584242
  26.1368608  72.7490161   5.6290230  27.2722311  73.1756838   7.0405072
  27.0140089  74.0973908   7.0389402  26.7407351  72.7787272   7.7305536
  32.2168499  86.2807625  -0.1804843  32.3905377  85.7154047  -0.9330990
  32.7097391  87.0808520  -0.3625353  18.0345459  78.2922294   7.8858716
  17.4898927  79.0682102   8.0178990  18.9124809  78.6393098   7.7277837
  38.0707891  79.0444048   1.4385457  38.5139037  78.2951373   1.0404580
  37.1934401  79.0354184   1.0559189  33.2043672  85.5974389  -3.0807944
  33.8994577  86.2181082  -2.8620630  33.5466822  84.7469740  -2.8055567
  18.8211481  77.4192190  10.7788873  18.0793217  77.5674825  11.3653503
  18.5004225  77.6800456   9.9155622  35.1035095  83.0474095  -1.5520614
  35.6286419  83.3861367  -2.2771294  35.0157448  82.1121110  -1.7357479
  26.7655144  86.9608168  10.5769263  27.0742270  86.7157315  11.4491963
  27.5630626  87.1654807  10.0888133  26.7875756  89.1146078   2.8074639
  26.3480746  88.6222457   3.5007496  27.5383873  88.5719046   2.5666715
  24.2349628  84.6584087   4.8796941  23.6129637  83.9954792   4.5799169
  24.9054495  84.6845219   4.1970589  24.3074155  73.1365875  14.4729447
  24.3562311  74.0127998  14.0907217  24.8496670  72.5943268  13.9001090
  34.7929001  83.6806998  13.7530584  34.0024545  83.6631137  13.2135084
  34.5562356  84.2195292  14.5079621  34.9126876  80.5299465  11.0663313
  34.9624881  80.3649472  12.0078836  34.8040800  79.6626724  10.6761194
  32.2030639  76.5130393  12.3822619  33.1040501  76.3736858  12.0906617
  32.2778613  76.6784848  13.3220797  26.5373444  73.8897247  11.2275806
  25.6676753  74.1830813  10.9558394  26.7732924  74.4737692  11.9483069
  36.4145073  82.9496406  11.3105334  36.1229881  83.3126387  12.1468795
  35.8017204  82.2363414  11.1318666  37.6140755  80.5149286   3.8307905
  38.4487647  80.9539090   3.9945465  37.7499884  80.0387939   3.0116150
  34.6632261  78.0729021   9.7785392  35.1386383  78.2656667   8.9704244
  33.7397827  78.1288207   9.5328776  29.2412478  70.1076864   8.7441226
  29.7594422  70.8437891   8.4187715  28.8867611  70.4140858   9.5787985
  29.4925072  66.5277147   4.2642123  29.7726826  65.8600336   4.8902549
  30.2775679  66.7206242   3.7516787  33.3633930  74.9494781   8.0113698
  34.3151353  75.0492879   8.0325922  33.1937381  74.1573049   8.5211782
  31.3848310  72.0350364   8.1973099  30.7898242  72.3155377   7.5019587
  31.0998006  72.5244265   8.9689840  35.8422008  78.1700901   7.1255998
  35.8098328  77.2316901   7.3115681  36.4522632  78.2484937   6.3921822
  35.9916497  74.9611944   7.1714281  35.4755545  74.1770401   6.9844210
  36.8756445  74.6330661   7.3360800  33.6527223  68.7052960   3.1310093
  33.4552045  68.3968048   4.0153425  34.2626929  69.4314598   3.2608023
  41.6598558  79.2316907   6.2662034  42.3901946  78.9702196   6.8269738
  41.0505503  78.4945629   6.3064102  39.7413855  77.3724770   6.8636486
  39.0147019  77.2380735   6.2552977  39.3261142  77.6801599   7.6693204
  27.5644031  81.0914700  14.6283859  28.4847041  81.2693299  14.8223905
  27.5293615  80.1470745  14.4763558  20.5606104  79.0015734   7.2706640
  20.7792114  79.9332842   7.2894674  20.9731878  78.6423709   8.0561444
  25.4333969  74.5748940  16.6609389  25.3330696  75.5243297  16.5921480
  25.2155511  74.2467179  15.7885459  31.2383244  70.0967449   2.5906609
  31.7383022  70.2083984   1.7820928  31.8818851  69.7928502   3.2307418
  25.2965239  78.0046079  15.4774450  24.8132321  78.8046439  15.6838339
  25.3826178  78.0154024  14.5241894  21.2238577  81.8950614   7.5142884
  22.1781830  81.8634556   7.4472816  21.0251100  81.4341237   8.3293110
  21.8137959  80.4651730  10.0813682  22.6330848  80.9595808  10.1048519
  22.0874767  79.5483698  10.0531249  34.9219091  72.8809003   3.1595977
  35.6979481  73.3705455   3.4320593  34.1967226  73.3067057   3.6167846
  37.3591650  73.5936622   4.2169917  37.9536141  73.3532358   3.5063225
  37.4318234  72.8743753   4.8443453  31.5445579  78.3717018  -0.3408073
  31.4880780  78.8285569  -1.1800440  32.0973921  77.6107703  -0.5185230
  35.3550385  74.1606750   0.4842047  35.0987319  73.7603385   1.3150255
  34.7303253  74.8750544   0.3592186  39.6662723  76.9002823   2.9913338
  39.1062281  76.9696012   3.7644900  39.0606226  76.7243808   2.2712835
  32.6234466  83.0589686  -4.4111883  33.4580070  82.6270884  -4.5934408
  32.4618809  82.8871700  -3.4834988  32.2780358  79.5621799  -3.0455543
  32.2229162  79.3966071  -3.9867099  31.6526414  80.2697832  -2.8893354
  17.0672873  74.7989864  10.7805879  17.7131737  74.2888818  11.2693104
  16.8590024  75.5358545  11.3549304  29.5926265  81.8670711  16.2798019
  30.4617425  82.0411363  15.9184654  29.1133017  82.6865128  16.1573749
  23.7612446  88.9867812   7.9587453  24.6639692  89.0191422   8.2753948
  23.5349816  88.0568263   7.9733789  25.5166048  87.7398799   4.6197532
  24.5661679  87.7400660   4.5061904  25.8198534  86.9931533   4.1033566
  21.4070364  71.9457481  14.8780893  22.2701826  71.5894285  15.0884218
  20.8335775  71.6071375  15.5656297  41.2518741  93.5759337   5.6843294
  41.8897151  93.4566084   4.9806634  41.1339584  94.5240181   5.7431246
  38.0608447  93.5286765   5.6204819  37.7226959  93.4127830   4.7325354
  38.9298216  93.1277930   5.6005825  33.9195263  95.3822241   1.6101710
  33.3560128  95.2912178   0.8417997  33.8047658  94.5622146   2.0904202
  38.5428230  94.6821617  11.5791024  38.5316871  94.2874415  10.7071528
  38.7048870  93.9487689  12.1724796  31.4659695  96.8773433   4.4485930
  32.2580987  96.5364258   4.0332229  31.7056345  96.9868408   5.3688083
  35.2635492  97.4658729  10.5270208  34.9725358  98.3704359  10.4116875
  35.8992476  97.5075256  11.2414278  36.1891698  94.8435577   7.1171568
  36.7855271  94.6191600   6.4028531  36.2466670  94.1020323   7.7197016
  40.8060010  91.3010791   2.7596502  41.5923099  90.8830214   2.4086919
  41.0698714  92.2056883   2.9278150  40.9770087  96.7383641  -2.5414841
  40.3415920  96.8118268  -1.8293936  40.6467493  97.3277240  -3.2195762
  46.2068437  91.2386024   3.6629481  46.9393609  90.6685241   3.8967310
  45.4507792  90.8507624   4.1035986  37.8244557  93.6613266   0.8592823
  37.4602764  93.1343886   1.5705745  38.6811672  93.2711735   0.6859308
  43.7293857  84.9507598   8.1224089  43.3977182  85.8203009   7.8985304
  43.1339471  84.6343882   8.8018120  37.4650043  88.6903165  -4.1445828
  37.6324446  89.5583402  -3.7775357  37.2747213  88.8530447  -5.0684539
  40.2225377  97.1520144   7.5220002  39.9226100  98.0545183   7.4135809
  39.8776436  96.8852327   8.3741155  33.6737858  93.6033941   3.5556706
  32.7488355  93.4710155   3.7634398  33.9222271  94.3828160   4.0526649
  43.6222520  89.6702684   5.2017439  42.7139398  89.6018093   4.9076200
  43.5710116  90.1474629   6.0299265  37.4439264  91.1460823  -3.1599162
  37.3238890  91.5917873  -2.3213681  36.7491853  91.4946140  -3.7185623
  31.0346669  93.2467215   4.3900495  31.1639050  93.5001693   5.3039907
  30.3544120  93.8394923   4.0705151  37.6963386  91.0892330  13.1452337
  36.9196720  91.6486250  13.1355201  38.3353949  91.5749113  13.6667207
  45.4884167  87.8719123   6.9795313  44.8458547  88.1651656   6.3335108
  44.9839095  87.7572043   7.7848510  43.1424331  91.6182296  -2.3318828
  44.0542187  91.8509683  -2.5071130  42.6333978  92.2019340  -2.8943749
  35.9509759  93.8977783  12.7070304  36.6924443  94.4362827  12.4305127
  35.2446744  94.5244072  12.8641855  41.4265098  96.0406924  11.3042465
  41.8348454  95.5989334  10.5597097  40.7042360  95.4659551  11.5576658
  37.7796168  90.9779530   8.6776022  38.6257363  91.4018944   8.8210671
  37.7194806  90.3213155   9.3714585  41.7493913  96.6008114   5.0594754
  41.1202775  96.7653828   4.3570822  41.3619575  97.0149724   5.8305718
  45.6283145  97.5362552   2.4139118  44.9434183  97.9161454   1.8636151
  45.7126994  98.1457879   3.1471065  40.9295614  88.6383899  10.3357196
  40.6856545  89.3925959   9.7991471  41.2055544  89.0169246  11.1704443
  42.8834076  95.1822511   9.0134461  43.0950972  95.8254271   8.3368842
  42.8363825  94.3484828   8.5456391  40.4860305  87.7940332   5.9171033
  39.6244784  88.0921585   6.2087771  40.5122740  88.0110731   4.9852066
  37.3021875  96.3382522   2.3244839  37.7660220  96.6170225   1.5349462
  37.0378673  95.4365967   2.1417930  34.1945956  95.8854004   5.2624602
  34.7647313  96.3141272   4.6242087  34.7854068  95.6036589   5.9608788
  36.2390761  92.4605675  -0.8665596  36.9414804  92.9126718  -0.3991669
  35.9071389  91.8189494  -0.2385703  34.6871122  91.0517431  13.5085614
  34.0569783  91.7333712  13.7421010  34.5807210  90.9400513  12.5638752
  29.9816095  90.7189227   4.4351538  29.1915149  90.9746756   3.9591648
  30.4727342  91.5337565   4.5403578  43.9979904  98.0594467   7.1856819
  44.8197348  97.6574654   6.9039500  43.9942307  97.9562701   8.1372934
  31.9330840  91.0833807   1.3935014  31.1362003  91.1952501   1.9118510
  31.7056432  91.4220459   0.5275905  37.7636508  97.6078510   9.3417529
  37.8280940  98.0698917  10.1775701  37.0547432  96.9775875   9.4699839
  28.2653798  90.9719718   6.8666529  28.5161836  91.8566728   7.1324104
  28.8013346  90.7924319   6.0941620  52.0885897  94.4033215   3.5341790
  51.3349606  93.8340613   3.3785794  52.2233439  94.3695880   4.4812425
  33.9651865  85.3538197  15.8710865  33.5718811  84.8004396  16.5458509
  34.7818005  85.6648776  16.2617382  36.8819826  86.7696076  13.4631121
  37.6229539  87.3703229  13.3835584  37.1137749  86.0273714  12.9049164
  32.0261164  91.9552444  11.7409351  31.9114679  91.0537701  12.0416450
  31.1705682  92.2016140  11.3894167  39.1053002  99.8970184  13.3396851
  38.6616856  99.1106562  13.0217756  39.7670215 100.0849334  12.6740742
  33.8640123 101.4265986   7.8657530  34.4147548 101.2983049   7.0934524
  33.0251599 101.7260875   7.5152423  41.2034240 100.1772984  11.3678253
  41.1852715 100.9981865  10.8758522  42.1254160 100.0527059  11.5928394
  37.6607294  97.6917113  12.2101761  38.1935631  96.9305402  11.9801069
  37.1321375  97.3990765  12.9525916  40.8276989  82.7977179   7.7395403
  40.4841258  83.6878821   7.6634513  41.1955952  82.6078837   6.8764988
  40.7927272  92.7885790  -3.7532162  40.2773895  93.5590395  -3.5143775
  40.5204580  92.1150927  -3.1299101  38.3774383  87.6335491   1.3053076
  37.5215979  87.2442342   1.1258715  38.7901334  87.7127452   0.4452862
  39.9073529  85.1681834   5.7044636  39.4038325  85.1311970   4.8912441
  40.2004136  86.0774577   5.7641293  36.1516415  85.2520564   4.7110818
  37.0169412  85.0563373   4.3516707  36.2193924  85.0230916   5.6380175
  45.7661546  95.5418145  -1.8178989  44.9890989  95.2029305  -2.2623826
  46.4453027  95.5470768  -2.4924024  40.5813575  90.6612883  -1.9272381
  40.2763710  90.9759032  -1.0762238  41.5344017  90.7394302  -1.8845048
  39.0260007  96.8203106  -0.2779427  38.4981368  96.0855865  -0.5906189
  38.5247509  97.5977782  -0.5239459  44.0052853  95.0152126   4.8387619
  43.3476527  95.7051388   4.9267748  44.8093252  95.4048558   5.1821606
  33.7578734  87.4822772   2.0827185  34.3322486  87.2597954   1.3500378
  34.3449717  87.5511467   2.8355786  42.8158312  93.3696499   2.8891561
  43.3290193  94.0026491   3.3913271  43.4659535  92.7697695   2.5234921
  36.0601402  84.3564021   0.8102254  35.4065814  84.0413038   0.1858869
  36.0181876  83.7339761   1.5362077  39.2939142  90.8445955   5.1349902
  38.3761704  91.0660902   4.9771590  39.7099286  90.9192265   4.2761609
  40.0774190  92.2437370   0.2652582  40.8246009  92.7558767  -0.0440296
  40.3465780  91.9221423   1.1256976  38.3500840  94.7395911  -2.7520464
  37.4412060  94.4554944  -2.6547994  38.3795924  95.1594990  -3.6117157
  43.5820108  98.3502500   1.0170704  43.1282435  97.5093410   1.0735894
  42.9514074  98.9863899   1.3545484  42.5253027  89.2794486   2.2471371
  41.7875784  88.7671873   2.5781614  42.7779801  88.8394868   1.4354648
  42.0253047 100.1878997   1.9520522  42.3176021 100.7484054   1.2332888
  42.5351668 100.4807558   2.7073681  42.6264655  82.0570738   2.8413141
  42.9323531  81.1968102   2.5539056  43.3517259  82.6488359   2.6412134
  36.8985734  92.3524532   3.3489332  36.9534344  91.3998368   3.2731808
  36.0876936  92.5083971   3.8330630  34.8378094  90.9701591   1.1079710
  34.0245960  91.2695762   1.5144903  35.3337088  90.5757280   1.8254193
  36.9886672 100.9659348   3.0413975  36.9462851 101.1920195   2.1122507
  37.9049371 100.7322723   3.1899776  40.4352306  91.4343416   9.9394604
  40.7901694  91.6614889  10.7989070  41.0824437  91.7661793   9.3171860
  46.1650043  94.5561852   0.6443933  46.0267941  94.7463448  -0.2834877
  45.8086262  95.3181234   1.1011985  34.3292169  88.5419947   6.7240945
  34.9691548  88.4008706   6.0263909  33.4969700  88.2554460   6.3479547
  46.1919422  96.6238379   5.6555205  46.6255929  96.5313668   6.5038259
  46.9051003  96.5995879   5.0175221  35.1052473  97.8422377   2.8375938
  35.8993071  97.3472697   2.6358513  34.3944165  97.3140240   2.4743643
  39.9247317 100.2240473   7.1888305  39.9784340 100.7931409   7.9566021
  39.0562099 100.3942358   6.8242343  31.3320785  88.5120272   1.5013932
  31.5927603  89.4265605   1.3923093  32.1537958  88.0444714   1.6510545
  32.8045711  89.9258029   8.6712757  33.4768764  89.7175391   8.0225406
  31.9775497  89.7280115   8.2317989  47.0534972  96.6662079   8.1888090
  47.2470862  97.5707890   8.4347365  46.9535590  96.2069498   9.0226675
  38.7071283  86.5519970  10.6878418  38.0599198  87.2509920  10.5942894
  39.4772298  86.9856114  11.0554666  42.1150081  96.8168822  13.7628971
  41.9635587  96.5879374  12.8459055  42.1054760  97.7739423  13.7760316
  38.8835417  94.3900735   8.7475237  39.8127477  94.5411894   8.5744205
  38.4626447  94.4784756   7.8923884  37.6823749  98.4151399   6.5173775
  37.5434835  98.0470184   7.3899713  36.8938345  98.9299039   6.3457733
  39.2328964  97.7933002   3.9062613  38.8978797  97.7533772   4.8020263
  38.7332910  97.1277718   3.4333023  33.2073208  93.2000632   9.4315194
  33.0693006  92.4680871  10.0326733  34.1178132  93.1109532   9.1499382
  35.8355509  92.9120591   8.9198874  36.5455127  92.2713783   8.8785492
  35.7924817  93.1633486   9.8425054  43.8242287  99.8487945  11.8405453
  43.7654834  99.1647165  11.1736036  44.2261806 100.5906935  11.3886079
  34.5484443  89.8985809  10.7394513  34.0121800  89.4476548  11.3916109
  33.9601151  90.0331718   9.9964977  43.8259695  97.8127529  10.0719432
  42.9386473  97.4753450  10.1945831  44.3958246  97.0810560  10.3088198
  30.2823564  89.0341817   7.8247508  30.1981753  88.4267486   7.0897917
  29.4606270  89.5250835   7.8257004  37.3560848 102.4728981   7.0380676
  37.2831020 103.2783952   7.5499980  36.9138241 102.6720947   6.2128697
  40.4547278  87.5195380   3.1917703  40.9515977  86.7665343   2.8718773
  39.6834259  87.5559697   2.6260912  48.3077035  93.2235746   4.8335994
  48.2966911  94.1060461   4.4629927  47.4394415  92.8707297   4.6390531
  39.8159532 102.3715815   9.1938834  40.5287504 103.0063280   9.1214736
  39.3249560 102.4679681   8.3778836  41.5377058  96.2767068   0.7656126
  40.6033337  96.3968530   0.5960830  41.7153727  95.3739534   0.5016136
  37.0382247  89.6612763   2.9189387  36.6680034  89.1083804   3.6070293
  37.5341339  89.0570897   2.3664387  44.9249610  92.1184387   1.3006160
  45.3910062  92.9512378   1.2266463  45.3757110  91.6529368   2.0051419
  34.8671445 100.1210258  10.0144405  35.5680905 100.7546741  10.1673799
  34.3966560 100.4624990   9.2540044  42.9925841  98.4628208  -1.7007688
  43.2685685  98.3484803  -0.7913814  42.1230340  98.0645693  -1.7395515
  42.8966273  84.4864974   5.3397061  41.9829352  84.7169201   5.5079268
  43.3259374  84.5703418   6.1911094  42.6672731  92.6754866   7.8396955
  42.0144181  92.9230773   7.1849408  43.0453111  91.8619004   7.5059433
  39.6279905 102.7114559   1.9425126  39.8102299 101.8936215   2.4052878
  40.4512891 102.9282251   1.5050016  39.9622070 101.6382744  -0.7959826
  40.4909837 101.1275199  -1.4089664  40.2250290 101.3225274   0.0685707
  38.7160304  93.4174677  14.3262993  38.0400941  93.3168806  14.9965368
  39.5387938  93.2613891  14.7898990  30.4639163  99.6546613   6.9475508
  31.0492600  98.9090301   7.0803412  30.2664002  99.9650570   7.8312172
  37.4583087 104.7241604   8.5620609  38.0101395 104.8873226   9.3269694
  37.7989280 105.3146042   7.8900633  32.4347580  87.0716754   9.1642493
  32.4988907  87.9331585   8.7519891  32.3714700  86.4590756   8.4314852
  31.9099853  89.1439887  12.8115528  32.5371892  88.7616964  13.4253052
  31.0527772  88.9254089  13.1771220  42.3093961  99.5502862  14.4169263
  42.8533865 100.1632820  13.9224218  41.7280806 100.1082440  14.9336276
  40.5951474 102.6723580   5.5484291  40.4702614 101.8713320   5.0395236
  41.2530565 103.1669773   5.0598261  32.2159642  89.0272312   4.7261431
  31.4946228  89.6408280   4.5868904  33.0052898  89.5630077   4.6478077
  42.6586383 100.4732600   7.1763841  41.7116718 100.3537951   7.1042168
  43.0069156  99.5855098   7.2590102  35.0185956  86.3626739  11.0002083
  35.5420358  86.6089035  11.7628392  34.7998289  87.1946774  10.5805220
  39.6632816 100.2685316   3.3768193  39.5157778  99.3402024   3.5575763
  40.4886309 100.2905407   2.8925268  33.5295060  88.9203383  -0.7651315
  33.8691133  89.4489305  -1.4872706  33.9767181  89.2583789   0.0107252
  43.2666938 101.0913875   4.4633066  44.1913485 100.8856736   4.3257517
  43.0982241 100.8430276   5.3722407  36.2238501  87.3040434   8.6851753
  35.8835321  86.5048247   9.0872433  35.5177507  87.6042145   8.1128586
  36.8754973  84.3889746   7.1379076  37.6981042  83.9150225   7.0157967
  37.1193036  85.1680230   7.6377763  35.5163207  87.4178005  -2.5658022
  36.2371570  87.7959258  -3.0694305  34.8928511  88.1366882  -2.4623044
  39.6594330  88.1223154  -1.6299690  39.8757945  89.0047792  -1.9310862
  39.1788397  87.7309367  -2.3594048  34.3993552  91.0808867   4.9471055
  34.2538132  91.3949170   5.8395336  33.9218755  91.6993767   4.3941954
  36.2589935  88.0711415   4.9951944  36.2451503  87.1752508   4.6584242
  36.9762363  88.0782079   5.6290230  38.1116065  88.5048755   7.0405072
  37.8533843  89.4265826   7.0389402  37.5801106  88.1079190   7.7305536
  43.0562254 101.6099542  -0.1804843  43.2299132 101.0445965  -0.9330990
  43.5491145 102.4100437  -0.3625353  28.8739214  93.6214211   7.8858716
  28.3292682  94.3974019   8.0178990  29.7518564  93.9685016   7.7277837
  35.6626830  86.9525795   0.2639515  35.7842742  86.0242442   0.4630402
  35.3728873  86.9664481  -0.6482170  38.5318021  84.6380706   3.4006234
  38.5539718  84.7020039   2.4458214  38.9486080  83.7985214   3.5946741
  48.9101645  94.3735965   1.4385457  49.3532791  93.6243291   1.0404580
  48.0328155  94.3646102   1.0559189  44.0437426 100.9266307  -3.0807944
  44.7388331 101.5472999  -2.8620630  44.3860577 100.0761658  -2.8055567
  29.6605236  92.7484108  10.7788873  28.9186972  92.8966743  11.3653503
  29.3397980  93.0092373   9.9155622  45.9428850  98.3766012  -1.5520614
  46.4680174  98.7153285  -2.2771294  45.8551202  97.4413028  -1.7357479
  37.6048898 102.2900086  10.5769263  37.9136025 102.0449233  11.4491963
  38.4024380 102.4946724  10.0888133  37.6269510 104.4437996   2.8074639
  37.1874501 103.9514374   3.5007496  38.3777627 103.9010963   2.5666715
  35.0743382  99.9876005   4.8796941  34.4523392  99.3246710   4.5799169
  35.7448249 100.0137137   4.1970589  35.1467910  88.4657793  14.4729447
  35.1956065  89.3419915  14.0907217  35.6890424  87.9235186  13.9001090
  45.6322756  99.0098916  13.7530584  44.8418299  98.9923055  13.2135084
  45.3956110  99.5487210  14.5079621  45.7520631  95.8591382  11.0663313
  45.8018636  95.6941390  12.0078836  45.6434554  94.9918641  10.6761194
  43.0424393  91.8422310  12.3822619  43.9434256  91.7028775  12.0906617
  43.1172368  92.0076765  13.3220797  37.3767198  89.2189165  11.2275806
  36.5070508  89.5122731  10.9558394  37.6126679  89.8029610  11.9483069
  47.2538828  98.2788324  11.3105334  46.9623636  98.6418304  12.1468795
  46.6410959  97.5655332  11.1318666  48.4534510  95.8441204   3.8307905
  49.2881401  96.2831008   3.9945465  48.5893639  95.3679857   3.0116150
  45.5026016  93.4020938   9.7785392  45.9780137  93.5948585   8.9704244
  44.5791581  93.4580124   9.5328776  40.0806232  85.4368782   8.7441226
  40.5988176  86.1729809   8.4187715  39.7261365  85.7432775   9.5787985
  40.3318826  81.8569065   4.2642123  40.6120580  81.1892254   4.8902549
  41.1169433  82.0498160   3.7516787  44.2027685  90.2786699   8.0113698
  45.1545108  90.3784796   8.0325922  44.0331135  89.4864967   8.5211782
  42.2242064  87.3642282   8.1973099  41.6291996  87.6447294   7.5019587
  41.9391761  87.8536183   8.9689840  46.6815763  93.4992818   7.1255998
  46.6492083  92.5608819   7.3115681  47.2916386  93.5776855   6.3921822
  46.8310251  90.2903862   7.1714281  46.3149300  89.5062318   6.9844210
  47.7150200  89.9622578   7.3360800  44.4920978  84.0344877   3.1310093
  44.2945799  83.7259965   4.0153425  45.1020684  84.7606516   3.2608023
  52.4992312  94.5608825   6.2662034  53.2295701  94.2994113   6.8269738
  51.8899258  93.8237547   6.3064102  50.5807610  92.7016688   6.8636486
  49.8540773  92.5672653   6.2552977  50.1654896  93.0093516   7.6693204
  38.4037786  96.4206617  14.6283859  39.3240795  96.5985216  14.8223905
  38.3687369  95.4762663  14.4763558  27.6219951  91.6145211   3.5537133
  27.3022735  90.7610519   3.2611507  27.0753379  91.8293789   4.3095101
  31.3999859  94.3307652   7.2706640  31.6185868  95.2624760   7.2894674
  31.8125632  93.9715626   8.0561444  38.3204076  84.8375737  -0.7417672
  37.5104805  84.4922822  -0.3662426  39.0088493  84.5283281  -0.1530060
  40.2494625  83.9153784   0.8806625  40.8025663  84.3349238   1.5396648
  40.4864711  82.9889532   0.9229581  36.2727724  89.9040858  16.6609389
  36.1724451  90.8535215  16.5921480  36.0549266  89.5759097  15.7885459
  43.6273432  86.0254309   0.3885289  43.0472101  86.6839113   0.0063341
  43.3609364  85.2031654  -0.0227293  42.0776998  85.4259367   2.5906609
  42.5776776  85.5375902   1.7820928  42.7212606  85.1220420   3.2307418
  36.1358994  93.3337997  15.4774450  35.6526076  94.1338357  15.6838339
  36.2219933  93.3445941  14.5241894  32.0632331  97.2242531   7.5142884
  33.0175585  97.1926474   7.4472816  31.8644855  96.7633155   8.3293110
  32.6531713  95.7943647  10.0813682  33.4724602  96.2887726  10.1048519
  32.9268521  94.8775615  10.0531249  42.4098310  88.1854400  -0.5558363
  41.5224165  88.4704050  -0.7738168  42.8252299  88.0248163  -1.4031086
  45.7612846  88.2100921   3.1595977  46.5373236  88.6997373   3.4320593
  45.0360980  88.6358975   3.6167846  48.1985404  88.9228540   4.2169917
  48.7929895  88.6824276   3.5063225  48.2711988  88.2035670   4.8443453
  42.3839333  93.7008936  -0.3408073  42.3274535  94.1577487  -1.1800440
  42.9367676  92.9399620  -0.5185230  46.1944139  89.4898667   0.4842047
  45.9381074  89.0895303   1.3150255  45.5697007  90.2042461   0.3592186
  50.5056477  92.2294741   2.9913338  49.9456035  92.2987930   3.7644900
  49.8999981  92.0535725   2.2712835  43.4628221  98.3881604  -4.4111883
  44.2973824  97.9562802  -4.5934408  43.3012563  98.2163617  -3.4834988
  43.1174113  94.8913717  -3.0455543  43.0622917  94.7257988  -3.9867099
  42.4920168  95.5989750  -2.8893354  27.9066628  90.1281781  10.7805879
  28.5525491  89.6180735  11.2693104  27.6983779  90.8650463  11.3549304
  40.4320020  97.1962629  16.2798019  41.3011180  97.3703281  15.9184654
  39.9526771  98.0157046  16.1573749  36.4270238  84.3921826  -3.4670225
  36.4148908  85.3363666  -3.3101954  37.3193660  84.2091971  -3.7610764
  34.6006200 104.3159730   7.9587453  35.5033447 104.3483340   8.2753948
  34.3743570 103.3860181   7.9733789  36.3559802 103.0690716   4.6197532
  35.4055433 103.0692578   4.5061904  36.6592288 102.3223451   4.1033566
  40.2422358  80.9864602   0.7875712  39.4754753  80.4323089   0.9332394
  40.6533063  81.0586471   1.6489863  32.2464119  87.2749398  14.8780893
  33.1095580  86.9186203  15.0884218  31.6729529  86.9363293  15.5656297
  52.0912496 108.9051255   5.6843294  52.7290906 108.7858002   4.9806634
  51.9733339 109.8532099   5.7431246  48.9002202 108.8578683   5.6204819
  48.5620713 108.7419747   4.7325354  49.7691970 108.4569848   5.6005825
  44.7589018 110.7114159   1.6101710  44.1953883 110.6204096   0.8417997
  44.6441413 109.8914064   2.0904202  49.3821985 110.0113534  11.5791024
  49.3710626 109.6166333  10.7071528  49.5442624 109.2779607  12.1724796
  42.3053450 112.2065351   4.4485930  43.0974741 111.8656175   4.0332229
  42.5450100 112.3160326   5.3688083  46.1029246 112.7950646  10.5270208
  45.8119112 113.6996277  10.4116875  46.7386230 112.8367174  11.2414278
  47.0285453 110.1727495   7.1171568  47.6249025 109.9483517   6.4028531
  47.0860424 109.4312240   7.7197016  51.6453764 106.6302708   2.7596502
  52.4316853 106.2122132   2.4086919  51.9092468 107.5348801   2.9278150
  57.0462191 106.5677942   3.6629481  57.7787363 105.9977159   3.8967310
  56.2901547 106.1799542   4.1035986  48.6638311 108.9905183   0.8592823
  48.2996518 108.4635804   1.5705745  49.5205427 108.6003652   0.6859308
  54.5687612 100.2799516   8.1224089  54.2370936 101.1494927   7.8985304
  53.9733225  99.9635800   8.8018120  48.3043798 104.0195083  -4.1445828
  48.4718200 104.8875319  -3.7775357  48.1140967 104.1822365  -5.0684539
  51.0619131 112.4812062   7.5220002  50.7619854 113.3837101   7.4135809
  50.7170191 112.2144245   8.3741155  44.5131613 108.9325859   3.5556706
  43.5882109 108.8002073   3.7634398  44.7616026 109.7120078   4.0526649
  54.4616275 104.9994602   5.2017439  53.5533152 104.9310010   4.9076200
  54.4103871 105.4766547   6.0299265  48.2833019 106.4752740  -3.1599162
  48.1632644 106.9209791  -2.3213681  47.5885607 106.8238058  -3.7185623
  41.8740424 108.5759132   4.3900495  42.0032805 108.8293611   5.3039907
  41.1937875 109.1686840   4.0705151  48.5357141 106.4184248  13.1452337
  47.7590475 106.9778168  13.1355201  49.1747704 106.9041031  13.6667207
  56.3277921 103.2011040   6.9795313  55.6852302 103.4943574   6.3335108
  55.8232850 103.0863961   7.7848510  46.7903513 109.2269701  12.7070304
  47.5318197 109.7654745  12.4305127  46.0840498 109.8535990  12.8641855
  52.2658853 111.3698841  11.3042465  52.6742209 110.9281252  10.5597097
  51.5436114 110.7951469  11.5576658  48.6189923 106.3071448   8.6776022
  49.4651118 106.7310862   8.8210671  48.5588560 105.6505072   9.3714585
  52.5887667 111.9300032   5.0594754  51.9596530 112.0945746   4.3570822
  52.2013329 112.3441642   5.8305718  51.7689368 103.9675817  10.3357196
  51.5250300 104.7217877   9.7991471  52.0449299 104.3461164  11.1704443
  53.7227831 110.5114429   9.0134461  53.9344726 111.1546189   8.3368842
  53.6757579 109.6776745   8.5456391  51.3254060 103.1232250   5.9171033
  50.4638539 103.4213503   6.2087771  51.3516494 103.3402648   4.9852066
  48.1415629 111.6674440   2.3244839  48.6053975 111.9462143   1.5349462
  47.8772427 110.7657885   2.1417930  45.0339710 111.2145922   5.2624602
  45.6041067 111.6433190   4.6242087  45.6247822 110.9328506   5.9608788
  47.0784515 107.7897592  -0.8665596  47.7808559 108.2418636  -0.3991669
  46.7465144 107.1481411  -0.2385703  45.5264877 106.3809349  13.5085614
  44.8963537 107.0625630  13.7421010  45.4200965 106.2692431  12.5638752
  40.8209849 106.0481145   4.4351538  40.0308903 106.3038674   3.9591648
  41.3121097 106.8629483   4.5403578  54.8373659 113.3886384   7.1856819
  55.6591102 112.9866572   6.9039500  54.8336062 113.2854618   8.1372934
  42.7724595 106.4125724   1.3935014  41.9755758 106.5244419   1.9118510
  42.5450187 106.7512377   0.5275905  48.6030262 112.9370428   9.3417529
  48.6674695 113.3990835  10.1775701  47.8941186 112.3067793   9.4699839
  39.1047552 106.3011636   6.8666529  39.3555591 107.1858646   7.1324104
  39.6407101 106.1216237   6.0941620  44.8045620 100.6830115  15.8710865
  44.4112565 100.1296314  16.5458509  45.6211760 100.9940693  16.2617382
  47.7213581 102.0987994  13.4631121  48.4623294 102.6995147  13.3835584
  47.9531503 101.3565632  12.9049164  42.8654919 107.2844361  11.7409351
  42.7508434 106.3829619  12.0416450  42.0099436 107.5308058  11.3894167
  49.9446756 115.2262102  13.3396851  49.5010610 114.4398480  13.0217756
  50.6063970 115.4141252  12.6740742  44.7033877 116.7557903   7.8657530
  45.2541303 116.6274967   7.0934524  43.8645353 117.0552792   7.5152423
  52.0427994 115.5064902  11.3678253  52.0246470 116.3273783  10.8758522
  52.9647914 115.3818977  11.5928394  48.5001048 113.0209031  12.2101761
  49.0329385 112.2597319  11.9801069  47.9715130 112.7282683  12.9525916
  51.6670743  98.1269097   7.7395403  51.3235013  99.0170739   7.6634513
  52.0349706  97.9370755   6.8764988  49.2168137 102.9627409   1.3053076
  48.3609734 102.5734259   1.1258715  49.6295089 103.0419370   0.4452862
  50.7467284 100.4973752   5.7044636  50.2432079 100.4603887   4.8912441
  51.0397891 101.4066495   5.7641293  46.9910170 100.5812482   4.7110818
  47.8563166 100.3855291   4.3516707  47.0587679 100.3522834   5.6380175
  51.4207329 105.9904800  -1.9272381  51.1157465 106.3050949  -1.0762238
  52.3737771 106.0686220  -1.8845048  54.8446607 110.3444044   4.8387619
  54.1870282 111.0343305   4.9267748  55.6487006 110.7340476   5.1821606
  44.5972489 102.8114690   2.0827185  45.1716241 102.5889871   1.3500378
  45.1843471 102.8803384   2.8355786  53.6552066 108.6988417   2.8891561
  54.1683948 109.3318409   3.3913271  54.3053290 108.0989612   2.5234921
  46.8995157  99.6855939   0.8102254  46.2459569  99.3704956   0.1858869
  46.8575631  99.0631679   1.5362077  50.1332897 106.1737872   5.1349902
  49.2155458 106.3952819   4.9771590  50.5493040 106.2484183   4.2761609
  50.9167945 107.5729288   0.2652582  51.6639764 108.0850685  -0.0440296
  51.1859534 107.2513341   1.1256976  53.3646782 104.6086404   2.2471371
  52.6269539 104.0963790   2.5781614  53.6173555 104.1686786   1.4354648
  53.4658409  97.3862656   2.8413141  53.7717286  96.5260020   2.5539056
  54.1911014  97.9780276   2.6412134  47.7379489 107.6816449   3.3489332
  47.7928099 106.7290286   3.2731808  46.9270691 107.8375888   3.8330630
  45.6771849 106.2993509   1.1079710  44.8639714 106.5987680   1.5144903
  46.1730843 105.9049198   1.8254193  47.8280427 116.2951266   3.0413975
  47.7856605 116.5212112   2.1122507  48.7443126 116.0614640   3.1899776
  51.2746060 106.7635333   9.9394604  51.6295448 106.9906807  10.7989070
  51.9218192 107.0953710   9.3171860  45.1685924 103.8711865   6.7240945
  45.8085303 103.7300624   6.0263909  44.3363454 103.5846378   6.3479547
  57.0313177 111.9530296   5.6555205  57.4649684 111.8605585   6.5038259
  57.7444758 111.9287797   5.0175221  45.9446227 113.1714295   2.8375938
  46.7386826 112.6764615   2.6358513  45.2337920 112.6432158   2.4743643
  50.7641072 115.5532390   7.1888305  50.8178094 116.1223327   7.9566021
  49.8955853 115.7234275   6.8242343  42.1714540 103.8412189   1.5013932
  42.4321357 104.7557523   1.3923093  42.9931712 103.3736632   1.6510545
  43.6439465 105.2549947   8.6712757  44.3162519 105.0467309   8.0225406
  42.8169252 105.0572033   8.2317989  57.8928727 111.9953997   8.1888090
  58.0864617 112.8999808   8.4347365  57.7929345 111.5361416   9.0226675
  49.5465037 101.8811888  10.6878418  48.8992952 102.5801837  10.5942894
  50.3166053 102.3148032  11.0554666  52.9543835 112.1460740  13.7628971
  52.8029342 111.9171291  12.8459055  52.9448515 113.1031341  13.7760316
  49.7229172 109.7192652   8.7475237  50.6521232 109.8703812   8.5744205
  49.3020202 109.8076673   7.8923884  48.5217503 113.7443317   6.5173775
  48.3828589 113.3762101   7.3899713  47.7332100 114.2590956   6.3457733
  50.0722719 113.1224920   3.9062613  49.7372551 113.0825690   4.8020263
  49.5726664 112.4569636   3.4333023  44.0466963 108.5292550   9.4315194
  43.9086760 107.7972788  10.0326733  44.9571886 108.4401450   9.1499382
  46.6749263 108.2412509   8.9198874  47.3848882 107.6005701   8.8785492
  46.6318571 108.4925404   9.8425054  54.6636042 115.1779862  11.8405453
  54.6048588 114.4939082  11.1736036  55.0655560 115.9198852  11.3886079
  45.3878197 105.2277727  10.7394513  44.8515554 104.7768465  11.3916109
  44.7994906 105.3623636   9.9964977  54.6653449 113.1419446  10.0719432
  53.7780228 112.8045368  10.1945831  55.2352000 112.4102477  10.3088198
  41.1217318 104.3633735   7.8247508  41.0375507 103.7559404   7.0897917
  40.3000025 104.8542753   7.8257004  48.1954603 117.8020899   7.0380676
  48.1224774 118.6075870   7.5499980  47.7531996 118.0012864   6.2128697
  51.2941032 102.8487298   3.1917703  51.7909732 102.0957260   2.8718773
  50.5228014 102.8851615   2.6260912  59.1470790 108.5527664   4.8335994
  59.1360666 109.4352379   4.4629927  58.2788169 108.1999214   4.6390531
  50.6553286 117.7007733   9.1938834  51.3681258 118.3355197   9.1214736
  50.1643315 117.7971599   8.3778836  52.3770813 111.6058985   0.7656126
  51.4427092 111.7260448   0.5960830  52.5547481 110.7031452   0.5016136
  47.8776001 104.9904681   2.9189387  47.5073789 104.4375721   3.6070293
  48.3735093 104.3862815   2.3664387  55.7643364 107.4476305   1.3006160
  56.2303817 108.2804296   1.2266463  56.2150865 106.9821286   2.0051419
  45.7065200 115.4502176  10.0144405  46.4074659 116.0838659  10.1673799
  45.2360315 115.7916908   9.2540044  53.7360027  99.8156892   5.3397061
  52.8223107 100.0461118   5.5079268  54.1653129  99.8995336   6.1911094
  53.5066486 108.0046784   7.8396955  52.8537936 108.2522691   7.1849408
  53.8846865 107.1910922   7.5059433  49.5554059 108.7466595  14.3262993
  48.8794696 108.6460724  14.9965368  50.3781692 108.5905808  14.7898990
  41.3032918 114.9838531   6.9475508  41.8886354 114.2382219   7.0803412
  41.1057756 115.2942488   7.8312172  48.2976841 120.0533522   8.5620609
  48.8495149 120.2165144   9.3269694  48.6383035 120.6437960   7.8900633
  43.2741335 102.4008672   9.1642493  43.3382661 103.2623503   8.7519891
  43.2108455 101.7882673   8.4314852  42.7493607 104.4731804  12.8115528
  43.3765646 104.0908882  13.4253052  41.8921526 104.2546006  13.1771220
  53.1487716 114.8794780  14.4169263  53.6927620 115.4924738  13.9224218
  52.5674561 115.4374358  14.9336276  51.4345229 118.0015498   5.5484291
  51.3096368 117.2005237   5.0395236  52.0924320 118.4961691   5.0598261
  43.0553397 104.3564230   4.7261431  42.3339983 104.9700198   4.5868904
  43.8446653 104.8921995   4.6478077  53.4980137 115.8024518   7.1763841
  52.5510473 115.6829869   7.1042168  53.8462910 114.9147016   7.2590102
  45.8579710 101.6918657  11.0002083  46.3814112 101.9380953  11.7628392
  45.6392044 102.5238691  10.5805220  50.5026570 115.5977234   3.3768193
  50.3551533 114.6693941   3.5575763  51.3280064 115.6197325   2.8925268
  44.3688815 104.2495301  -0.7651315  44.7084887 104.7781222  -1.4872706
  44.8160935 104.5875707   0.0107252  54.1060692 116.4205793   4.4633066
  55.0307240 116.2148654   4.3257517  53.9375996 116.1722194   5.3722407
  47.0632256 102.6332352   8.6851753  46.7229076 101.8340165   9.0872433
  46.3571262 102.9334063   8.1128586  47.7148727  99.7181664   7.1379076
  48.5374797  99.2442142   7.0157967  47.9586791 100.4972148   7.6377763
  46.3556962 102.7469923  -2.5658022  47.0765324 103.1251175  -3.0694305
  45.7322266 103.4658799  -2.4623044  50.4988085 103.4515072  -1.6299690
  50.7151699 104.3339709  -1.9310862  50.0182152 103.0601285  -2.3594048
  45.2387306 106.4100785   4.9471055  45.0931887 106.7241088   5.8395336
  44.7612510 107.0285685   4.3941954  47.0983689 103.4003333   4.9951944
  47.0845258 102.5044426   4.6584242  47.8156117 103.4073996   5.6290230
  48.9509820 103.8340673   7.0405072  48.6927598 104.7557744   7.0389402
  48.4194860 103.4371107   7.7305536  39.7132968 108.9506129   7.8858716
  39.1686436 109.7265937   8.0178990  40.5912318 109.2976934   7.7277837
  46.5020585 102.2817713   0.2639515  46.6236496 101.3534359   0.4630402
  46.2122627 102.2956399  -0.6482170  49.3711775  99.9672623   3.4006234
  49.3933472 100.0311957   2.4458214  49.7879834  99.1277132   3.5946741
  40.4998990 108.0776025  10.7788873  39.7580726 108.2258661  11.3653503
  40.1791734 108.3384291   9.9155622  48.4442653 117.6192004  10.5769263
  48.7529779 117.3741150  11.4491963  49.2418135 117.8238642  10.0888133
  45.9137137 115.3167922   4.8796941  45.2917146 114.6538627   4.5799169
  46.5842004 115.3429054   4.1970589  45.9861664 103.7949710  14.4729447
  46.0349820 104.6711833  14.0907217  46.5284179 103.2527103  13.9001090
  56.4716510 114.3390834  13.7530584  55.6812054 114.3214972  13.2135084
  56.2349865 114.8779127  14.5079621  56.5914385 111.1883300  11.0663313
  56.6412390 111.0233307  12.0078836  56.4828309 110.3210559  10.6761194
  53.8818148 107.1714228  12.3822619  54.7828010 107.0320693  12.0906617
  53.9566122 107.3368683  13.3220797  48.2160953 104.5481083  11.2275806
  47.3464262 104.8414649  10.9558394  48.4520433 105.1321528  11.9483069
  58.0932582 113.6080242  11.3105334  57.8017390 113.9710222  12.1468795
  57.4804713 112.8947250  11.1318666  59.2928264 111.1733121   3.8307905
  60.1275156 111.6122925   3.9945465  59.4287393 110.6971775   3.0116150
  56.3419770 108.7312856   9.7785392  56.8173892 108.9240502   8.9704244
  55.4185336 108.7872042   9.5328776  50.9199987 100.7660700   8.7441226
  51.4381931 101.5021727   8.4187715  50.5655120 101.0724693   9.5787985
  51.1712581  97.1860982   4.2642123  51.4514335  96.5184171   4.8902549
  51.9563188  97.3790078   3.7516787  55.0421439 105.6078616   8.0113698
  55.9938862 105.7076714   8.0325922  54.8724890 104.8156885   8.5211782
  53.0635819 102.6934199   8.1973099  52.4685751 102.9739212   7.5019587
  52.7785515 103.1828100   8.9689840  57.5209517 108.8284736   7.1255998
  57.4885837 107.8900737   7.3115681  58.1310141 108.9068773   6.3921822
  57.6704006 105.6195779   7.1714281  57.1543054 104.8354236   6.9844210
  58.5543954 105.2914496   7.3360800  55.3314732  99.3636795   3.1310093
  55.1339554  99.0551883   4.0153425  55.9414438 100.0898434   3.2608023
  63.3386067 109.8900743   6.2662034  64.0689455 109.6286031   6.8269738
  62.7293012 109.1529465   6.3064102  61.4201364 108.0308605   6.8636486
  60.6934528 107.8964570   6.2552977  61.0048651 108.3385434   7.6693204
  49.2431540 111.7498535  14.6283859  50.1634550 111.9277134  14.8223905
  49.2081123 110.8054580  14.4763558  38.4613705 106.9437129   3.5537133
  38.1416490 106.0902437   3.2611507  37.9147134 107.1585707   4.3095101
  42.2393613 109.6599570   7.2706640  42.4579623 110.5916677   7.2894674
  42.6519387 109.3007544   8.0561444  49.1597831 100.1667655  -0.7417672
  48.3498559  99.8214740  -0.3662426  49.8482248  99.8575199  -0.1530060
  51.0888379  99.2445702   0.8806625  51.6419418  99.6641155   1.5396648
  51.3258465  98.3181450   0.9229581  47.1121478 105.2332775  16.6609389
  47.0118205 106.1827132  16.5921480  46.8943020 104.9051014  15.7885459
  54.4667186 101.3546227   0.3885289  53.8865855 102.0131031   0.0063341
  54.2003119 100.5323572  -0.0227293  52.9170753 100.7551285   2.5906609
  53.4170531 100.8667819   1.7820928  53.5606360 100.4512338   3.2307418
  46.9752748 108.6629914  15.4774450  46.4919830 109.4630274  15.6838339
  47.0613687 108.6737859  14.5241894  42.9026086 112.5534449   7.5142884
  43.8569339 112.5218391   7.4472816  42.7038609 112.0925073   8.3293110
  43.4925468 111.1235565  10.0813682  44.3118357 111.6179644  10.1048519
  43.7662276 110.2067533  10.0531249  53.2492064 103.5146317  -0.5558363
  52.3617919 103.7995968  -0.7738168  53.6646053 103.3540081  -1.4031086
  56.6006600 103.5392838   3.1595977  57.3766990 104.0289291   3.4320593
  55.8754734 103.9650893   3.6167846  59.0379159 104.2520458   4.2169917
  59.6323650 104.0116193   3.5063225  59.1105743 103.5327588   4.8443453
  57.0337894 104.8190585   0.4842047  56.7774828 104.4187221   1.3150255
  56.4090762 105.5334379   0.3592186  61.3450232 107.5586658   2.9913338
  60.7849790 107.6279848   3.7644900  60.7393735 107.3827643   2.2712835
  38.7460382 105.4573699  10.7805879  39.3919246 104.9472653  11.2693104
  38.5377533 106.1942381  11.3549304  51.2713774 112.5254546  16.2798019
  52.1404934 112.6995199  15.9184654  50.7920526 113.3448963  16.1573749
  47.2663993  99.7213744  -3.4670225  47.2542663 100.6655583  -3.3101954
  48.1587415  99.5383889  -3.7610764  45.4399955 119.6451647   7.9587453
  46.3427201 119.6775258   8.2753948  45.2137325 118.7152098   7.9733789
  47.1953557 118.3982634   4.6197532  46.2449188 118.3984496   4.5061904
  47.4986043 117.6515369   4.1033566  51.0816112  96.3156520   0.7875712
  50.3148508  95.7615007   0.9332394  51.4926817  96.3878389   1.6489863
  43.0857873 102.6041316  14.8780893  43.9489335 102.2478121  15.0884218
  42.5123284 102.2655211  15.5656297  59.3750895 121.7476165  13.1452337
  58.5984229 122.3070085  13.1355201  60.0141458 122.2332948  13.6667207
  57.6297268 124.5561619  12.7070304  58.3711952 125.0946663  12.4305127
  56.9234253 125.1827907  12.8641855  62.6083123 119.2967734  10.3357196
  62.3644054 120.0509795   9.7991471  62.8843053 119.6753082  11.1704443
  56.3658631 121.7101267  13.5085614  55.7357292 122.3917548  13.7421010
  56.2594719 121.5984348  12.5638752  49.9441307 121.6303553   6.8666529
  50.1949345 122.5150563   7.1324104  50.4800855 121.4508155   6.0941620
  55.6439374 116.0122033  15.8710865  55.2506320 115.4588231  16.5458509
  56.4605514 116.3232611  16.2617382  58.5607335 117.4279912  13.4631121
  59.3017048 118.0287065  13.3835584  58.7925258 116.6857550  12.9049164
  53.7048673 122.6136279  11.7409351  53.5902188 121.7121536  12.0416450
  52.8493191 122.8599976  11.3894167  62.5064498 113.4561015   7.7395403
  62.1628767 114.3462656   7.6634513  62.8743461 113.2662672   6.8764988
  54.4833220 120.5841864   8.6712757  55.1556273 120.3759226   8.0225406
  53.6563006 120.3863950   8.2317989  60.3858792 117.2103805  10.6878418
  59.7386707 117.9093755  10.5942894  61.1559807 117.6439949  11.0554666
  54.8860717 123.8584467   9.4315194  54.7480515 123.1264706  10.0326733
  55.7965640 123.7693367   9.1499382  56.2271952 120.5569645  10.7394513
  55.6909309 120.1060383  11.3916109  55.6388660 120.6915553   9.9964977
  51.9611073 119.6925652   7.8247508  51.8769262 119.0851322   7.0897917
  51.1393779 120.1834671   7.8257004  60.3947813 124.0758512  14.3262993
  59.7188450 123.9752642  14.9965368  61.2175447 123.9197726  14.7898990
  54.1135089 117.7300590   9.1642493  54.1776416 118.5915420   8.7519891
  54.0502209 117.1174591   8.4314852  53.5887362 119.8023722  12.8115528
  54.2159401 119.4200799  13.4253052  52.7315281 119.5837924  13.1771220
  56.6973465 117.0210574  11.0002083  57.2207867 117.2672871  11.7628392
  56.4785798 117.8530609  10.5805220  57.9026010 117.9624269   8.6851753
  57.5622830 117.1632082   9.0872433  57.1965016 118.2625980   8.1128586
  58.5542482 115.0473582   7.1379076  59.3768551 114.5734060   7.0157967
  58.7980545 115.8264066   7.6377763  50.5526723 124.2798047   7.8858716
  50.0080191 125.0557855   8.0178990  51.4306073 124.6268851   7.7277837
  51.3392745 123.4067943  10.7788873  50.5974481 123.5550578  11.3653503
  51.0185489 123.6676209   9.9155622  56.8255419 119.1241628  14.4729447
  56.8743574 120.0003751  14.0907217  57.3677933 118.5819021  13.9001090
  59.0554707 119.8773000  11.2275806  58.1858017 120.1706567  10.9558394
  59.2914188 120.4613445  11.9483069  61.7593741 116.0952617   8.7441226
  62.2775685 116.8313644   8.4187715  61.4048874 116.4016611   9.5787985
  60.0825295 127.0790453  14.6283859  61.0028304 127.2569052  14.8223905
  60.0474878 126.1346498  14.4763558  57.9515233 120.5624693  16.6609389
  57.8511960 121.5119050  16.5921480  57.7336775 120.2342932  15.7885459
  57.8146503 123.9921832  15.4774450  57.3313585 124.7922192  15.6838339
  57.9007442 124.0029777  14.5241894  49.5854137 120.7865617  10.7805879
  50.2313000 120.2764571  11.2693104  49.3771288 121.5234298  11.3549304
  62.1107529 127.8546464  16.2798019  62.9798689 128.0287116  15.9184654
  61.6314280 128.6740881  16.1573749  53.9251628 117.9333234  14.8780893
  54.7883089 117.5770038  15.0884218  53.3517038 117.5947128  15.5656297
  38.5428232  71.6883739  -1.6963669  38.5316872  71.2936538  -2.5683165
  38.7048871  70.9549812  -1.1029898  35.2635493  74.4720851  -2.7484485
  34.9725359  75.3766482  -2.8637819  35.8992477  74.5137379  -2.0340416
  37.6963387  68.0954452  -0.1302357  36.9196722  68.6548373  -0.1399492
  38.3353951  68.5811235   0.3912513  35.9509760  70.9039906  -0.5684390
  36.6924444  71.4424950  -0.8449566  35.2446745  71.5306195  -0.4112838
  41.4265099  73.0469046  -1.9712228  41.8348455  72.6051457  -2.7157596
  40.7042361  72.4721674  -1.7178035  43.9979906  75.0656589  -6.0897875
  44.8197349  74.6636777  -6.3715193  43.9942308  74.9624823  -5.1381759
  39.1053003  76.9032307   0.0642158  38.6616857  76.1168685  -0.2536937
  39.7670217  77.0911457  -0.6013951  41.2034241  77.1835106  -1.9076441
  41.1852716  78.0043988  -2.3996171  42.1254161  77.0589182  -1.6826299
  37.6607295  74.6979236  -1.0652932  38.1935632  73.9367524  -1.2953624
  37.1321376  74.4052888  -0.3228778  47.0534973  73.6724202  -5.0866603
  47.2470863  74.5770012  -4.8407328  46.9535591  73.2131621  -4.2528018
  42.1150082  73.8230945   0.4874278  41.9635588  73.5941496  -0.4295639
  42.1054761  74.7801546   0.5005623  43.8242289  76.8550067  -1.4349241
  43.7654835  76.1709287  -2.1018658  44.2261807  77.5969057  -1.8868615
  43.8259696  74.8189651  -3.2035261  42.9386475  74.4815573  -3.0808862
  44.3958247  74.0872682  -2.9666496  39.8159533  79.3777938  -4.0815859
  40.5287505  80.0125402  -4.1539958  39.3249561  79.4741804  -4.8975857
  34.8671446  77.1272381  -3.2610288  35.5680906  77.7608864  -3.1080894
  34.3966561  77.4687113  -4.0214649  38.7160305  70.4236800   1.0508299
  38.0400942  70.3230929   1.7210674  39.5387939  70.2676013   1.5144296
  37.4583088  81.7303727  -4.7134085  38.0101396  81.8935348  -3.9485000
  37.7989282  82.3208165  -5.3854060  42.3093963  76.5564984   1.1414570
  42.8533867  77.1694943   0.6469524  41.7280807  77.1144563   1.6581583
  42.6586384  77.4794723  -6.0990853  41.7116719  77.3600074  -6.1712526
  43.0069157  76.5917221  -6.0164591  37.6048900  79.2962209  -2.6985430
  37.9136026  79.0511355  -1.8262731  38.4024382  79.5008847  -3.1866560
  45.6322757  76.0161039   0.4775891  44.8418301  75.9985177  -0.0619610
  45.3956111  76.5549332   1.2324927  45.7520632  72.8653505  -2.2091381
  45.8018637  72.7003512  -1.2675858  45.6434555  71.9980764  -2.5993500
  43.0424394  68.8484433  -0.8932074  43.9434257  68.7090898  -1.1848076
  43.1172369  69.0138888   0.0466104  47.2538829  75.2850446  -1.9649359
  46.9623637  75.6480427  -1.1285898  46.6410960  74.5717455  -2.1436027
  45.5026017  70.4083061  -3.4969301  45.9780139  70.6010707  -4.3050450
  44.5791582  70.4642247  -3.7425917  52.4992314  71.5670948  -7.0092659
  53.2295702  71.3056236  -6.4484956  51.8899259  70.8299670  -6.9690591
  38.4037787  73.4268740   1.3529165  39.3240797  73.6047339   1.5469212
  38.3687370  72.4824785   1.2008864  36.2727725  66.9102980   3.3854695
  36.1724452  67.8597337   3.3166786  36.0549267  66.5821219   2.5130765
  36.1358995  70.3400119   2.2019757  35.6526077  71.1400479   2.4083646
  36.2219934  70.3508064   1.2487201  40.4320021  74.2024751   3.0043326
  41.3011181  74.3765404   2.6429961  39.9526773  75.0219168   2.8819055
  34.6006201  81.3221852  -5.3167240  35.5033448  81.3545463  -5.0000745
  34.3743571  80.3922303  -5.3020905  52.0912497  85.9113377  -7.5911399
  52.7290907  85.7920125  -8.2948059  51.9733340  86.8594221  -7.5323447
  48.9002203  85.8640805  -7.6549875  48.5620715  85.7481870  -8.5429340
  49.7691971  85.4631970  -7.6748868  44.7589019  87.7176282 -11.6652984
  44.1953884  87.6266219 -12.4336696  44.6441414  86.8976186 -11.1850491
  49.3821986  87.0175657  -1.6963669  49.3710627  86.6228455  -2.5683165
  49.5442626  86.2841730  -1.1029898  42.3053451  89.2127473  -8.8268763
  43.0974743  88.8718298  -9.2422464  42.5450101  89.3222448  -7.9066610
  46.1029247  89.8012769  -2.7484485  45.8119113  90.7058400  -2.8637819
  46.7386232  89.8429296  -2.0340416  47.0285454  87.1789617  -6.1583125
  47.6249026  86.9545640  -6.8726163  47.0860426  86.4374363  -5.5557678
  51.6453765  83.6364831 -10.5158191  52.4316855  83.2184254 -10.8667774
  51.9092470  84.5410923 -10.3476543  57.0462193  83.5740064  -9.6125213
  57.7787364  83.0039281  -9.3787383  56.2901548  83.1861665  -9.1718707
  48.6638312  85.9967306 -12.4161870  48.2996519  85.4697927 -11.7048949
  49.5205428  85.6065775 -12.5895385  54.5687613  77.2861638  -5.1530604
  54.2370938  78.1557049  -5.3769389  53.9733226  76.9697922  -4.4736574
  51.0619132  89.4874184  -5.7534691  50.7619856  90.3899223  -5.8618884
  50.7170192  89.2206368  -4.9013539  44.5131614  85.9387981  -9.7197987
  43.5882110  85.8064195  -9.5120295  44.7616027  86.7182200  -9.2228045
  54.4616276  82.0056725  -8.0737254  53.5533154  81.9372133  -8.3678493
  54.4103872  82.4828670  -7.2455429  41.8740425  85.5821255  -8.8854198
  42.0032806  85.8355734  -7.9714786  41.1937876  86.1748963  -9.2049543
  48.5357142  83.4246370  -0.1302357  47.7590476  83.9840290  -0.1399492
  49.1747705  83.9103153   0.3912513  56.3277923  80.2073163  -6.2959380
  55.6852303  80.5005696  -6.9419586  55.8232851  80.0926083  -5.4906183
  46.7903514  86.2331824  -0.5684390  47.5318199  86.7716867  -0.8449566
  46.0840500  86.8598112  -0.4112838  52.2658854  88.3760964  -1.9712228
  52.6742210  87.9343375  -2.7157596  51.5436115  87.8013592  -1.7178035
  48.6189924  83.3133571  -4.5978671  49.4651119  83.7372984  -4.4544022
  48.5588562  82.6567195  -3.9040108  52.5887669  88.9362155  -8.2159939
  51.9596531  89.1007869  -8.9183872  52.2013331  89.3503764  -7.4448975
  51.7689369  80.9737939  -2.9397498  51.5250301  81.7280000  -3.4763222
  52.0449300  81.3523287  -2.1050251  53.7227832  87.5176551  -4.2620232
  53.9344727  88.1608311  -4.9385851  53.6757580  86.6838868  -4.7298302
  51.3254061  80.1294372  -7.3583660  50.4638540  80.4275626  -7.0666922
  51.3516496  80.3464771  -8.2902627  48.1415630  88.6736563 -10.9509854
  48.6053976  88.9524266 -11.7405232  47.8772429  87.7720007 -11.1336764
  45.0339712  88.2208044  -8.0130091  45.6041069  88.6495313  -8.6512607
  45.6247823  87.9390629  -7.3145905  45.5264878  83.3871472   0.2330920
  44.8963539  84.0687753   0.4666317  45.4200966  83.2754553  -0.7115942
  40.8209850  83.0543268  -8.8403156  40.0308904  83.3100796  -9.3163045
  41.3121098  83.8691606  -8.7351115  54.8373660  90.3948507  -6.0897875
  55.6591104  89.9928694  -6.3715193  54.8336063  90.2916741  -5.1381759
  48.6030263  89.9432550  -3.9337164  48.6674696  90.4052957  -3.0978992
  47.8941187  89.3129915  -3.8054854  39.1047553  83.3073758  -6.4088165
  39.3555592  84.1920768  -6.1430589  39.6407102  83.1278360  -7.1813073
  44.8045621  77.6892238   2.5956171  44.4112566  77.1358436   3.2703815
  45.6211761  78.0002816   2.9862689  47.7213582  79.1050117   0.1876428
  48.4623295  79.7057270   0.1080890  47.9531505  78.3627754  -0.3705530
  42.8654920  84.2906484  -1.5345343  42.7508435  83.3891741  -1.2338244
  42.0099438  84.5370181  -1.8860526  49.9446758  92.2324224   0.0642158
  49.5010612  91.4460603  -0.2536937  50.6063971  92.4203375  -0.6013951
  44.7033879  93.7620026  -5.4097163  45.2541304  93.6337089  -6.1820169
  43.8645355  94.0614915  -5.7602271  52.0427996  92.5127024  -1.9076441
  52.0246471  93.3335905  -2.3996171  52.9647916  92.3881099  -1.6826299
  48.5001050  90.0271154  -1.0652932  49.0329387  89.2659442  -1.2953624
  47.9715131  89.7344805  -0.3228778  51.6670745  75.1331220  -5.5359291
  51.3235014  76.0232861  -5.6120180  52.0349707  74.9432877  -6.3989706
  50.7467285  77.5035875  -7.5710057  50.2432081  77.4666010  -8.3842252
  51.0397892  78.4128617  -7.5113401  46.9910171  77.5874604  -8.5643876
  47.8563168  77.3917413  -8.9237986  47.0587680  77.3584956  -7.6374519
  54.8446608  87.3506167  -8.4367074  54.1870283  88.0405428  -8.3486945
  55.6487008  87.7402599  -8.0933088  53.6552067  85.7050539 -10.3863132
  54.1683949  86.3380531  -9.8841422  54.3053291  85.1051735 -10.7519772
  50.1332898  83.1799995  -8.1404792  49.2155459  83.4014942  -8.2983104
  50.5493042  83.2546305  -8.9993084  50.9167946  84.5791411 -13.0102111
  51.6639765  85.0912808 -13.3194989  51.1859535  84.2575463 -12.1497718
  53.3646783  81.6148527 -11.0283322  52.6269540  81.1025913 -10.6973080
  53.6173557  81.1748908 -11.8400045  47.7379490  84.6878572  -9.9265362
  47.7928100  83.7352408 -10.0022885  46.9270692  84.8438011  -9.4424063
  45.6771850  83.3055632 -12.1674983  44.8639716  83.6049802 -11.7609791
  46.1730844  82.9111320 -11.4500501  47.8280428  93.3013389 -10.2340718
  47.7856607  93.5274235 -11.1632186  48.7443127  93.0676763 -10.0854917
  51.2746062  83.7697456  -3.3360089  51.6295449  83.9968929  -2.4765623
  51.9218193  84.1015833  -3.9582834  45.1685925  80.8773987  -6.5513748
  45.8085304  80.7362746  -7.2490785  44.3363455  80.5908500  -6.9275146
  57.0313178  88.9592419  -7.6199488  57.4649685  88.8667708  -6.7716434
  57.7444759  88.9349919  -8.2579472  45.9446229  90.1776418 -10.4378755
  46.7386827  89.6826738 -10.6396181  45.2337921  89.6494281 -10.8011050
  50.7641073  92.5594513  -6.0866388  50.8178095  93.1285449  -5.3188672
  49.8955855  92.7296398  -6.4512351  43.6439467  82.2612069  -4.6041937
  44.3162520  82.0529431  -5.2529288  42.8169253  82.0634155  -5.0436704
  57.8928728  89.0016120  -5.0866603  58.0864618  89.9061930  -4.8407328
  57.7929346  88.5423539  -4.2528018  49.5465039  78.8874010  -2.5876276
  48.8992954  79.5863960  -2.6811799  50.3166054  79.3210154  -2.2200028
  52.9543836  89.1522862   0.4874278  52.8029343  88.9233414  -0.4295639
  52.9448516  90.1093464   0.5005623  49.7229173  86.7254775  -4.5279456
  50.6521233  86.8765935  -4.7010489  49.3020203  86.8138796  -5.3830810
  48.5217505  90.7505440  -6.7580918  48.3828590  90.3824224  -5.8854980
  47.7332101  91.2653079  -6.9296961  50.0722720  90.1287042  -9.3692081
  49.7372552  90.0887812  -8.4734431  49.5726665  89.4631758  -9.8421670
  44.0466964  85.5354672  -3.8439499  43.9086762  84.8034911  -3.2427960
  44.9571887  85.4463572  -4.1255312  46.6749264  85.2474632  -4.3555820
  47.3848883  84.6067824  -4.3969201  46.6318573  85.4987526  -3.4329639
  54.6636043  92.1841985  -1.4349241  54.6048589  91.5001205  -2.1018658
  55.0655562  92.9260975  -1.8868615  45.3878198  82.2339849  -2.5360180
  44.8515555  81.7830588  -1.8838584  44.7994907  82.3685758  -3.2789716
  54.6653450  90.1481569  -3.2035261  53.7780229  89.8107491  -3.0808862
  55.2352001  89.4164600  -2.9666496  41.1217320  81.3695857  -5.4507186
  41.0375508  80.7621527  -6.1856776  40.3000026  81.8604875  -5.4497689
  48.1954604  94.8083021  -6.2374018  48.1224775  95.6137993  -5.7254713
  47.7531997  95.0074987  -7.0625996  51.2941034  79.8549421 -10.0836991
  51.7909733  79.1019383 -10.4035921  50.5228015  79.8913737 -10.6493781
  59.1470791  85.5589786  -8.4418699  59.1360667  86.4414502  -8.8124766
  58.2788170  85.2061337  -8.6364162  50.6553287  94.7069855  -4.0815859
  51.3681260  95.3417320  -4.1539958  50.1643316  94.8033721  -4.8975857
  52.3770814  88.6121108 -12.5098567  51.4427093  88.7322570 -12.6793863
  52.5547483  87.7093575 -12.7738558  47.8776002  81.9966804 -10.3565306
  47.5073790  81.4437844  -9.6684401  48.3735095  81.3924937 -10.9090306
  55.7643366  84.4538427 -11.9748533  56.2303818  85.2866419 -12.0488231
  56.2150866  83.9883409 -11.2703275  45.7065201  92.4564299  -3.2610288
  46.4074660  93.0900782  -3.1080894  45.2360316  92.7979030  -4.0214649
  53.7360028  76.8219014  -7.9357632  52.8223108  77.0523241  -7.7675425
  54.1653130  76.9057458  -7.0843600  53.5066487  85.0108906  -5.4357738
  52.8537937  85.2584814  -6.0905285  53.8846867  84.1973044  -5.7695261
  49.5554060  85.7528717   1.0508299  48.8794697  85.6522847   1.7210674
  50.3781694  85.5967931   1.5144296  41.3032919  91.9900654  -6.3279186
  41.8886356  91.2444342  -6.1951281  41.1057757  92.3004610  -5.4442522
  48.2976843  97.0595645  -4.7134085  48.8495151  97.2227266  -3.9485000
  48.6383036  97.6500082  -5.3854060  43.2741336  79.4070794  -4.1112200
  43.3382662  80.2685625  -4.5234802  43.2108456  78.7944796  -4.8439842
  42.7493608  81.4793927  -0.4639166  43.3765647  81.0971004   0.1498358
  41.8921527  81.2608129  -0.0983473  53.1487717  91.8856902   1.1414570
  53.6927621  92.4986860   0.6469524  52.5674562  92.4436481   1.6581583
  51.4345230  95.0077620  -7.7270403  51.3096369  94.2067360  -8.2359457
  52.0924321  95.5023814  -8.2156433  43.0553398  81.3626353  -8.5493262
  42.3339984  81.9762320  -8.6885789  43.8446654  81.8984117  -8.6276616
  53.4980138  92.8086640  -6.0990853  52.5510474  92.6891991  -6.1712526
  53.8462911  91.9209138  -6.0164591  45.8579712  78.6980779  -2.2752611
  46.3814114  78.9443076  -1.5126301  45.6392045  79.5300814  -2.6949473
  50.5026572  92.6039356  -9.8986500  50.3551534  91.6756064  -9.7178930
  51.3280065  92.6259447 -10.3829425  54.1060694  93.4267915  -8.8121628
  55.0307241  93.2210777  -8.9497176  53.9375997  93.1784316  -7.9032286
  47.0632257  79.6394474  -4.5902940  46.7229077  78.8402287  -4.1882260
  46.3571263  79.9396185  -5.1626107  47.7148729  76.7243787  -6.1375617
  48.5374798  76.2504265  -6.2596727  47.9586792  77.5034270  -5.6376931
  45.2387307  83.4162907  -8.3283639  45.0931888  83.7303210  -7.4359357
  44.7612511  84.0347808  -8.8812740  47.0983690  80.4065455  -8.2802749
  47.0845259  79.5106549  -8.6170451  47.8156118  80.4136119  -7.6464463
  48.9509821  80.8402796  -6.2349622  48.6927599  81.7619866  -6.2365291
  48.4194861  80.4433230  -5.5449157  39.7132970  85.9568252  -5.3895977
  39.1686438  86.7328060  -5.2575703  40.5912319  86.3039056  -5.5476856
  40.4998991  85.0838148  -2.4965820  39.7580727  85.2320783  -1.9101190
  40.1791736  85.3446414  -3.3599071  48.4442654  94.6254126  -2.6985430
  48.7529780  94.3803273  -1.8262731  49.2418136  94.8300765  -3.1866560
  45.9137138  92.3230045  -8.3957752  45.2917148  91.6600750  -8.6955524
  46.5842005  92.3491177  -9.0784104  45.9861666  80.8011833   1.1974754
  46.0349821  81.6773956   0.8152523  46.5284180  80.2589226   0.6246397
  56.4716511  91.3452956   0.4775891  55.6812055  91.3277095  -0.0619610
  56.2349866  91.8841250   1.2324927  56.5914386  88.1945423  -2.2091381
  56.6412391  88.0295430  -1.2675858  56.4828310  87.3272682  -2.5993500
  53.8818149  84.1776351  -0.8932074  54.7828012  84.0382815  -1.1848076
  53.9566123  84.3430805   0.0466104  48.2160954  81.5543205  -2.0478888
  47.3464264  81.8476771  -2.3196299  48.4520435  82.1383650  -1.3271624
  58.0932583  90.6142364  -1.9649359  57.8017392  90.9772345  -1.1285898
  57.4804715  89.9009372  -2.1436027  59.2928266  88.1795244  -9.4446789
  60.1275157  88.6185048  -9.2809228  59.4287394  87.7033897 -10.2638543
  56.3419772  85.7374979  -3.4969301  56.8173893  85.9302625  -4.3050450
  55.4185337  85.7934165  -3.7425917  50.9199988  77.7722822  -4.5313467
  51.4381932  78.5083849  -4.8566979  50.5655121  78.0786816  -3.6966708
  51.1712582  74.1923105  -9.0112571  51.4514336  73.5246294  -8.3852144
  51.9563189  74.3852200  -9.5237907  55.0421441  82.6140739  -5.2640995
  55.9938863  82.7138836  -5.2428771  54.8724891  81.8219007  -4.7542911
  53.0635820  79.6996322  -5.0781595  52.4685752  79.9801335  -5.7735106
  52.7785517  80.1890223  -4.3064853  57.5209518  85.8346859  -6.1498696
  57.4885838  84.8962859  -5.9639012  58.1310142  85.9130895  -6.8832871
  57.6704007  82.6257902  -6.1040413  57.1543055  81.8416359  -6.2910484
  58.5543955  82.2976619  -5.9393893  55.3314734  76.3698918 -10.1444600
  55.1339555  76.0614006  -9.2601268  55.9414439  77.0960556 -10.0146670
  63.3386068  86.8962865  -7.0092659  64.0689457  86.6348153  -6.4484956
  62.7293014  86.1591587  -6.9690591  61.4201365  85.0370728  -6.4118208
  60.6934529  84.9026693  -7.0201716  61.0048652  85.3447557  -5.6061490
  49.2431542  88.7560658   1.3529165  50.1634551  88.9339257   1.5469212
  49.2081125  87.8116703   1.2008864  42.2393614  86.6661692  -6.0048054
  42.4579624  87.5978800  -5.9860020  42.6519388  86.3069667  -5.2193250
  47.1121480  82.2394898   3.3854695  47.0118206  83.1889255   3.3166786
  46.8943022  81.9113137   2.5130765  52.9170754  77.7613407 -10.6848084
  53.4170532  77.8729942 -11.4933765  53.5606362  77.4574460 -10.0447276
  46.9752750  85.6692037   2.2019757  46.4919831  86.4692397   2.4083646
  47.0613689  85.6799982   1.2487201  42.9026087  89.5596572  -5.7611809
  43.8569341  89.5280514  -5.8281878  42.7038611  89.0987195  -4.9461583
  43.4925469  88.1297688  -3.1941012  44.3118358  88.6241766  -3.1706174
  43.7662277  87.2129656  -3.2223444  56.6006602  80.5454961 -10.1158717
  57.3766992  81.0351413  -9.8434100  55.8754736  80.9713015  -9.6586847
  59.0379160  81.2582580  -9.0584776  59.6323651  81.0178316  -9.7691468
  59.1105744  80.5389711  -8.4311240  57.0337895  81.8252708 -12.7912646
  56.7774829  81.4249343 -11.9604439  56.4090763  82.5396502 -12.9162507
  61.3450233  84.5648781 -10.2841355  60.7849791  84.6341970  -9.5109793
  60.7393736  84.3889766 -11.0041859  38.7460383  82.4635821  -2.4948815
  39.3919247  81.9534775  -2.0061589  38.5377535  83.2004503  -1.9205389
  51.2713776  89.5316669   3.0043326  52.1404935  89.7057321   2.6429961
  50.7920527  90.3511086   2.8819055  45.4399956  96.6513770  -5.3167240
  46.3427203  96.6837380  -5.0000745  45.2137326  95.7214221  -5.3020905
  47.1953558  95.4044757  -8.6557162  46.2449189  95.4046618  -8.7692789
  47.4986044  94.6577491  -9.1721127  43.0857874  79.6103439   1.6026200
  43.9489336  79.2540243   1.8129524  42.5123285  79.2717333   2.2901604
  59.3750896  98.7538288  -0.1302357  58.5984231  99.3132208  -0.1399492
  60.0141460  99.2395071   0.3912513  57.6297269 101.5623741  -0.5684390
  58.3711953 102.1008785  -0.8449566  56.9234254 102.1890030  -0.4112838
  62.6083124  96.3029857  -2.9397498  62.3644056  97.0571917  -3.4763222
  62.8843054  96.6815204  -2.1050251  56.3658633  98.7163389   0.2330920
  55.7357293  99.3979670   0.4666317  56.2594720  98.6046471  -0.7115942
  49.9441308  98.6365676  -6.4088165  50.1949346  99.5212686  -6.1430589
  50.4800856  98.4570277  -7.1813073  55.6439375  93.0184155   2.5956171
  55.2506321  92.4650354   3.2703815  56.4605516  93.3294734   2.9862689
  58.5607336  94.4342034   0.1876428  59.3017050  95.0349187   0.1080890
  58.7925259  93.6919672  -0.3705530  53.7048674  99.6198402  -1.5345343
  53.5902189  98.7183659  -1.2338244  52.8493192  99.8662098  -1.8860526
  62.5064499  90.4623137  -5.5359291  62.1628769  91.3524779  -5.6120180
  62.8743462  90.2724795  -6.3989706  54.4833221  97.5903987  -4.6041937
  55.1556274  97.3821349  -5.2529288  53.6563008  97.3926073  -5.0436704
  60.3858793  94.2165928  -2.5876276  59.7386708  94.9155878  -2.6811799
  61.1559808  94.6502072  -2.2200028  54.8860718 100.8646590  -3.8439499
  54.7480516 100.1326829  -3.2427960  55.7965642 100.7755490  -4.1255312
  56.2271953  97.5631767  -2.5360180  55.6909310  97.1122506  -1.8838584
  55.6388661  97.6977676  -3.2789716  51.9611074  96.6987775  -5.4507186
  51.8769263  96.0913444  -6.1856776  51.1393781  97.1896793  -5.4497689
  60.3947814 101.0820635   1.0508299  59.7188451 100.9814764   1.7210674
  61.2175448 100.9259849   1.5144296  54.1135090  94.7362712  -4.1112200
  54.1776417  95.5977543  -4.5234802  54.0502211  94.1236714  -4.8439842
  53.5887363  96.8085845  -0.4639166  54.2159402  96.4262922   0.1498358
  52.7315282  96.5900047  -0.0983473  56.6973466  94.0272697  -2.2752611
  57.2207868  94.2734993  -1.5126301  56.4785800  94.8592732  -2.6949473
  57.9026011  94.9686392  -4.5902940  57.5622832  94.1694205  -4.1882260
  57.1965018  95.2688103  -5.1626107  58.5542483  92.0535704  -6.1375617
  59.3768552  91.5796183  -6.2596727  58.7980547  92.8326188  -5.6376931
  50.5526724 101.2860169  -5.3895977  50.0080192 102.0619977  -5.2575703
  51.4306074 101.6330974  -5.5476856  51.3392746 100.4130066  -2.4965820
  50.5974482 100.5612701  -1.9101190  51.0185490 100.6738331  -3.3599071
  56.8255420  96.1303751   1.1974754  56.8743576  97.0065873   0.8152523
  57.3677934  95.5881144   0.6246397  59.0554709  96.8835123  -2.0478888
  58.1858018  97.1768689  -2.3196299  59.2914189  97.4675568  -1.3271624
  61.7593742  93.1014740  -4.5313467  62.2775686  93.8375767  -4.8566979
  61.4048875  93.4078733  -3.6966708  60.0825296 104.0852575   1.3529165
  61.0028306 104.2631174   1.5469212  60.0474879 103.1408621   1.2008864
  57.9515234  97.5686816   3.3854695  57.8511961  98.5181173   3.3166786
  57.7336776  97.2405055   2.5130765  57.8146504 100.9983955   2.2019757
  57.3313586 101.7984315   2.4083646  57.9007443 101.0091899   1.2487201
  49.5854138  97.7927739  -2.4948815  50.2313002  97.2826693  -2.0061589
  49.3771289  98.5296421  -1.9205389  62.1107530 104.8608587   3.0043326
  62.9798690 105.0349239   2.6429961  61.6314282 105.6803003   2.8819055
  53.9251629  94.9395356   1.6026200  54.7883091  94.5832161   1.8129524
  53.3517040  94.6009251   2.2901604  59.3750898  75.7600410 -13.4057050
  58.5984232  76.3194331 -13.4154186  60.0141461  76.2457193 -12.8842180
  57.6297270  78.5685864 -13.8439083  58.3711954  79.1070908 -14.1204260
  56.9234256  79.1952153 -13.6867531  60.3947816  78.0882757 -12.2246394
  59.7188453  77.9876887 -11.5544019  61.2175449  77.9321971 -11.7610397
  60.0825297  81.0914698 -11.9225528  61.0028307  81.2693297 -11.7285482
  60.0474880  80.1470743 -12.0745829  57.9515235  74.5748938  -9.8899998
  57.8511962  75.5243295  -9.9587907  57.7336777  74.2467177 -10.7623928
  57.8146505  78.0046077 -11.0734936  57.3313587  78.8046437 -10.8671047
  57.9007444  78.0154022 -12.0267492  62.1107531  81.8670709 -10.2711367
  62.9798691  82.0411362 -10.6324732  61.6314283  82.6865126 -10.3935638
 141.6578472 141.6578472 141.6578472 109.4712190 109.4712190 109.4712190
