
37286  0.0000000e+00
  49.8016596  23.9456701  17.8750634  50.2477551  23.6439681  18.7295091
  50.5186892  23.9308739  17.1639013  49.1840029  23.2165360  17.5480044
  48.8945770  25.1501346  18.0659747  48.4842634  25.3574514  17.0776618
  47.6842833  24.6304274  18.9006031  47.2884274  23.7440491  18.4048915
  48.1169844  24.2493796  19.8256266  46.5747404  25.6328130  19.2150402
  46.2470245  26.4991832  18.1605828  46.7715025  26.5006137  17.2164845
  45.1191711  27.3241997  18.2715857  44.9362612  28.0713773  17.5135136
  44.3714094  27.3642898  19.4041228  43.5495949  28.0600309  19.4875968
  44.7181702  26.4762259  20.4771066  44.0837336  26.5266967  21.3496590
  45.8537960  25.7145333  20.4136729  46.1439085  25.1509881  21.2881184
  49.4775867  26.4244151  18.6536813  49.8599863  26.4246321  19.8449492
  49.6595955  27.3737335  17.7266145  49.3997955  27.1727180  16.7715216
  50.5881739  28.5185289  17.9256225  50.9805489  28.4584451  18.9407802
  51.8916082  28.2150936  17.0494902  52.1099997  27.1552753  17.1806037
  51.7439175  28.4835052  15.5601144  52.5048494  28.0007601  14.9468958
  50.7903337  28.0563116  15.2498281  51.7796612  29.5564079  15.3711438
  53.1111240  29.0301371  17.5510347  53.1198406  30.0599217  17.1938682
  53.1387901  28.9678907  18.6389041  54.4437599  28.4638309  16.9931519
  54.3800068  27.3874044  17.1523404  54.5779943  28.7699103  15.9556568
  55.2959681  28.9808559  17.4342012  50.0484896  29.9744034  17.6186812
  49.5598125  30.2843857  16.5168333  50.3291225  30.8749771  18.5210085
  50.7279110  30.4962087  19.3681240  49.9104643  32.3207879  18.4184742
  49.5448780  32.5393820  17.4151480  48.8097000  32.7312088  19.3864226
  48.5127974  33.7667346  19.2201865  47.6499367  31.7183781  19.0694463
  47.7870464  30.7547760  19.5601356  46.6968203  32.1489143  19.3765473
  47.4791241  31.6660500  17.9941869  49.1344261  32.5323343  20.8749485
  49.7517204  33.3816338  21.1677694  48.2442522  32.5839400  21.5018749
  49.6083832  31.5587831  21.0001063  51.1678219  33.2075667  18.6507034
  52.2147703  32.7246666  19.1685307  51.1092329  34.4096231  18.0863595
  50.3064632  34.6064472  17.5059032  52.0461893  35.5167079  18.1746280
  51.7510080  36.3085508  17.4861801  52.0560741  35.9609199  19.1699576
  53.5346174  35.1488376  17.9218042  54.4162464  35.7300568  18.5598779
  53.8034821  34.2063546  16.9226265  53.0403852  33.9317322  16.3206565
  55.1168299  33.8888431  16.4726853  54.9041080  33.4452820  15.5000079
  55.7508707  34.7739601  16.4210749  55.9776497  32.8524995  17.2977901
  56.8965912  32.2684717  16.7726827  55.6016064  32.6048398  18.5938787
  54.7671795  33.0677056  18.9249265  56.4288950  31.8371677  19.5245373
  56.7953205  30.9599042  18.9913976  57.6227999  32.7252507  19.9341416
  58.3872223  32.1811223  20.4888344  58.0226326  33.1454134  19.0112650
  57.1912527  33.9492154  20.7033992  56.3907766  34.3804574  20.1022577
  56.8341351  33.6902785  21.7001557  58.2566500  35.0304818  20.8399153
  59.1385841  34.5891929  21.3041925  58.5719442  35.4195070  19.8717463
  57.7295923  36.1076736  21.7449737  56.7823648  36.4299560  21.3125443
  57.5473595  35.7844043  22.7698636  58.7313986  37.2103882  21.8162274
  59.6040964  36.9636035  22.2607446  58.9767599  37.6196194  20.9260416
  58.3028364  37.9558086  22.3461151  55.6511974  31.2481713  20.7013249
  56.2558174  30.5124903  21.4610267  54.3144464  31.4874601  20.7300091
  53.8201475  31.9295502  19.9682188  53.4756947  30.8923388  21.8182540
  54.2390680  30.7721519  22.5869703  52.5165558  31.8873000  22.3782682
  51.7628002  32.1240997  21.6273475  52.0387411  31.4872932  23.2725763
  53.2282209  33.2433510  22.7515721  54.1538572  33.2731009  23.8042378
  54.3685150  32.3558807  24.3324733  54.8797798  34.4790244  24.0362978
  55.6147242  34.4702721  24.8276138  54.7022343  35.6273985  23.2223725
  55.2924633  36.7961240  23.5312557  55.8314514  36.8192816  24.3253303
  53.7591076  35.5613375  22.1235371  53.6841249  36.4025283  21.4503551
  53.0971622  34.3421435  21.8999743  52.4505138  34.3028355  21.0358548
  52.7170420  29.5996428  21.4289808  51.5404129  29.6141863  20.9810233
  53.3224201  28.4604597  21.7400217  54.2028236  28.5015321  22.2332764
  52.7950191  27.0931578  21.6607332  52.0914936  27.0493054  20.8293319
  53.9776421  26.1360288  21.3783121  54.6893263  26.2745404  22.1922040
  53.6843014  25.0877452  21.3221216  54.6071577  26.4632249  19.9884677
  53.8552713  26.4550352  19.1993558  55.0385809  27.4628210  19.9356735
  55.7131100  25.4724717  19.6275187  56.4374495  25.8358049  18.8985324
  56.2748146  25.1271701  20.4954815  55.1256800  24.2230868  18.9231193
  54.4273806  23.7330532  19.6016037  54.4442081  24.5497751  18.1376421
  56.2320471  23.3346987  18.5200489  56.5312147  22.7012086  19.2475724
  55.9450293  22.7134943  17.7771986  57.0558548  23.8338423  18.2162476
  51.9041014  26.6952276  22.9012084  52.3954678  26.3489127  24.0248656
  50.5993509  26.6213870  22.7800393  50.2054548  26.8981862  21.8921614
  49.6452951  26.2123609  23.7729263  49.9085617  26.8761206  24.5964694
  48.2414770  26.6270685  23.1533027  48.1246185  26.2705326  22.1299100
  47.5420332  26.1839843  23.8622165  47.8746796  28.1874609  23.1507134
  47.9703236  28.5849476  24.1611409  48.8265705  28.9977264  22.4203920
  48.6435652  30.0706100  22.4797845  49.7964239  28.8609362  22.8987026
  49.0367079  28.6875772  21.3967967  46.4996195  28.5110641  22.5924397
  46.4138889  28.2139874  21.5472150  45.7566023  28.0681300  23.2556462
  46.3909101  29.5943570  22.5399113  49.7254944  24.7941041  24.2196727
  50.0564432  23.8675880  23.4693646  49.4708490  24.5711708  25.4786706
  49.2619228  25.3883862  26.0341954  49.5679522  23.2493615  26.0514164
  50.2139330  22.6816559  25.3816986  50.4182768  23.2324195  27.3070264
  49.9103594  23.7264466  28.1353116  50.8033943  21.8557358  27.8258681
  51.5380144  21.4895320  27.1087003  51.2829590  21.8882346  28.8041639
  49.9920321  21.1279535  27.8146219  51.7197466  23.9794731  27.0949626
  52.3637247  23.5472727  26.3290691  51.5831709  25.0265622  26.8246675
  52.2055674  23.8315773  28.0594373  48.2277966  22.5036049  26.4211464
  48.0695200  21.3616753  26.0729408  47.3545742  23.1364131  27.2204614
  47.6330423  24.0350556  27.5878811  46.0138273  22.6241922  27.5219727
  45.7226038  22.0337439  26.6532564  46.0818052  21.7096829  28.7537837
  45.1189470  21.2408209  28.9566946  46.6245413  20.7812572  28.5761166
  46.6891670  22.3008966  30.0798178  47.7652740  22.2158027  29.9286366
  46.4765644  23.3594584  30.2292991  46.2642479  21.4080453  31.1966228
  46.3170481  20.3431678  30.9700203  46.9781256  21.5546203  32.0071745
  44.9145651  21.8671203  31.6197991  44.4854450  22.6303291  31.1163354
  44.0831232  21.4648890  32.5764132  44.5252180  20.6604743  33.4806347
  45.5277300  20.5704117  33.5640717  43.9046907  20.2313328  34.1521144
  42.8956556  21.9970441  32.7117825  42.5051355  22.4825788  31.9168901
  42.2701120  21.6653919  33.4320569  44.9793768  23.7538481  27.8011584
  45.4412365  24.8460841  27.9362059  43.6615896  23.4630370  27.8582931
  43.4408426  22.4965048  27.6654553  42.6955843  24.4383335  28.3404231
  42.7222919  25.3682733  27.7724457  41.3200378  23.8483119  27.9487300
  41.3668299  23.4105587  26.9515920  41.0802841  22.9777694  28.5592866
  40.2291822  24.8501658  28.0267048  39.9402618  24.9629569  29.0716457
  40.6638384  25.8252192  27.8066111  38.9793253  24.7008157  27.1465278
  39.3071175  24.6705818  26.1074233  38.5311794  23.7120509  27.2445560
  37.9536486  25.7952356  27.4267483  37.6913166  25.7215929  28.4821439
  38.4791279  26.7178917  27.1804285  36.6877842  25.6727505  26.6007996
  36.6930747  25.0924444  25.7741666  36.0673499  25.1138210  27.1689200
  36.2163353  26.5330863  26.3606858  42.7491379  24.7235966  29.7612548
  42.9199219  23.7583685  30.5321932  42.4645710  25.9783363  30.2341437
  42.3224068  26.6835999  29.5252752  42.5188398  26.3436365  31.6188955
  42.3861170  25.4716253  32.2592711  43.9792824  26.7961359  32.0443964
  43.8856268  26.8677568  33.1280041  45.0429010  25.6865406  31.7847013
  45.1774025  25.4969764  30.7197666  45.9118128  25.9026098  32.4063182
  44.6744776  24.7156978  32.1161032  44.3549633  28.1342673  31.4286613
  44.4403028  27.9027891  30.3669477  43.6947536  28.9439058  31.7396402
  45.7040787  28.6239815  31.9619656  45.8692789  29.5434189  31.4003229
  45.7421398  28.8801169  33.0207610  46.5082693  27.9724360  31.6201115
  41.5025187  27.3941493  32.0106554  41.5647840  27.9695129  33.0929804
  40.4875803  27.6629066  31.1585498  40.6392241  27.4851012  30.1759577
  39.5943141  28.7710142  31.3859558  39.0008903  28.6040020  32.2848797
  40.0458002  29.7327995  31.6293287  38.6202145  28.9402294  30.2415729
  38.9435005  28.6065674  29.1175127  37.3874331  29.2610955  30.6218123
  37.3003554  29.5436978  31.5875530  36.1568499  29.2066932  29.7714090
  36.5739536  29.4716644  28.7998557  35.4599428  27.8739071  29.6171904
  36.2229800  27.1330976  29.3782806  34.9246836  27.5908566  30.5235457
  34.6478748  27.7720833  28.4467411  34.9365854  28.2324648  27.6553512
  35.1705527  30.2825546  30.2174330  34.7373462  30.2687979  31.3669801
  34.8731947  31.2643838  29.3329573  35.2484369  31.2997627  28.3959174
  34.0132546  32.3969460  29.7031617  33.2449818  32.1042347  30.4188275
  34.6411443  33.1137085  30.2324104  33.3354807  33.1743789  28.5469413
  33.1965017  32.6707768  27.4087739  32.6815248  34.3048000  28.8703322
  32.6951647  34.7442269  29.7796273  31.7550397  34.9660826  27.9437542
  30.9415817  34.3036747  27.6477790  30.9805059  36.1924815  28.6306357
  30.2208924  36.4537406  27.8938651  30.5582476  35.9600639  29.6082759
  31.7653966  37.3277903  28.8597894  32.1011829  37.1519923  29.7417998
  32.4532819  35.4107165  26.6435981  31.9083548  35.2339101  25.5707932
  33.6877108  35.9451318  26.7951059  33.8916659  36.2732029  27.7283120
  34.6040130  36.2783575  25.6807804  34.1615868  36.9602728  24.9545932
  35.9124875  36.9346333  26.3407636  36.5713239  37.2359467  25.5263638
  35.6055546  37.8904510  26.7653894  36.6314125  35.9917974  27.3166919
  36.3964772  36.0605192  28.7235117  35.6799936  36.7640114  29.1211963
  36.9470119  35.1746845  29.6606994  36.6253495  35.1611423  30.6915975
  37.7633572  34.1769600  29.1134930  38.0468822  33.3837485  29.7893906
  38.1146979  34.0976310  27.7336144  38.8130498  33.3761501  27.3359036
  37.6203394  35.0562406  26.8747592  37.8411222  35.1144934  25.8191729
  35.0510836  35.0459123  24.8491740  35.5395555  35.3528142  23.7949347
  35.0213861  33.7787271  25.2617383  34.4773149  33.5707974  26.0868740
  35.8888459  32.7281046  24.7083616  35.2083421  32.0459175  24.1988134
  36.6115499  33.1947112  24.0389729  36.5622759  31.9116879  25.7925558
  35.9061980  31.4704895  26.7785835  37.8384304  31.5947962  25.5550790
  38.5048413  32.2162795  25.1194620  38.5597062  30.6064653  26.3476253
  38.0278397  30.4681563  27.2889471  38.6353183  29.2699552  25.6524181
  39.0027165  29.3530774  24.6295738  39.3268061  28.6199307  26.1885309
  37.3200297  28.4836149  25.4888964  36.4242935  28.5706353  26.3096142
  37.1909976  27.7744675  24.4757700  39.9735904  30.9895754  26.7723155
  40.5291224  31.9231915  26.1483788  40.6245852  30.2539706  27.6924944
  40.1129866  29.4194674  27.9414296  41.9792032  30.4661584  28.1063390
  42.3990202  31.0888386  27.3163271  42.1870708  31.1380315  29.4941592
  42.0950222  30.3909135  30.2824759  43.5304499  31.7354703  29.7477174
  43.7685013  32.5878549  29.1114211  43.7297344  31.9552588  30.7965684
  44.1350651  30.8883142  29.4238853  41.1583185  32.2037673  29.7797775
  41.2812185  33.0036283  29.0495563  40.1597452  31.8207049  29.5695066
  41.1130047  32.7432823  31.2377906  40.4362440  33.5851121  31.3841391
  40.8539295  31.9643974  31.9549537  42.1291351  32.9318357  31.5842414
  42.6598406  29.1433501  28.0826449  42.1398497  28.1541729  28.5297608
  43.8016224  29.1896367  27.4609637  44.0484571  30.1146722  27.1392655
  44.7740602  28.0293751  27.3679757  44.4086981  27.1572995  27.9102850
  45.0370741  27.6304078  25.9101677  45.2557421  28.5542893  25.3747010
  45.9706211  27.0704675  25.8548450  43.9007044  26.8660140  25.1852584
  42.5950718  27.4012136  25.0833154  42.3955679  28.4203076  25.3800416
  41.5447903  26.6023946  24.5735383  40.5734444  27.0496941  24.4224787
  41.7600250  25.2336669  24.1278100  40.7838345  24.3508220  23.7495160
  39.9095082  24.7325325  23.8565111  43.0822706  24.7211051  24.2796135
  43.2011509  23.6835551  24.0043712  44.1233206  25.5724335  24.7422361
  45.1503134  25.2387929  24.7229004  46.0726643  28.3302355  28.0692673
  46.5466881  29.4739652  28.1622481  46.7636919  27.3108292  28.5041380
  46.2575340  26.4368439  28.5119796  48.1786489  27.3138523  28.8915491
  48.3307600  28.2308626  29.4608092  48.3292246  26.0359502  29.8121905
  47.7210474  26.1385775  30.7109070  48.0971003  25.1811099  29.1770005
  49.7869539  25.7893538  30.2668214  50.4263639  25.7324791  29.3859005
  50.3368473  26.8466830  31.1257958  49.9996519  26.7139912  32.1537995
  51.4155340  26.9547367  31.0124230  49.9912500  27.8465891  30.8634114
  49.9740362  24.5148182  30.9918642  49.3663788  24.5057464  31.8967223
  49.8876286  23.6328125  30.3572774  50.9989452  24.5037675  31.3627315
  49.0670872  27.4498916  27.6306915  48.6709976  27.0334268  26.5170860
  50.2382469  28.0270123  27.7228236  50.4676867  28.6057997  28.5180998
  51.2676382  28.0288672  26.6582274  51.1970425  27.0900345  26.1089468
  50.9300709  29.1617703  25.6540656  50.7668114  30.0865769  26.2074018
  51.7527390  29.3160868  24.9558425  49.9825096  28.9796543  25.1470542
  52.6980066  28.1301403  27.1409249  53.0030060  28.3731389  28.3168840
  53.6197138  27.8370905  26.2606502  53.2761002  27.4841285  25.3789186
  55.1349592  28.0559397  26.5025592  55.3288794  28.4345508  27.5061274
  55.6785011  27.1286345  26.3215327  55.6685925  28.9701796  25.4174161
  55.1090479  28.9621520  24.3276572  56.6712952  29.7900915  25.7299972
  57.0117712  29.6870899  26.6752839  57.2958422  30.6601834  24.8399854
  56.6204977  30.8347130  24.0023994  57.5501394  32.0112705  25.4369140
  56.6374826  32.5900364  25.5790019  57.9826164  31.7767429  26.4095712
  58.4144926  32.9138517  24.6230292  58.7225723  32.6107788  23.4595966
  58.8258457  34.0095663  25.2328253  59.3121243  34.7458839  24.7414279
  58.5334778  34.2635846  26.1656141  58.5668421  29.9066377  24.3757892
  59.5217943  29.6603966  25.1416039  58.6043215  29.5326424  23.0799460
  57.8761482  29.8232007  22.4432039  59.7196341  28.7943888  22.5099874
  59.8050880  28.0218053  23.2741284  59.3564939  28.2109571  21.1683583
  60.1411247  27.5455427  20.8082509  58.1006050  27.3289752  21.1812139
  58.0913639  26.7933917  22.1305108  57.1957970  27.9017210  20.9777713
  58.2255936  26.6419530  20.3442669  59.2148829  29.3588209  20.0794435
  58.3634663  29.9750042  20.3684115  60.0542307  30.0501585  20.0042343
  58.7995291  28.9124441  18.6520028  58.9233541  29.7275877  17.9390442
  59.3319464  27.9779100  18.4751213  57.7616978  28.5792732  18.6526299
  61.1378479  29.4324780  22.6115537  62.1355772  28.7574172  22.6938725
  61.1425352  30.7632279  22.7356267  60.1878643  31.0879469  22.7927423
  62.3247719  31.6003036  22.9294729  63.1322575  31.1177444  22.3788261
  62.1408319  32.9547262  22.2220278  63.1161261  33.4379935  22.1640897
  61.6027975  32.9032230  20.7930160  60.5762100  32.5368953  20.7876444
  61.6347408  33.9297819  20.4279661  62.2591066  32.2530985  20.2144885
  61.2416792  33.7934661  22.8995633  60.4214478  33.3030558  22.9907465
  62.8482437  31.9064856  24.3441033  63.9186716  32.4787402  24.6003652
  62.1715307  31.4825344  25.3936911  61.2259865  31.1279464  25.3759646
  62.8036976  31.5284562  26.7571616  63.8879156  31.4172554  26.7716074
  62.5384760  32.8870416  27.3798895  63.1395245  33.1289434  28.2564282
  62.8036165  33.6536169  26.6517639  61.0769081  33.1227183  27.7159190
  60.1554108  32.2826982  27.5020528  60.7186556  34.2053413  28.3213711
  59.7094870  34.2456794  28.3145976  61.2869978  35.0393081  28.2814527
  62.2730112  30.4140449  27.7399921  62.6288366  30.4605985  28.8996482
  61.4146662  29.5100427  27.2958827  60.9941626  29.5255208  26.3777113
  60.9756184  28.4607267  28.2020974  60.4955149  27.6262569  27.6909590
  61.8684912  28.0286217  28.6539531  60.0649405  28.9335394  29.3247914
  59.6923447  28.1725025  30.1319981  59.6536255  30.2386165  29.3732095
  60.0398397  30.8230877  28.6456561  58.5760736  30.7588291  30.2100611
  58.6953831  30.4405427  31.2457061  58.6568069  32.3154116  30.2067041
  59.6686125  32.6463580  30.4408312  58.3939552  32.7661514  29.2497015
  57.7044678  32.9373932  31.2608910  56.6633844  32.6635432  31.0898852
  58.0140162  32.6256204  32.2584271  57.7934265  34.4441748  31.2031150
  57.6283312  35.1595283  32.2117591  57.9557753  34.9914098  30.0616264
  57.2045279  30.2967215  29.7576952  56.8444347  30.2747464  28.5721016
  56.3790464  29.9577713  30.7713270  56.7756367  30.0348115  31.6970110
  55.0505495  29.6042228  30.6428957  54.9059057  29.2964911  29.6072888
  54.6980476  28.3858562  31.5161324  53.6864901  28.0346656  31.3123608
  55.3637218  27.5693607  31.2362838  54.6598148  28.6249781  33.0760884
  54.2858267  29.6445632  33.1692624  54.0118742  27.9363680  33.6183906
  55.9940577  28.4927464  33.7257743  56.8295431  29.3783426  33.4828877
  56.2471056  27.5138545  34.4934440  54.1678286  30.8606339  30.9007907
  54.5212364  31.7177320  31.6977525  53.1848097  30.9758878  30.0829673
  52.9902172  30.2167130  29.4458747  52.2957706  32.0812678  29.9080253
  52.1994734  32.6857376  30.8099413  52.8063774  33.0612564  28.8812685
  52.0430899  33.8320398  28.7745714  54.0238905  33.8825536  29.2704916
  53.7470293  34.6236777  30.0202847  54.8575258  33.3706617  29.7512436
  54.4210243  34.3189073  28.3539867  53.2537699  32.4545336  27.4995828
  53.4664297  33.2213068  26.7546415  54.1852236  31.9165421  27.6758265
  52.4599600  31.7930484  27.1525931  50.8844662  31.6674089  29.6154356
  50.6278658  30.6594706  28.9704895  49.8906088  32.4752831  30.1094270
  50.0440931  33.3289599  30.6269002  48.4601974  32.1784067  29.7675228
  48.3479118  31.1145473  29.5584941  47.5692940  32.5485587  30.9611177
  46.5899658  32.4828315  30.4870939  47.6746988  31.7797947  31.7266178
  47.7787018  33.5863113  31.2205791  47.9195642  32.8586030  28.4845424
  48.3554077  33.9521623  28.1164527  46.9917297  32.2332406  27.7855825
  46.8233109  31.2603831  27.9983854  46.4745569  32.7772379  26.4277196
  46.8205976  33.7912655  26.2274575  46.9612932  32.0242023  25.1920533
  46.5434647  31.0177350  25.2154779  46.5153551  32.6144814  23.8931990
  46.9094753  33.6152363  23.7163854  46.8454838  32.1102786  22.9849601
  45.4265976  32.6612210  23.9160132  48.5169792  31.8746066  25.2230740
  48.8947821  31.4763689  24.2813873  48.9965391  32.8162146  25.4904747
  48.6304188  31.0209775  25.8913136  44.9732971  32.9648471  26.4603567
  44.2197227  32.0173550  26.4215684  44.5995855  34.2382908  26.4024353
  45.3448963  34.9088073  26.2798691  43.2048464  34.6415615  26.3353229
  42.6076174  33.8116574  26.7130470  42.8699827  35.9046125  27.2420740
  43.4326315  35.7910872  28.1686997  43.1242275  36.8015695  26.6773367
  41.3820076  35.9233999  27.6121593  40.7680464  35.8799982  26.7125654
  41.0608435  35.1476240  28.3072305  41.0726833  37.2462296  28.3179760
  41.7076302  37.3229289  29.2006207  41.4058113  38.1324697  27.7778769
  39.6047425  37.1827292  28.6618805  38.9658594  37.3247695  27.7902412
  39.3694305  36.1995029  29.0693069  39.1383410  38.1388521  29.6818733
  39.3284750  39.0989566  29.4325638  38.1440163  38.1485868  29.8588586
  39.5742440  37.9852962  30.5799317  42.8454781  34.6788263  24.8018813
  43.3710718  35.4315281  24.0233707  41.9885063  33.7644577  24.4504309
  41.6722775  33.1535935  25.1899886  41.4219093  33.5920620  23.0312514
  41.9576597  34.1144037  22.2386384  41.4327288  32.0911312  22.6627541
  40.8195496  31.5416956  23.3770609  41.0172176  32.1196127  21.6554546
  42.8304052  31.4136934  22.6588583  43.3926535  31.5603042  23.5810733
  42.7646780  29.9231291  22.3532677  42.1243095  29.4243193  23.0807424
  42.2066784  29.8381424  21.4207888  43.7428141  29.4513416  22.2596169
  43.7590265  31.9937587  21.5650439  43.9217615  33.0637074  21.6947651
  44.7719812  31.6232467  21.7223644  43.4463120  31.9108582  20.5241632
  39.9862123  33.9699888  22.9361296  39.1584587  33.4195209  23.6567092
  39.7024274  34.9286890  22.0211816  40.3999949  35.4300380  21.4900064
  38.3469892  35.3834176  21.7248845  37.9037619  35.4698992  22.7169418
  38.3570981  36.7521906  20.9662557  38.9899802  37.5436354  21.3677239
  38.8281918  36.5988755  19.9953401  36.9468260  37.3373914  20.7643986
  36.8349934  37.5041819  19.6930540  36.1352777  36.6973352  21.1105442
  36.7874789  38.6274481  21.4908242  37.6319671  39.5401931  21.3190484
  35.8465838  38.7045717  22.2767925  37.5968671  34.2728257  21.0871053
  38.3320522  33.3112097  20.6426668  36.2558246  34.3099904  21.1033249
  35.9207773  35.1829672  21.4851022  35.4953384  33.4918022  20.2000928
  35.8953047  32.4956226  20.3891993  34.0490150  33.5658574  20.6470847
  33.9275217  33.4668326  21.7257571  33.8406062  34.5816088  20.3110576
  33.2386971  32.6178813  20.0067663  33.2415891  31.8093491  20.5243278
  35.7817721  33.7716603  18.6872864  36.1860323  34.8439264  18.2610250
  35.5478930  32.7527857  17.8703845  35.4627657  31.8151999  18.2361567
  35.4384089  32.8397679  16.4304256  36.4418197  33.0796194  16.0786617
  34.9929595  31.4624786  15.8467662  35.7568669  30.7928967  16.2419927
  33.9795542  31.1325550  16.0753942  35.0914073  31.4510298  14.3301535
  34.2660594  32.0597219  13.9608359  35.9978318  31.9401479  13.9734221
  34.8598170  30.0749111  13.7107742  34.7356153  30.0732923  12.4620831
  34.9419737  28.9443970  14.3761778  34.8449755  28.1348681  13.7800598
  34.8647118  28.9160419  15.3828192  34.4616151  33.9380980  16.0012078
  33.3248258  33.7981844  16.3975716  34.8616338  34.9280477  15.2383697
  35.8584785  34.9796748  15.0843120  33.9590907  35.9170723  14.5720005
  34.6802020  36.6576266  14.2260444  33.3300328  35.2322149  13.3124280
  32.8896928  34.2812490  13.6122048  32.5534701  35.8677459  12.8868139
  34.3320441  34.9844241  12.2283363  35.0633502  35.7791233  12.0808756
  34.8395920  34.0838504  12.5739694  33.6677432  34.6083903  10.8644044
  33.0059338  33.7627935  11.0517216  33.1120825  35.4925752  10.5520582
  34.8481727  34.2000055   9.9623322  35.4646897  35.0925350   9.8555738
  35.5479431  33.5344195  10.4677188  34.4288015  33.5015178   8.6943156
  33.8348675  32.7187634   8.9280552  33.7936401  34.1421556   8.2401657
  35.1681900  33.4413266   8.0089074  32.9920721  36.7141199  15.4591501
  31.7716956  36.7951107  15.1216960  33.2881141  36.9816923  16.7394078
  34.2379498  36.8305922  17.0477593  32.4895430  37.5118065  17.8025937
  31.8092775  36.7648602  18.2117558  33.4314799  37.8859782  18.9883876
  34.2504668  38.5438156  18.6975062  32.8888774  38.5668039  19.6442521
  33.8678217  37.0297456  19.5027471  31.6545510  38.7754536  17.2919726
  32.2151113  39.7568178  16.7116332  30.3166223  38.7829661  17.5280070
  30.0246906  37.9969120  18.0910265  29.4990849  39.9255824  17.3010862
  29.5637441  40.2554369  16.2642086  28.0622506  39.5223832  17.5679123
  27.9804277  39.0229440  18.5332966  27.4384642  40.4093170  17.6789916
  27.4382949  38.5273600  16.5284812  27.1236467  39.1438627  15.6864452
  28.2692719  37.9059744  16.1946225  26.2939262  37.7680469  17.1107721
  26.6737843  37.1609688  17.9325175  25.5161929  38.4294081  17.4926496
  25.6413078  36.9361162  16.1194575  25.9969664  36.0233855  15.8734310
  24.5803785  37.2206283  15.4152739  23.8679004  38.3318377  15.4040039
  24.1933441  39.0184331  16.0694158  23.0025649  38.4288478  14.8922503
  24.0544939  36.3636541  14.5994830  24.5008588  35.4718041  14.4398844
  23.1531000  36.5806890  14.1988802  29.9000168  41.1578178  18.0752993
  29.6444464  42.2396040  17.6173627  30.4970765  40.9347248  19.2522371
  30.6590009  39.9911237  19.5739448  30.9946251  42.1110582  20.0252533
  31.1079764  42.9709959  19.3651307  29.8921895  42.6669788  21.0184097
  29.7088528  41.8743420  21.7438173  30.2477646  43.5521746  21.5457606
  28.6073065  42.9560232  20.3417134  28.2415867  44.1939211  19.9083674
  27.0237041  44.0852785  19.3234730  26.3991570  44.9040604  18.9979792
  26.5987515  42.8206491  19.3336916  25.6291628  42.5989962  19.1579938
  27.5244260  42.1019077  20.0911164  27.4801421  41.0486937  20.3260159
  32.4018812  41.7401409  20.7373977  32.3783255  41.2395048  21.8631077
  33.5353398  41.8712759  20.0662971  33.6241722  42.3626947  18.6712360
  33.7772775  43.4417105  18.6910176  32.7775717  42.1077204  18.0337739
  34.8712373  41.6851568  18.0778456  35.3373957  42.2582626  17.2763789
  34.6262908  40.7219553  17.6302421  35.7404232  41.4252281  19.3386424
  36.4003038  42.2912216  19.3906915  36.2896943  40.4874611  19.2549992
  34.7871995  41.3272762  20.5512953  34.6065593  40.2743530  20.7676911
  35.3960681  42.0413780  21.7864513  35.7056332  43.1877661  21.7283249
  35.5037475  41.3138294  22.9054761  35.2662492  40.3321505  22.9064775
  36.0129046  41.8017435  24.1449308  35.4045343  42.6525354  24.4517612
  35.7091928  40.8377552  25.2872491  34.6240187  40.7875061  25.3765559
  36.0290027  39.8301411  25.0216603  36.2550688  41.2220097  26.6458678
  37.3271036  41.0518456  26.5464306  36.1388922  42.2979450  26.7761707
  35.7246518  40.3446817  27.8226018  34.5969462  39.9465251  27.9508948
  36.5766883  40.0416565  28.7761664  36.2611246  39.4320941  29.5170784
  37.5418329  40.3391314  28.7663245  37.4232149  42.2311592  24.1068363
  37.7086616  43.3233547  24.5729136  38.2967877  41.4285469  23.5190105
  37.9401207  40.6872034  22.9330921  39.7389865  41.6598511  23.6980247
  39.8078442  41.8626738  24.7667718  40.5026007  40.4106331  23.2913327
  40.1245165  39.9897218  22.3596740  41.4944077  40.7113791  22.9537392
  40.6132746  39.3400383  24.3690586  41.0333252  39.8601341  25.2299666
  39.3505359  38.5720181  24.6861291  39.5289588  37.8181839  25.4529405
  38.5846782  39.2680001  25.0284410  38.9638758  38.0714464  23.7984252
  41.5833139  38.2760525  23.8972354  41.9102955  37.7862334  24.8144388
  41.1668634  37.5622773  23.1864643  42.4506474  38.7932754  23.4869790
  40.2784824  42.8972530  23.0000973  41.3329458  43.3853436  23.3774018
  39.5120668  43.5819006  22.1161079  38.7124586  43.0224848  21.8557644
  39.9072051  44.8453283  21.5154576  40.8181572  44.7223759  20.9296727
  38.8535333  45.5029249  20.6030273  37.8588128  45.5521393  21.0459828
  39.2465663  46.4610434  20.2629662  38.5546684  44.6383715  19.3428648
  38.4728813  43.5867977  19.6178305  37.2603703  44.9768305  18.6619794
  37.1140099  44.4028711  17.7469683  36.4443994  44.7953320  19.3615174
  37.3404408  46.0178661  18.3490372  39.5671916  44.5302868  18.2497191
  39.2316389  44.1627884  17.2799504  40.0226498  45.5205679  18.2508934
  40.3728437  43.9146662  18.6497700  40.2275229  45.8839989  22.6088309
  41.2687635  46.4963293  22.4811578  39.3846440  46.0468912  23.5914135
  38.5641289  45.4618931  23.5233688  39.4245648  47.0005560  24.7188568
  39.8965621  47.9140425  24.3570948  37.9955387  47.3927498  25.1748490
  37.3616290  47.6826191  24.3368530  37.6181746  46.4650249  25.6049848
  38.0370688  48.5431051  26.2450409  38.1604910  48.4043503  27.6663566
  38.2410455  47.4088240  28.0772662  38.0190063  49.5343542  28.5363269
  38.0370903  49.4921494  29.6153498  37.9868507  50.7842684  28.0200195
  37.8610110  51.8877316  28.8223648  37.3692155  52.5892353  28.3892012
  37.8995991  50.9685659  26.6016364  37.7905917  51.9825792  26.2462449
  37.8382277  49.8419714  25.7329178  37.7609634  49.9365807  24.6598458
  40.2229309  46.4363718  25.8383799  41.0141754  47.1308374  26.4637208
  40.0759268  45.0626659  26.1490965  39.4461775  44.6030283  25.5070233
  40.6972408  44.5627451  27.3927474  40.2989244  45.0715351  28.2705736
  40.3418398  43.0581760  27.7013063  39.5200324  42.7395678  27.0600438
  41.2515593  42.5269651  27.4214435  40.0739527  42.9131699  29.2132664
  41.0129404  43.2453775  29.6560311  39.3131542  43.6255312  29.5323801
  39.8088765  41.4676952  29.7015119  39.5562625  40.6134748  28.8179922
  39.8922181  41.2222528  30.9353781  42.2906399  44.7063589  27.3699307
  42.9422617  45.0143909  28.3775473  42.8211260  44.3344355  26.1641359
  42.2108984  44.0891075  25.3976250  44.2705011  44.2502975  25.8971310
  44.7271252  43.5373402  26.5836310  44.4032907  43.6970758  24.4293976
  45.4617977  43.5314226  24.2288327  43.9383125  42.7204180  24.2951131
  43.7231731  44.6057987  23.5333276  42.8559542  44.2266846  23.3726883
  44.9250698  45.6747293  26.0265017  45.9492922  45.8092594  26.6838717
  44.3023872  46.7386675  25.4540920  43.5952330  46.4990568  24.7739267
  44.5803976  48.1551123  25.7244682  45.5953074  48.4181547  25.4263544
  43.5328674  48.9431858  24.8660088  42.5450277  48.5761833  25.1445556
  43.7122679  49.9864435  25.1258826  43.8143587  48.9223433  23.3384776
  44.8798466  49.1264963  23.2328248  43.7309599  47.8640795  23.0910397
  42.9470110  49.9104404  22.5108361  41.8959951  49.6957779  22.7041841
  43.2586145  50.9307337  22.7344513  42.9572392  49.7430611  21.0130310
  42.4791574  50.6176090  20.5717802  43.9098597  49.7999573  20.4863596
  42.1725273  48.5598183  20.5007124  42.3590851  47.6828051  20.9656334
  41.2007141  48.7989712  20.3647470  42.4398279  48.5298061  19.5271885
  44.5774221  48.5127163  27.1777987  45.4743147  49.1622448  27.6664138
  43.4954977  48.0660534  27.8173685  42.8965807  47.5051737  27.2284579
  43.3475065  48.1691885  29.2911005  43.3061743  49.2460299  29.4548845
  41.8645859  47.7399111  29.6906495  41.1555099  48.1432724  28.9677286
  41.7969179  46.6544819  29.6173716  41.4615297  48.0549526  31.1592388
  42.1272326  47.4866056  31.8087959  41.4526939  49.5537710  31.5187335
  40.9397507  50.0942850  30.7232261  41.0450888  49.7446823  32.5114632
  42.4981451  49.8582363  31.4694428  40.0226212  47.6096630  31.3926053
  40.0675631  46.5271568  31.2732053  39.6221566  47.9046154  32.3625183
  39.4672656  48.1576395  30.6314206  44.5124483  47.6749659  30.1342845
  44.9515104  48.3780336  31.0082674  45.0564623  46.4694023  29.8735452
  44.5938206  45.9036922  29.1763854  46.1716986  45.9437466  30.5741239
  45.8472681  46.0704327  31.6069818  46.4303160  44.4313431  30.3163433
  46.4677429  44.2034769  29.2510843  47.3521376  44.0938663  30.7901120
  45.2911520  43.5440588  30.8414316  45.1482391  43.3268929  32.2053838
  45.8737135  43.7901974  32.8576446  44.2001915  42.3782492  32.7000546
  44.1564512  42.1761322  33.7600732  43.3646917  41.7874670  31.7161775
  42.3801947  40.9109688  32.0375824  41.6862774  40.8703375  31.3754463
  43.5343456  42.0154572  30.3796911  42.8249836  41.6272593  29.6637988
  44.5139027  42.9132414  29.9340034  44.7672129  43.0117035  28.8887548
  47.4497080  46.8265772  30.3784871  48.0910254  47.0309114  31.4075780
  47.8084850  47.2706270  29.1837430  47.2275925  47.1218395  28.3710146
  48.9658880  48.1840611  29.0080094  49.8500443  47.8817892  29.5692611
  49.2891979  48.4794712  27.5351739  48.4281635  48.9774561  27.0893812
  50.1709414  49.0994215  27.3730087  49.6647644  47.1934366  26.7719960
  48.7722778  46.5824366  26.6369009  50.1036549  47.5436211  25.8377314
  50.7735348  46.4420271  27.5313711  51.4508200  47.1046972  28.0701232
  50.3993845  45.8020449  28.3304524  51.5848923  45.4531908  26.6893983
  52.3131466  44.9409437  27.3181725  50.9966087  44.6479845  26.2493229
  52.3802900  46.1879683  25.6955194  51.6945171  46.4658928  25.0080824
  52.7906179  47.0240211  26.0863471  52.9785156  45.5728483  25.1627326
  48.6488152  49.5734787  29.6828175  49.5211697  50.2266645  30.1967692
  47.4002218  50.0155687  29.7817230  46.6542864  49.5888281  29.2510772
  46.9925547  51.2124872  30.6060457  47.6185369  52.0509911  30.3008199
  45.5019140  51.5443850  30.3375673  44.8604107  50.6720734  30.2124524
  44.8734665  52.3575211  31.5166712  44.9558163  51.8827295  32.4943686
  45.3580999  53.3321857  31.5738678  43.8008356  52.4861383  31.3716769
  45.4439449  52.2808361  28.9860821  45.8120489  53.2912111  29.1642332
  46.0428667  51.7521095  28.2445693  44.0444279  52.3100615  28.3714199
  43.5977459  51.3613272  28.0739450  43.4147358  52.9703808  28.9677167
  44.1579914  52.8080273  27.4084902  47.2425842  50.9212112  32.0959663
  47.8445339  51.6746426  32.8343821  46.7231846  49.7977114  32.6169467
  46.1739349  49.1409349  32.0811486  46.8869305  49.2703533  34.0086436
  46.7939663  50.1124811  34.6944189  45.7858849  48.2720757  34.3271828
  45.8948135  47.4766397  33.5899472  46.0016537  47.8964901  35.3274226
  44.3064690  48.7914133  34.3539906  44.0004873  49.0851831  33.3499098
  43.5292244  47.5479650  34.6847486  42.4843836  47.8321505  34.8098350
  43.6798620  46.8171120  33.8902283  43.9160013  47.1506405  35.6231737
  44.0510416  49.8474693  35.3983450  44.4715786  49.5631886  36.3629389
  44.5366764  50.8171177  35.2886367  42.9752731  49.9418497  35.5463743
  48.3712339  48.8786221  34.3543553  48.7436676  48.7233734  35.4788327
  49.3759441  48.8069057  33.4031320  49.0635872  49.0628910  32.4773836
  50.7220936  48.2929468  33.6038184  50.6357718  47.2564125  33.9297676
  51.3777161  48.4205723  32.1738529  50.8528376  47.6923513  31.5555429
  51.3983631  49.4734430  31.8925500  52.7825689  47.7838469  32.2008729
  53.3925533  48.3361244  32.9157209  52.7529955  46.7039299  32.3458076
  53.5811329  47.9588079  30.8479023  53.0389690  48.0088234  29.7789478
  54.9118805  48.0117607  30.9685421  55.5213594  47.8132105  30.1880193
  55.2625370  47.8257036  31.8972635  51.4608765  49.0233517  34.7556400
  51.1805630  50.1752329  34.9811459  52.3470354  48.3327818  35.5486202
  52.6200199  47.3990631  35.2770519  52.8396749  48.8364935  36.8540025
  53.8243723  48.3970642  37.0132947  53.0964184  49.8952675  36.8885136
  52.0088291  48.6368799  38.1107092  52.6250267  48.5005426  39.1972208
  50.6578732  48.6224318  38.0747414  50.1128149  48.7230682  37.2304130
  49.8651552  48.2000256  39.1959643  50.0948191  48.9366245  39.9658823
  48.8022566  48.3292103  38.9918685  50.1478577  46.7880774  39.7077799
  50.3846550  45.8375359  38.8911605  50.2039433  46.6399622  41.0487938
  50.0772715  47.4551964  41.6314125  50.4679060  45.3214121  41.6364908
  51.3105822  44.8679781  41.1145782  50.8578539  45.5732536  43.0875349
  49.9350643  45.8833361  43.5778522  51.2084389  44.1972971  43.6694717
  52.1679020  43.8587952  43.2783890  51.3400650  44.3608665  44.7390604
  50.3680849  43.5198689  43.5178232  51.9917202  46.5851593  43.2429457
  52.3562527  46.5834665  44.2701864  52.8662348  46.4205790  42.6134729
  51.6563225  47.5627899  42.8967619  49.1953087  44.5351887  41.5522242
  48.1361675  45.1375675  41.7147160  49.2442274  43.2466936  41.2096119
  50.1436901  42.7882338  41.1798477  48.0222702  42.4114323  41.0215569
  48.2145500  41.3762188  41.3034487  47.2870827  42.7294874  41.7607689
  47.3659420  42.5152874  39.6545529  46.2854195  42.0057964  39.3813944
  48.0479193  43.1702566  38.6981225  48.9765882  43.4311771  38.9974546
  47.6625490  43.4196186  37.2987986  46.6496754  43.0620623  37.1134686
  47.6357555  44.9273872  36.9972730  48.6387157  45.3367186  37.1182275
  47.0363665  45.1565075  35.5812669  47.5215387  44.5633936  34.8060822
  45.9570646  45.0274086  35.5003834  47.2217035  46.2086344  35.3649831
  46.8414259  45.7248974  38.0742645  47.2854424  45.4791546  39.0389204
  46.9879389  46.7984915  37.9558110  45.3378248  45.2933502  38.2484531
  44.8348665  45.8374357  39.0478897  44.8473930  45.5228949  37.3024654
  45.3635693  44.2226315  38.4509444  48.6860847  42.6604128  36.3771105
  49.8765898  42.9564095  36.4137530  48.2051563  41.7746544  35.5159640
  46.7906952  41.4456224  35.2563763  46.1474609  42.3193359  35.1516247
  46.4985180  40.7569933  36.0491705  46.8106318  40.6994724  33.9062905
  46.7169714  41.4243555  33.0976629  45.9328938  40.0566530  33.8395572
  48.1397009  39.9018431  33.9284539  48.4001255  39.5944095  32.9156542
  47.8983927  39.0804529  34.6031356  49.0592861  40.9398794  34.6184254
  49.8038054  40.4354191  35.2343059  49.9358559  41.8606091  33.6181116
  49.3797207  42.8150129  32.9705453  51.2284422  41.5492773  33.6025596
  51.3101292  40.6274033  34.0069938  52.1611643  41.8536758  32.5149298
  52.1742105  42.9310799  32.3501968  53.6024094  41.4387131  32.8879571
  53.8138819  41.9114113  33.8470912  53.6512232  40.3595448  33.0332756
  54.5458651  41.8374348  31.8020463  54.7789764  41.0968637  30.6489563
  55.5950308  41.9018793  29.8736048  55.9727144  41.5307331  28.9323211
  55.8573627  43.0514765  30.5194712  56.4934301  43.7873220  30.2473450
  55.2939653  43.0243015  31.7890263  55.2838898  43.7732649  32.5670719
  51.6694260  41.0470247  31.2349844  51.2839651  39.8873067  31.3490748
  51.8468046  41.6762447  30.0356197  52.3188496  42.5689363  30.0548244
  51.3547802  41.3226366  28.6798501  50.9381771  40.3167534  28.7321091
  50.4664707  42.4238205  28.1307316  51.0031509  43.3717728  28.1690145
  50.1031876  42.0997095  26.6861033  51.0264063  42.2411633  26.1241794
  49.8209190  41.0498238  26.6075182  49.3075037  42.7489138  26.3206959
  49.2305803  42.6117659  29.0371490  49.5410919  43.0559540  29.9828672
  48.5633087  43.2844925  28.4983587  48.3699274  41.3909912  29.3057799
  47.4218750  41.5604734  29.8162508  48.1699848  40.8115053  28.4044933
  48.9446259  40.6951284  29.9170041  52.6662874  41.1528683  27.8622150
  53.2784319  42.2054338  27.5431323  53.0846882  39.9177408  27.5718737
  52.4188614  39.1844130  27.7693868  54.1623402  39.4990325  26.5946984
  55.0823879  39.9494338  26.9671965  54.5405912  38.0100036  26.7342639
  53.7715721  37.2992134  26.4317894  55.4355621  37.8611279  26.1301422
  54.8404980  37.4865890  28.2472062  53.9545870  37.6039815  28.8712978
  55.1460552  36.4581299  28.0548429  55.9828186  38.1415629  28.9816451
  56.8735504  38.0521464  28.3597851  55.6097651  39.1548395  29.1306663
  56.1037636  37.4611902  30.2371907  56.8684435  36.8067884  30.3216076
  55.1806641  37.4593711  31.1733031  54.1761160  38.2407570  31.4134169
  54.3169403  39.1285896  30.9529543  53.6148119  37.9889464  32.2144341
  55.1888657  36.5271235  32.0664525  55.9843493  35.9159684  32.1839213
  54.6054506  36.7103434  32.8702950  53.8188219  39.9030280  25.1336479
  54.7678137  40.1737070  24.4236732  52.5408983  39.9060750  24.7461200
  51.9157600  39.6353269  25.4917741  51.9809628  40.1816750  23.3920741
  52.3947096  41.1539936  23.1246614  52.4642801  39.2130589  22.2952366
  53.5455084  39.2709136  22.1698809  52.2195196  38.1871867  22.5705171
  51.9688129  39.4284773  20.9382963  52.5330257  40.3518963  20.0765276
  53.2526064  41.1108255  20.3460288  51.9886971  40.2018213  18.8484645
  52.0662975  40.8578157  18.0844295  51.0423231  39.2091036  18.8641238
  50.2112055  38.7374783  17.8653371  50.3338814  38.9649320  16.8167114
  49.2587757  37.7675295  18.1882930  48.5806751  37.3052692  17.4862289
  49.0222454  37.4101448  19.5239627  48.2660627  36.6571212  19.6899247
  49.9179459  37.8577304  20.5311465  49.9157333  37.4510455  21.5316486
  50.8950758  38.7644076  20.1880288  50.4369783  40.2620983  23.2881975
  49.7141171  39.6748996  24.0672660  49.9164534  40.9729862  22.3383307
  50.6429482  41.2989902  21.7170191  48.5089397  41.0261393  21.8630815
  47.9143095  40.1601171  22.1537971  47.8163338  42.2956657  22.4745393
  47.7322197  41.9927216  23.5182118  48.4643269  43.1700516  22.4141145
  46.4628887  42.6059961  21.8424106  45.3854227  41.7434072  22.1545434
  45.5159330  40.8867025  22.7990770  44.1144276  42.0653725  21.5751934
  43.3120632  41.3431597  21.6071653  43.9951181  43.1131697  20.6245661
  42.8254938  43.2442617  20.0238538  42.8209114  44.0790558  19.5498359
  45.1191092  43.9226437  20.3202343  45.0400686  44.6434879  19.5198953
  46.3340473  43.6791372  20.9671617  47.1054554  44.3787479  20.6810164
  48.4444237  41.1605453  20.3574347  49.3259525  41.8156528  19.7359991
  47.4835730  40.4884005  19.7689784  46.9071674  39.8821497  20.3349423
  46.9974566  40.6958961  18.4026754  46.7327976  41.7452621  18.2727325
  47.8085947  40.4495859  17.7174866  45.8120394  39.8115993  18.0706942
  44.7696877  39.7916126  18.7941539  45.8413696  39.1629457  16.9242501
  46.6899920  39.1521764  16.3766861  44.6876383  38.5704350  16.2243605
  44.0687561  38.0400062  16.9480526  43.8556623  39.7177029  15.6043386
  43.9576006  40.6126690  16.2181342  44.3518734  39.8833251  14.6480751
  42.3718023  39.3137717  15.2842081  41.9774055  38.8864040  16.2061131
  41.8324661  40.2569962  15.1973283  42.0856190  38.5126448  14.0111828
  42.8808594  38.1660581  13.1753469  40.8054829  38.1116056  13.9667284
  40.5048752  37.7733874  13.0637622  40.1971436  38.2863951  14.7537947
  45.0102997  37.4858022  15.1676071  45.7195091  37.7695966  14.2128325
  44.5158195  36.2826991  15.3155112  43.8631868  36.1017299  16.0647929
  44.9777985  35.1230335  14.4929564  45.7833815  35.2443337  13.7687886
  45.5792046  34.0870953  15.5236042  44.9503899  33.8100934  16.3697481
  45.6282520  33.2092810  14.8792922  46.9747114  34.3974423  16.0991454
  46.9014692  35.4279995  16.4465463  47.1716452  33.7388682  16.9450772
  48.1099224  34.2513514  15.0146282  49.2638254  34.1305566  15.4355049
  47.8437328  34.3268895  13.8127041  43.8086319  34.6412969  13.5785925
  43.1603575  33.6391449  13.9005589  43.5211420  35.3789973  12.4409473
  44.2612982  36.0547614  12.3159766  42.3568869  35.2315736  11.5335631
  42.4241018  35.9748554  10.7391357  42.5261211  33.8668180  10.8371174
  43.5543585  33.8516521  10.4757369  42.3848534  33.0878782  11.5863824
  41.6049957  33.5720015   9.6283507  40.6217480  34.0073419   9.8066992
  42.0223761  34.0055084   8.7195247  41.4677763  32.0464253   9.5680594
  42.4401283  31.6087389   9.3420869  41.1537266  31.7400670  10.5658662
  40.4640818  31.5598512   8.5438812  40.3579998  32.4074316   7.8667873
  40.8256817  30.6934810   7.9900342  39.2050004  31.1582994   9.1912544
  39.3933296  30.3979206   9.8287922  38.7623239  31.8659592   9.7599000
  38.6017609  30.8556700   8.4398425  40.9406853  35.5543423  12.0565808
  40.2549887  36.4479995  11.5923333  40.5818462  34.7058535  13.0199528
  41.2881708  34.0518951  13.3258021  39.1952014  34.5031691  13.4529078
  38.5477185  35.0448442  12.7633739  38.7703204  33.0374169  13.3219385
  39.7010350  32.5081444  13.5262477  37.9208565  32.8374124  13.9750087
  38.3018303  32.7577591  11.9000840  38.1304216  33.6041784  11.0020244
  38.2018328  31.5646267  11.6602516  38.9077091  34.9775743  14.8591411
  37.7505589  35.1466370  15.2465439  39.9305105  35.3102255  15.6999362
  40.8237314  34.9466157  15.3998709  39.7825170  35.7701588  17.0863819
  38.9231324  36.4145494  17.2716427  39.6027231  34.4545388  17.8646743
  39.7561908  34.7874165  18.8911927  38.5924745  34.0669680  17.7332008
  40.5104589  33.3105659  17.5502837  40.1942635  32.3232508  16.5740252
  39.2196298  32.3708487  16.1111808  40.9996128  31.1914349  16.5098989
  40.6777859  30.3552675  15.9068620  42.2538185  31.1397386  17.1758521
  43.0797482  30.0719643  17.0588577  42.6998854  29.3277526  16.5861487
  42.5802183  32.2530484  17.9765475  43.5482693  32.2153831  18.4538949
  41.6765165  33.2776046  18.2841969  41.9539976  34.0608621  18.9740622
  40.9996748  36.5831804  17.4875283  42.1145344  36.4258385  16.9423342
  40.7761669  37.5527596  18.3374715  39.8381352  37.8590608  18.5528266
  41.8231487  38.2482815  19.0593517  42.5844193  38.5488844  18.3394885
  41.3444614  39.5390606  19.7233510  40.8466101  39.2492867  20.6487036
  42.2177649  40.0785875  20.0899005  40.5230713  40.4133272  18.8436568
  40.9197950  40.7534790  17.7428269  39.2950511  40.6890631  19.2128563
  38.8057566  41.2701464  18.5472476  38.9171410  40.2978420  20.0638747
  42.5189781  37.3654056  20.0586390  41.9175386  36.4290738  20.6143737
  43.7364292  37.6635098  20.3474045  44.1164017  38.4783387  19.8872149
  44.5796347  36.8212008  21.2236094  43.9792442  36.2800312  21.9548869
  45.5209494  35.8608747  20.4726577  46.2445736  36.3343549  19.8091185
  46.3165188  34.9969506  21.3602328  45.6522369  34.5071554  22.0722246
  47.0081377  34.4100618  20.7558107  46.9531488  35.5733538  22.0314741
  44.7147846  34.9335265  19.5250082  45.2772999  34.1176605  19.0710914
  43.8568163  34.4864202  20.0270915  44.2044830  35.5077553  18.7517309
  45.2666187  37.7943611  22.1316910  45.9191275  38.7043881  21.6570544
  45.2329111  37.5226092  23.4098434  44.6949720  36.7801404  23.8334680
  46.0160446  38.2247448  24.4020486  46.6315222  38.9610887  23.8852477
  45.1106024  38.9772916  25.3262210  44.5290232  39.6931028  24.7452927
  44.4058847  38.2602692  25.7473540  45.7505322  39.7855759  26.4442444
  46.3503456  39.1269422  27.0723557  46.6126013  40.9108925  25.8785439
  47.4206781  40.4193926  25.3367519  46.0953045  41.5530348  25.1656866
  47.0242023  41.4119291  26.7546964  44.7336578  40.3443766  27.4056172
  44.0078926  39.5647168  27.6369119  45.2123594  40.7293558  28.3060288
  44.1898251  41.1693525  26.9454384  46.8876696  37.2238898  25.1889801
  46.3885498  36.1735082  25.6291389  48.1313562  37.5441885  25.3846335
  48.4066153  38.4914374  25.1677036  49.1394520  36.7541313  25.9695697
  48.7065792  35.7805777  26.1996293  50.3905964  36.4722919  25.0496769
  50.7576561  37.4145103  24.6427488  51.4132595  35.6041956  25.8310199
  51.9037676  36.1804223  26.6155338  50.8216476  34.8326755  26.3238263
  52.2472000  35.2878928  25.2044487  49.9174643  35.6364107  23.7647176
  50.7812786  35.2040100  23.2597947  49.2670298  34.8448014  24.1367269
  49.3591022  36.3108563  23.1155181  49.6114016  37.4496031  27.2277832
  50.2397490  38.5339665  27.1380830  49.3899059  36.8229699  28.4157276
  49.1268730  35.8486032  28.4548116  49.6273708  37.4115992  29.7316051
  50.3453875  38.2294846  29.6715117  48.3300495  38.0121064  30.2643895
  48.4986162  38.7644124  31.0349250  47.8087997  38.5399413  29.4657731
  47.3054934  36.8467355  30.7127309  47.4656105  35.9055233  30.1868200
  47.3775911  36.7249012  31.7934990  45.6003714  37.0483971  30.2961731
  45.3163624  38.3807826  31.4691925  44.2743158  38.4107232  31.7875290
  45.9321976  38.0808353  32.3170638  45.6324053  39.3516946  31.0876822
  50.2558327  36.4494586  30.7433128  50.5705023  35.2816892  30.5303168
  50.4344034  36.9236207  31.9926023  50.4992580  37.9140592  32.1794939
  50.8664894  36.0407424  33.0547166  51.8485785  35.6205916  32.8377390
  50.9412813  36.9374228  34.3049598  50.0025845  37.4904823  34.3376565
  50.8884573  36.3506341  35.2220154  52.0404816  37.9873490  34.3888164
  51.8646908  39.0791798  34.9285340  53.1751633  37.6701427  33.9553714
  49.9374151  34.8625588  33.3066988  48.7014198  35.0319457  33.3853793
  50.5110931  33.6433363  33.3450127  51.5187025  33.5796857  33.3172131
  49.8920965  32.4884629  33.9504075  48.9154911  32.3184180  33.4971714
  50.8636045  31.3296604  33.7273932  51.2302399  31.1709356  32.7132487
  51.7561769  31.5587163  34.3095875  50.2590370  30.0058579  34.2242527
  49.6918821  30.1138973  35.1487851  49.0269089  29.5669794  33.4044027
  49.4774151  29.4801426  32.4156642  48.6199522  28.5900092  33.6651969
  48.1934071  30.2530885  33.5548425  51.3356495  28.8804722  34.1452003
  50.9181452  27.9576087  34.5478272  51.6002893  28.6901164  33.1050897
  52.1462059  29.1825414  34.8084164  49.6883392  32.7601576  35.4432702
  50.5906153  33.2280946  36.0683703  48.4675074  32.4874830  35.9090757
  47.7453756  32.1602154  35.2833605  48.1200838  32.6212168  37.3124552
  49.0161943  32.7202344  37.9250598  47.1546984  33.7956357  37.4673486
  46.1340523  33.5716367  37.1571660  46.9889021  34.0028405  38.5245514
  47.5530481  35.1212835  36.8080688  48.0378580  34.9199414  35.8528042
  46.3134861  35.9915805  36.5411782  46.6576576  37.0011711  36.3167453
  45.6512499  35.6070280  35.7655072  45.6503105  35.9798408  37.4061441
  48.6460876  35.7842302  37.5906444  49.6355772  35.5908108  37.1763992
  48.5404873  36.8547487  37.4147391  48.6478233  35.6023145  38.6653566
  47.5053549  31.2510037  37.8328991  47.4759483  30.2174473  37.1310997
  47.0719433  31.1885810  39.1078043  47.2666597  32.0960617  39.5061350
  46.3642120  30.1479483  39.8155117  46.5157270  29.0992618  39.5597768
  46.6806173  30.2142811  40.8564711  44.7814846  30.3180170  39.8178101
  44.2009735  31.0091758  38.9976478  44.1348982  29.7002268  40.8126831
  44.7355318  28.8477087  41.8802547  45.3775740  29.4404006  42.5318670
  45.3465939  27.9973173  41.5776968  43.5758829  28.2648778  42.7293015
  43.4051943  28.9358449  43.5711861  43.6657143  27.2447586  43.1026459
  42.3579359  28.4065151  41.7537880  41.4227819  28.4703755  42.3101234
  42.3540354  27.5772691  41.0463667  42.7098656  29.6415520  40.9233999
  42.3775196  29.5278645  39.8915458  42.0377922  30.8959413  41.4295578
  42.6287794  31.6619444  42.1597338  40.7809162  31.1081362  41.0219002
  40.3154135  30.3469634  40.5485868  39.9588656  32.2599649  41.4903498
  40.5365229  33.1836629  41.4557219  38.6826849  32.5421643  40.7340336
  38.1634283  33.3920217  41.1769962  38.8464046  32.9215908  39.7254014
  37.9512739  31.3920188  40.7264042  38.4517932  30.6558442  40.3670597
  39.4699216  32.0064306  42.9634142  39.4963956  30.7873011  43.3354807
  38.9536572  33.0101943  43.6611986  38.9036012  33.9173269  43.2199478
  38.3147001  32.8376698  44.9326897  38.8588309  32.1875644  45.6178045
  38.1347489  34.2031646  45.5866003  37.4678612  34.8348927  44.9998474
  37.6229095  33.9965415  46.5265131  39.4199967  34.9882984  45.9128666
  39.9572349  35.1398778  44.9766445  39.1078472  36.3817382  46.4342880
  38.4667683  36.3472486  47.3151541  40.0159740  36.9352913  46.6730022
  38.6280227  36.9275045  45.6218767  40.3719282  34.2562079  46.8456125
  39.9473977  34.1935587  47.8475809  40.6179905  33.2584333  46.4822912
  41.2981844  34.8257899  46.7699099  36.9488454  32.0427918  44.8855162
  36.5963006  31.2935567  45.7942533  36.2825871  32.0220065  43.7017488
  36.6821885  32.6472592  43.0165625  35.1879311  31.0485649  43.4109640
  34.3653440  31.1342931  44.1209650  34.5613027  31.4508414  42.0251179
  34.1994977  32.4762082  42.1014071  35.3465414  31.5041375  41.2710190
  33.6072183  30.4719734  41.3744783  33.5200906  30.8683562  40.3628492
  34.1676760  29.5380449  41.3325071  32.2684336  30.2840042  42.1362543
  32.1266246  30.9670615  43.1395388  31.4618421  29.4050288  41.8697882
  35.6623435  29.6131253  43.5656166  35.0631547  28.8124442  44.2370653
  36.7789292  29.2837644  42.9093885  37.2983313  30.0394106  42.4859238
  37.2449875  27.9092097  42.7872467  36.3932657  27.3686624  42.3743534
  38.4547830  27.8205848  41.8777514  39.3329620  28.2644439  42.3466730
  38.7059903  26.7681599  41.7458582  38.2266164  28.4259725  40.4561806
  37.0752358  28.2175016  39.8928261  39.1120887  29.1050243  39.8805523
  37.7223349  27.4075365  44.1709137  37.5798082  26.2038255  44.5348644
  38.2830954  28.3234930  44.9244595  38.4217358  29.2675686  44.5934010
  38.6428142  28.1141520  46.2813377  39.0647912  27.1093321  46.3005781
  39.6604252  29.1682339  46.6696024  39.2134547  30.1601005  46.6024160
  39.9284935  29.0197706  47.7156401  40.9769535  29.0649891  45.8920670
  40.7016516  29.0067148  44.8390198  41.9242001  30.2570558  46.0956287
  41.4112759  31.1750627  45.8088017  42.1947432  30.2662611  47.1514797
  42.8063393  30.1188302  45.4704666  41.8104935  27.8574157  46.4525652
  41.3186026  26.9426537  46.1218834  42.8409910  27.7263331  46.1224270
  41.7011690  27.8031850  47.5357103  37.5090814  28.1072903  47.2948694
  37.5715351  27.3372364  48.2188654  36.4541531  28.8765669  47.0340109
  36.4286995  29.6740484  46.4147568  35.1904154  28.9086676  47.8367138
  35.3400445  29.0076518  48.9118481  34.2929673  30.0520563  47.3307610
  34.8935366  30.8888912  47.6873112  34.2365384  30.1441717  46.2461233
  32.9066086  30.1792550  47.9430056  32.7986407  30.5768180  49.2946339
  33.7354875  30.6897497  49.8199558  31.5699959  30.8567810  49.8999500
  31.5994287  31.2544703  50.9036350  30.4304242  30.4874325  49.0959597
  29.4188309  30.6323433  49.4453669  30.5283403  29.9809980  47.7730942
  29.6250963  29.7962880  47.2105742  31.7503262  29.7938681  47.1798372
  31.7650843  29.5131612  46.1370611  34.4468951  27.5772429  47.7020264
  34.1860318  26.8650556  48.6990261  34.3721437  27.1035743  46.4215755
  34.5725918  27.7870512  45.7054901  33.8204265  25.7218933  46.2190723
  32.9292893  25.7117796  46.8466616  33.4513950  25.5013108  44.7145176
  34.3809414  25.7421875  44.1987419  33.2088661  24.4462633  44.5874119
  32.3783517  26.4427805  44.2467260  31.2842250  26.5818715  44.7314978
  32.7355623  27.1759987  43.1886721  32.1266103  27.9220653  42.8842592
  33.5717130  27.0091724  42.6472664  34.7057438  24.5589972  46.7772484
  34.1175318  23.5702610  47.2252131  36.0327983  24.7731614  46.8986940
  36.3007903  25.6532884  46.4819765  37.0325685  23.7718415  47.5121403
  36.6701269  22.7874327  47.2160292  38.4752035  23.9658570  46.9203281
  38.5014248  23.7364531  45.8550644  38.8053155  24.9975109  47.0420456
  39.4884419  22.9771757  47.4867439  39.1908336  21.5909457  47.5993443
  38.2641530  21.1435962  47.2714090  40.1590157  20.7503510  48.1030846
  39.9035883  19.7105503  48.2443953  41.3744974  21.2008166  48.5910177
  42.0689201  20.5185366  49.0586472  41.6502380  22.5787187  48.5036612
  42.5148344  22.9297590  49.0473890  40.7094431  23.5604048  47.9670334
  41.0003281  24.5837402  47.7810907  36.8518567  23.8506079  49.0900946
  37.1519351  22.9432201  49.8504877  36.5254641  25.0814795  49.6167994
  36.4068747  25.8569860  48.9806986  36.2280107  25.2893090  51.0383368
  36.7119265  24.5140505  51.6323853  36.8151069  26.5982723  51.4930534
  36.5602231  27.3635340  50.7599020  36.4465261  26.8840694  52.4782276
  38.5683465  26.3928294  51.6570997  38.6054349  26.0023046  50.3799868
  34.7065449  25.1692915  51.3607836  34.1786480  25.6180501  52.3794317
  34.0160990  24.3924689  50.4933643  34.5883346  23.9428592  49.7930050
  32.6978850  23.8874292  50.7102060  32.3875785  23.4767747  49.7493887
  32.7485967  22.9456878  51.9406939  32.6523423  23.5438251  52.8468275
  32.0517135  22.1076107  51.9496202  34.0210414  22.2415972  51.9854784
  34.0997791  21.5240979  51.3525486  31.6837645  25.0048375  50.9476233
  30.6705618  24.8621178  51.6995716  31.8838239  26.1365414  50.2302742
  32.8341436  26.1911798  49.8926258  31.0164118  27.3511314  50.2212000
  31.4490199  28.0887270  49.5452547  29.6151090  27.0283818  49.7656870
  29.2354298  26.2354946  50.4101038  28.9557981  27.8937244  49.8334408
  29.6664047  26.5697312  48.3132124  30.3679466  27.1057892  47.6740026
  30.0384283  25.5454731  48.2888269  28.3068085  26.5241480  47.7547979
  27.5482082  26.0364175  48.3669615  27.9473639  27.5502777  47.6776361
  28.1443071  25.8922935  46.3843584  28.6900258  26.3701940  45.6815767
  27.3482776  24.8455811  46.0490036  26.7570162  24.1573024  46.9587803
  26.7361140  24.5051956  47.9067421  26.3682961  23.2799673  46.6436958
  27.3256564  24.4096398  44.8216581  27.7309299  24.8984456  44.0362120
  26.6875863  23.6703801  44.5638561  30.9815025  28.1188798  51.5166283
  30.2124000  29.0363407  51.7008495  32.0731759  27.9632521  52.3613548
  32.7503872  27.2761559  52.0623875  32.3620152  28.9615798  53.3956003
  32.0639014  29.9354815  53.0073452  31.5143442  28.7333202  54.6615028
  30.4951763  29.0431190  54.4303656  31.6819549  27.6837301  54.9030876
  32.0369172  29.6544123  55.8392382  33.0369997  29.3746781  56.1704302
  32.0051289  30.6546593  55.4072666  31.2040329  29.6914363  57.1092367
  30.2821016  30.2106285  56.8473577  30.9417963  28.7208748  57.5303602
  31.9040537  30.5036426  58.1158066  32.8393936  30.8697581  58.0099773
  31.3769984  30.7622886  59.2840195  30.2453732  30.2790761  59.7178650
  29.6022654  29.8231888  59.0864515  29.9073005  30.5501270  60.6301928
  32.0804977  31.4584684  60.1033354  32.9326248  31.8622136  59.7414398
  31.6813111  31.7776108  60.9744835  33.8680172  29.0638232  53.8177872
  34.4651866  28.0595803  54.0907764  34.3645453  30.3271317  53.8883448
  33.7965035  31.1443591  53.7163734  35.7252860  30.4888511  54.3574142
  36.3318348  29.5968938  54.2005444  36.4438891  31.6993880  53.6548424
  35.8079386  32.5795531  53.7495995  37.4199224  31.6946888  54.1400623
  36.7395020  31.4496422  52.1244383  37.3459768  30.2477598  51.7477846
  37.5195694  29.4938540  52.5013733  37.8148699  30.0078487  50.4527330
  38.2828379  29.0830231  50.1492500  37.5288081  30.9708309  49.4800663
  37.8622198  30.8147883  48.4647417  36.8618941  32.1614194  49.8235130
  36.8035245  32.8460455  48.9902735  36.5888453  32.4826288  51.1887836
  36.2356329  33.4639645  51.4691830  35.7308650  30.7746434  55.8676291
  34.6591520  31.2236094  56.3484240  36.8419051  30.5960155  56.5795088
  37.6531386  30.1866221  56.1386061  37.0573783  31.3226819  57.8510571
  36.2150526  31.1276007  58.5147905  38.3325863  30.8384943  58.5281277
  38.4256554  31.4269495  59.4409037  38.2638168  29.3865228  58.9603090
  37.4625087  29.2937732  59.6933889  38.1565642  28.8624811  58.0105829
  39.2687798  29.1110468  59.2800999  39.5116186  31.2466049  57.7743626
  39.5712829  30.7033515  56.9851112  37.0210385  32.8375006  57.7111721
  37.4317789  33.4683728  56.7184639  36.5344477  33.5474658  58.7576056
  36.1215043  33.0628586  59.5416594  36.5317869  35.0006366  58.8576460
  35.8678031  35.4637265  58.1277275  35.9035468  35.2916408  60.2052069
  34.9209237  34.8255110  60.2778292  36.5740514  34.8473835  60.9408426
  35.7097363  36.7348766  60.5988455  35.1174021  36.6644597  61.5111399
  36.5835690  37.2990990  60.9246826  34.7150183  37.7798295  59.4239902
  33.1863832  36.8491602  59.3730164  32.7322054  36.8138933  60.3632593
  32.4822927  37.1982098  58.6176825  33.4642315  35.8637524  58.9990187
  37.9146743  35.6641006  58.6524200  38.0314803  36.5980649  57.9221582
  38.9682436  35.0392056  59.3054056  38.8025904  34.2864203  59.9580765
  40.4007435  35.3604007  59.0546942  40.6246185  36.3740134  59.3872261
  41.3027430  34.3485427  59.6888161  41.2169981  34.3594766  60.7753849
  41.1048508  33.3573604  59.2807722  42.7994967  34.6355534  59.4442701
  42.9595232  34.4613576  58.3802462  43.0096245  35.6972241  59.5739174
  43.9021778  33.8608241  60.2882862  43.7778473  34.1551781  61.3303947
  43.7236309  32.7855754  60.2961874  45.2428770  34.2331076  59.7761059
  45.2920246  34.0210795  58.7080574  45.3764725  35.3147078  59.7562456
  46.2927055  33.5382247  60.5281878  46.2990856  33.8187313  61.4984369
  46.0694170  32.5575089  60.4363108  47.2279835  33.6136627  60.1544619
  40.7836103  35.4289865  57.5356579  41.2523317  36.4743805  57.0114422
  40.4769659  34.3786454  56.7083168  40.1816845  33.5294938  57.1685886
  40.5574131  34.3449450  55.2434969  41.5825319  34.6044540  54.9791384
  40.1809263  32.9703140  54.5731783  39.2593527  32.6229501  55.0402355
  40.1597548  32.7934670  53.0820847  39.2607737  33.2723379  52.6940012
  41.0094786  33.3034229  52.6281977  40.1742983  31.7203927  52.8912926
  41.1429930  32.0447683  54.9792290  40.5995035  31.3067031  55.2646875
  39.8000431  35.4807138  54.4800377  40.4309416  36.2763929  53.8241100
  38.5110974  35.8141685  54.8609209  37.9765558  35.2832699  55.5336094
  37.8420091  37.0460105  54.3097496  38.0166006  36.9577980  53.2374430
  36.4199257  37.2252750  54.6178293  36.1810660  37.3627090  55.6724215
  35.6924415  38.3329391  53.7594318  36.0547066  39.2668867  54.1890860
  36.0249329  38.3436942  52.7214336  34.6266365  38.5031986  53.9116478
  35.6031251  35.9161353  54.2158031  35.5940461  35.7619095  53.1368065
  35.8468056  34.9749160  54.7085762  34.5483446  35.8698344  54.4867182
  38.5440898  38.3371043  54.6628094  38.8598657  39.0892744  53.7741852
  38.9786077  38.4585047  55.8942604  38.7913179  37.6974869  56.5313435
  39.7296786  39.6759415  56.3753605  39.1091561  40.4733229  55.9664106
  39.6312761  39.7527027  57.9064369  40.1932573  38.8914514  58.2677174
  40.1845837  40.6634283  58.1356192  38.2330942  39.7297359  58.6025667
  37.7300286  38.8181567  58.2800007  38.3127761  39.8412132  60.0814724
  38.8499165  40.7210779  60.4356241  37.2962666  39.9346232  60.4636812
  38.7105060  38.9325380  60.5333757  37.4282312  40.8971071  57.9950953
  37.0185971  40.6213236  57.0233727  36.5407276  41.0020733  58.6191320
  38.0347633  41.7880297  58.1578207  41.1554956  39.8395348  55.7615900
  41.3918877  40.9918451  55.4319048  41.9736671  38.7955213  55.5640507
  41.7437029  37.9318666  56.0344982  43.2524538  38.9623761  54.8130798
  43.7506390  39.8091197  55.2852488  44.2857409  37.8172517  54.9962759
  43.9382744  36.9077945  54.5061159  45.2033615  38.0679321  54.4640779
  44.6567249  37.2938967  56.4499092  45.0344181  38.1485200  57.0112133
  43.7973022  36.8270731  56.9311333  45.9599829  35.9608698  56.5166616
  45.0688028  34.6402073  55.7696009  45.3879690  33.6684847  56.1464167
  44.0024710  34.7224808  55.9800196  45.2540493  34.5882201  54.6967173
  43.0322266  39.3105841  53.2674837  43.9118052  39.9068093  52.7121305
  41.9166374  38.8601685  52.7145767  41.3345766  38.1965423  53.2053947
  41.5432358  39.0682364  51.3647747  42.4608517  39.0820789  50.7766533
  40.5622578  37.9845858  50.8121920  39.7190428  37.9912925  51.5028763
  40.2027750  38.3652759  49.8561811  41.1203766  36.5714622  50.6626987
  41.7188835  36.3561082  51.5478611  39.9887419  35.5743909  50.5622625
  39.4019270  35.7918835  49.6698236  40.4111147  34.5703101  50.5231285
  39.3950462  35.6969166  51.4681387  41.9989014  36.4920902  49.3884087
  42.4484587  35.4991174  49.3890476  41.3362646  36.4151669  48.5263777
  42.6810169  37.3286152  49.2365837  41.0983944  40.5157185  51.1335421
  41.4762831  41.1784124  50.1512098  40.2209091  40.9911203  52.0212746
  40.0624800  40.3650856  52.7978563  39.6381140  42.3602486  52.0666313
  38.8534069  42.3914099  51.3107443  39.0010881  42.7110434  53.4570074
  38.2121348  41.9879675  53.6638975  39.7672582  42.6338673  54.2284536
  38.5625744  43.7078762  53.4107351  40.6564569  43.5177040  51.5391541
  40.3104973  44.2723083  50.6329393  41.7868042  43.5771513  52.2308540
  42.0038939  42.8070927  52.8472900  42.8074884  44.5965433  52.0414400
  42.3706341  45.5764198  52.2340536  43.9046240  44.2484379  53.0354452
  43.5048962  43.6503315  53.8543415  44.6956873  43.6359453  52.6028156
  44.6465015  45.4217291  53.5750628  45.8936977  45.5954599  53.2427502
  44.0550852  46.2280560  54.3144131  43.3043146  44.5541048  50.6054783
  43.2223272  45.5711651  49.9212885  43.6306190  43.3858490  50.0514793
  43.5123396  42.5551939  50.6137228  44.0008926  43.2227373  48.7059021
  44.8407602  43.8978815  48.5418749  44.6038723  41.8949032  48.3223963
  43.8865566  41.0744524  48.3431435  44.9477339  42.0333338  47.2973633
  45.8916616  41.5274382  49.1044426  46.5484095  42.3968840  49.0753937
  45.6116676  41.0217285  50.0285435  46.7200613  40.4391575  48.3459854
  47.0584202  40.5605698  47.1636200  47.1739864  39.4091654  49.0305281
  47.8751373  38.8220501  48.6018276  47.0003366  39.2723799  50.0160408
  42.9034519  43.5443544  47.6910782  43.1342936  44.3161154  46.7827892
  41.6867495  42.9676151  47.8957605  41.4755726  42.4925566  48.7616873
  40.5112314  43.2594490  46.9811058  40.7127714  42.9011154  45.9716082
  39.2507386  42.5466871  47.4708128  39.0067697  42.8510809  48.4886169
  38.4038091  42.8085136  46.8365765  39.3551421  40.9691048  47.3217249
  39.6434689  40.7908487  46.2857771  40.1713753  40.5428410  47.9049587
  37.8193092  40.0213480  47.6028728  37.2803426  40.5487967  49.3246794
  36.4437413  39.9224091  49.6342564  38.1454921  40.5978060  49.9858999
  37.0091510  41.6032839  49.2734814  40.3096485  44.7851419  46.7390823
  40.1445293  45.2510881  45.6764841  40.2195120  45.6120539  47.8502893
  40.3329897  45.1650286  48.7488413  40.1647711  47.0144081  47.8790760
  39.1979003  47.3536968  47.5073862  40.1763725  47.4025059  49.3739319
  40.9376478  46.8362188  49.9104786  40.3585386  48.9457321  49.6084023
  40.0904703  49.2319489  50.6254148  41.3921404  49.2529154  49.4489861
  39.7396469  49.5207644  48.9196253  38.7932110  46.9943476  50.0345659
  37.9506397  47.5380850  49.6073389  38.6011434  45.9501457  49.7878838
  38.6756992  47.0344496  51.5493917  38.2230449  47.9494047  51.9315720
  38.0250406  46.1946297  51.7932034  39.5950842  46.8670845  52.1104765
  41.3060284  47.7391768  47.1868610  41.1083031  48.6275148  46.3257885
  42.4978113  47.4323511  47.4803066  42.6374578  46.7970133  48.2529259
  43.6831236  48.0938101  46.8526173  43.5831022  49.1628456  47.0404243
  44.9190617  47.6487827  47.5542593  44.8275089  46.6109896  47.2337818
  45.8239651  48.0932903  47.1399403  44.8400593  47.7817678  48.9314127
  45.2341318  47.0666838  49.4363546  43.7652636  47.8115129  45.3348589
  44.1463900  48.6817217  44.5808125  43.4370375  46.5637493  44.8890543
  42.9641819  45.8868837  45.4707432  43.2055902  46.3557386  43.4414196
  44.1204596  46.5560722  42.8837633  42.7118874  44.9440718  43.0948925
  41.6999912  44.7838211  43.4670305  42.6232433  44.8281336  42.0147085
  43.6071873  43.7513351  43.4793663  43.6822701  43.7699270  44.5666218
  43.1253767  42.8078365  43.2229042  45.0320625  43.7740564  42.9053640
  45.2677250  42.7123070  42.8329039  44.8991776  44.1943216  41.9084549
  45.9867525  44.6426105  43.6869431  45.8946228  45.6429672  43.5825300
  46.9342518  44.2117834  44.4648361  47.2931767  42.9475164  44.7107553
  46.8018627  42.2158909  44.2173576  47.8583622  42.7271986  45.5182981
  47.5820112  45.0769567  45.1294041  47.2368860  46.0133028  44.9736977
  48.1916237  44.7883558  45.8811903  42.2731876  47.3294640  42.7823257
  42.5741577  47.8629160  41.7332554  41.1587858  47.6751137  43.4462404
  41.0748529  47.3061037  44.3826628  40.1633787  48.6549425  43.0010843
  39.8969150  48.4628677  41.9617558  38.8445568  48.4325933  43.8555288
  39.2698669  48.1319761  44.8130512  37.9756522  49.6425867  43.9660597
  37.1902990  49.4450092  44.6956444  38.4089231  50.5519485  44.3825150
  37.5995922  50.0171232  43.0140114  38.0894136  47.2184610  43.2689667
  37.8349590  47.3010874  42.2123098  38.8241911  46.4267921  43.4155035
  36.9662523  46.8134499  44.1607428  36.0614157  47.4161148  44.0821934
  36.7077470  45.7863331  43.9032555  37.1489215  46.9389439  45.2279806
  40.7515764  50.0582600  42.9805565  40.7935905  50.8705616  42.0096874
  41.3641691  50.4731321  44.0439701  41.3750505  49.8354292  44.8271132
  42.0212746  51.7999983  44.3349934  41.3160229  52.5983191  44.5660877
  42.8217459  51.6123629  45.6401539  42.2204638  51.0664415  46.3671541
  43.7031221  51.0351515  45.3606844  43.1573391  53.0117178  46.1945009
  43.5802937  53.6256790  45.3993511  42.2078228  53.4998274  46.4142084
  44.0317583  53.0408096  47.4598742  44.7842407  52.0502234  47.6866913
  43.8910675  53.9551973  48.2930708  42.9630136  52.2420502  43.1648159
  42.9687929  53.3902550  42.7102518  43.7516356  51.2605810  42.6485538
  43.6729574  50.3220987  43.0134630  44.7235346  51.3956308  41.5858126
  45.1978636  52.3663473  41.7301178  45.8415270  50.3650904  41.5549660
  46.4256811  50.5570221  42.4549818  45.4132414  49.3645000  41.4959049
  46.7285395  50.6248713  40.3556919  47.8335142  51.5202141  40.4132700
  48.1503630  51.9752359  41.3400698  48.5679150  51.8065882  39.2700315
  49.4933176  52.3151636  39.4967079  48.1937599  51.3399267  38.0244470
  48.9018679  51.5720463  36.9037414  48.8554525  50.7996750  36.3355088
  47.1528530  50.4597664  37.9345179  46.9053125  50.1184225  36.9402289
  46.4425802  50.1262236  39.0644240  45.6527138  49.3900919  39.0395355
  44.0481424  51.6315126  40.2172184  44.2798233  52.6828766  39.6122766
  43.0654335  50.7634211  39.9207664  42.9715395  49.9522543  40.5151510
  42.1916437  50.9062958  38.7525249  42.8232908  50.8516026  37.8658843
  41.2243128  49.6769667  38.7209702  40.5928326  49.5964146  39.6057558
  40.2858353  49.7670507  37.4602818  40.7102442  50.4383707  36.7137504
  40.1571798  48.7633705  37.0550990  39.3464351  50.2281427  37.7652836
  42.0585680  48.3952808  38.5653424  42.4449110  48.3353853  37.5478673
  42.9131651  48.3641052  39.2412043  41.4063740  47.5303030  38.6860347
  41.4225245  52.1779728  38.6820936  41.4044714  52.8265667  37.6487303
  40.8973789  52.6163483  39.8050022  41.0090971  52.0198250  40.6123304
  40.2002382  53.8489294  40.0612354  39.3956161  53.9888573  39.3393636
  39.4946718  53.7300539  41.3380289  40.0855255  53.1863403  42.0751619
  39.2966747  54.7232723  41.7410374  38.2071877  52.9794979  41.3965654
  37.3579359  53.0279016  42.5271416  36.3567400  52.1629620  42.2278261
  35.5087399  51.9143105  42.8486967  36.6135097  51.5972996  41.0670805
  35.9494853  50.9633112  40.6460905  37.6912141  52.1295881  40.4842615
  38.0821633  51.8887615  39.5067334  41.0530186  55.2116299  39.9411559
  40.6379843  56.2111330  39.3777514  42.2401905  55.1705551  40.5230331
  42.5356722  54.2663383  40.8624315  43.2524776  56.2209988  40.3125525
  42.7523327  57.1769333  40.4679346  44.2715836  56.1605024  41.4539385
  45.0417089  56.8988800  41.2307692  43.8230085  56.5786839  42.8781366
  42.8155184  56.1642265  42.9140472  44.4358778  56.2232161  43.7064743
  43.6742306  57.6557875  42.9543877  44.8766708  54.8969507  41.4015150
  44.1759920  54.4262457  41.8587732  43.8239527  56.2967634  38.8776898
  44.2123652  57.3310137  38.3887458  43.7164450  55.2097797  38.1270742
  43.4509802  54.3369150  38.5603547  43.9722586  55.1372719  36.7095160
  44.7604990  55.8820724  36.5997434  44.4925928  53.7403393  36.3516068
  44.9643803  53.1767607  37.1565270  43.6526918  53.1659842  35.9607363
  45.4845905  53.7908792  35.1806021  45.8351994  52.7927446  34.9181032
  44.8588133  54.0990543  34.3430257  46.6982031  54.6242857  35.4637790
  46.5804625  55.6568432  35.1350570  46.9299650  54.5194960  36.5236855
  47.8662395  54.0297222  34.7220635  47.8239441  52.9474545  34.8445463
  47.7834129  54.2052126  33.6494756  49.2307472  54.4200087  35.0934982
  49.3897533  55.4159737  35.0398898  49.3977261  54.0738583  36.0275197
  49.8478937  53.8987207  34.4872880  42.7924156  55.6845617  35.8299160
  42.9092550  55.7180882  34.6386766  41.6545677  56.1003971  36.4520574
  41.6501236  56.2148190  37.4555445  40.4796886  56.6315603  35.7273340
  39.8425388  57.0360804  36.5137815  40.8907604  57.7172327  34.7001386
  41.3542557  57.2678089  33.8219070  40.1077509  58.3459616  34.2762232
  41.7762852  58.7496424  35.3868389  41.4474869  59.0930319  36.5297675
  42.8159809  59.2918682  34.8260760  43.4019327  59.9206972  35.3564906
  42.9183149  59.0407848  33.8531494  39.6068740  55.5946445  35.1290226
  38.7788630  55.9561729  34.2822933  39.7480917  54.3537474  35.5611968
  40.3814459  54.0996170  36.3057637  38.9590907  53.2668304  35.0132871
  38.3422875  53.6450100  34.1980338  39.8309827  52.2601318  34.2487645
  40.6801605  51.9484949  34.8569465  39.2295980  51.3853931  34.0012312
  40.4388666  52.8413773  32.9889178  41.6344500  53.4813356  33.1076241
  42.1324730  53.3856153  34.0611482  42.0944309  54.2497110  32.0436287
  43.0469179  54.7525263  32.1233368  41.3983631  54.2886066  30.7857084
  41.8202734  54.8878431  29.9924207  40.1983166  53.5762072  30.6553197
  39.5487070  53.5546494  29.7927952  39.6428561  52.9216433  31.8222165
  38.7235379  52.3786879  31.6595721  38.0428290  52.6038885  36.0854602
  38.4400606  52.4682856  37.2400117  36.8837500  52.1704483  35.6451535
  36.6025329  52.5192833  34.7399831  35.9953785  51.2960386  36.4442325
  36.5094733  51.0261726  37.3667192  34.6925139  52.0196676  36.9234705
  34.1767836  51.2988234  37.5579071  35.0216055  53.1990623  37.9106808
  34.2966056  53.2593489  38.7223721  36.0063219  53.1363297  38.3738303
  34.8660088  54.1152906  37.3411036  33.7422538  52.3864746  35.7414937
  34.2517400  53.1321335  35.1311541  33.5524440  51.5463638  35.0734472
  32.3546886  52.8463602  36.1805367  31.8012333  52.8631258  35.2416468
  31.8246913  52.0849466  36.7527676  32.3257828  53.8242245  36.6612172
  35.7628250  49.9630451  35.7773948  35.7859564  49.7721672  34.5556116
  35.3721356  48.9484024  36.5699506  35.3212523  49.1752672  37.5528288
  35.2052426  47.5095510  36.1239934  35.8993268  47.3250294  35.3040552
  35.6860113  46.6175270  37.2691154  36.6758227  46.9384241  37.5937653
  35.1012230  46.7849493  38.1735992  35.7941008  45.1529837  36.9851041
  34.6232343  44.4006348  36.8254423  35.0494051  43.1284618  36.5617013
  34.4460058  42.2470808  36.4021015  36.4188695  43.0139637  36.7480707
  36.9758415  42.1790028  36.6352725  36.8373132  44.3091822  36.9913745
  37.8134155  44.6638489  37.2877407  33.6926508  47.3740768  35.7447147
  33.3847141  46.9910383  34.6130562  32.7752399  47.4943352  36.7427039
  33.0244398  47.8553534  37.6524663  31.2935257  47.3925304  36.7055559
  31.0636687  48.0518866  37.5425220  30.6078243  48.0751801  35.5281138
  30.8794069  47.5277185  34.6255469  29.5321608  48.0824900  35.7041621
  30.9818387  49.5702410  35.2967167  31.0661077  50.1777220  36.1978078
  32.0219159  49.7135210  35.0037861  30.2056384  50.3671360  34.2051959
  29.1318440  50.3103685  34.3836427  30.5439210  51.4013386  34.1412091
  30.5207562  49.8458672  32.8969312  31.1943173  49.1000414  32.7961254
  29.8891664  50.2162313  31.7621803  28.8756847  51.0844851  31.7224264
  28.5148597  51.5497208  32.5430751  28.3524609  51.1594629  30.8617783
  30.2601719  49.7206879  30.5595136  31.0243487  49.0801525  30.3987312
  29.6282911  50.0394630  29.8389506  30.7350945  45.9670925  36.9576216
  29.5185065  45.7614279  37.0137978  31.6245103  44.9739838  36.9722533
  32.5931358  45.2594471  36.9529104  31.3304210  43.5510445  36.9036150
  30.3035617  43.4578753  37.2571397  31.2671471  43.1269932  35.3663015
  30.9255075  43.9312887  34.7147727  32.2789741  42.8156328  35.1067519
  30.4936457  41.8773746  35.1425743  29.4411087  41.6566658  35.7859635
  30.9300423  41.1665154  34.2494082  32.0630693  42.6297331  37.8502083
  32.3264599  41.4747810  37.5177574  32.4195933  43.0856848  39.0571856
  32.1746778  44.0453100  39.2552614  33.1212282  42.4775171  40.1163816
  33.9835620  41.9644403  39.6906614  33.5965085  43.5727501  41.1067867
  32.7245784  44.2002487  41.2914085  34.0448546  43.0437326  42.5208044
  34.5398521  43.8865852  43.0031776  33.1605458  42.7039385  43.0599165
  34.8341656  42.3152447  42.3353529  34.7805333  44.3644619  40.4641008
  35.6656957  43.7285423  40.4499722  34.3589640  44.5998287  39.4868684
  35.1502919  45.6903505  41.1241961  35.9334278  46.1795902  40.5450201
  34.2753315  46.3399220  41.0994577  35.5667353  45.7236147  42.1309566
  32.3431134  41.3093042  40.7670355  31.2552857  41.5194273  41.2846422
  32.8178167  40.0099564  40.6228733  33.6708498  39.9290705  40.0881815
  32.1736884  38.7329197  41.0314131  31.2468600  38.9936399  41.5424109
  31.6839790  37.8625917  39.8358870  32.5711966  37.6082397  39.2560172
  31.2229514  36.8929553  40.0239277  30.6618142  38.5883451  38.9386702
  29.7389221  38.7042093  39.5069599  31.0241008  39.6007419  38.7600660
  30.4362822  37.7655602  37.5957632  30.0568748  36.7579865  37.7659011
  29.6154094  38.2710338  37.0870757  31.6818309  37.7262592  36.6483808
  32.4461675  37.1680975  37.1890736  31.4376640  37.1386933  35.7633662
  32.0574284  39.0927410  36.1864805  32.6687694  38.9919591  35.3888583
  31.3138628  39.7266316  35.9307694  32.5275064  39.5800161  36.9359422
  33.2179832  38.0006218  41.8238354  34.3796206  38.4077835  41.7665291
  32.8149962  36.9202638  42.5449753  31.4936757  36.4885712  42.8572559
  31.0598183  36.0013056  41.9840813  30.8673573  37.3500276  43.0890465
  31.5603924  35.6360364  44.1160011  30.8808184  34.7891331  44.0209770
  31.3905454  36.2921572  44.9696732  33.0540514  35.1421762  44.0709877
  33.0693913  34.1628170  43.5927439  33.4669018  35.2176452  45.0769472
  33.8408542  36.0794663  43.2059622  34.4441652  36.6284513  43.9289713
  34.8423505  35.3694987  42.2711039  35.9786868  35.1011348  42.6526165
  34.4968104  35.0886178  40.9981251  33.5397053  35.2637744  40.7272625
  35.4692698  34.6166420  40.0001097  36.1602783  33.9371896  40.4990625
  34.6741247  33.7965941  39.0506172  35.3927493  33.3662510  38.3531332
  34.0075564  33.0446744  39.4730020  33.7619305  34.6491694  38.1835413
  32.8135824  35.3138781  38.6884284  33.9757776  34.6090913  36.9440603
  36.4168954  35.6756854  39.3714261  37.3823977  35.2655101  38.7631965
  36.2181091  36.9412756  39.6262026  35.3397322  37.1209908  40.0912380
  37.0789170  38.0760765  39.1152096  37.2583055  37.8653812  38.0609202
  36.4275384  39.4478130  39.1716814  35.8442163  39.5307279  40.0887251
  37.1862650  40.2297497  39.1399288  35.5600739  39.6161342  37.9672885
  34.3470359  39.4456267  38.0676103  36.1084604  40.0099516  36.8271041
  35.5176234  39.9974537  36.0080481  37.1098232  39.9711871  36.7011404
  38.5037017  38.1967688  39.7528911  39.4363189  38.6903501  39.0838289
  38.6884737  37.8667045  41.0287333  37.9755759  37.3313713  41.5033913
  40.0181913  37.8958845  41.6180563  40.6390047  38.7015820  41.2262106
  39.9762678  38.3116937  43.0421114  39.4411445  37.5261211  43.5756111
  41.0473204  38.3285046  43.2437611  39.3829656  39.6534991  43.3536577
  40.1570797  40.7709932  43.4754848  41.2349796  40.7612658  43.4089279
  39.6158099  42.0319939  43.6961937  40.1809597  42.9408836  43.8408566
  38.2076788  42.2236156  43.7759447  37.6815891  43.1404161  43.9975452
  37.3929167  41.0739088  43.7079000  36.3398862  41.0915756  43.9471006
  38.0057025  39.7955966  43.5494709  37.3606372  38.9295387  43.5339975
  40.6937170  36.5116954  41.5473938  40.0186348  35.5817461  42.0243979
  41.9008684  36.3503313  40.9003925  42.4399710  37.1747780  40.6773138
  42.6757860  35.0553679  40.9061480  42.0259190  34.2796111  41.3110971
  43.0818510  34.6978402  39.5098805  43.3487225  35.6064510  38.9701533
  43.9292574  34.0294123  39.6622133  42.1076584  34.0085030  38.6096001
  41.7119980  33.0731559  39.0054250  40.8372259  34.7758102  38.3526826
  41.1821175  35.7391572  37.9770303  40.2704334  34.3761826  37.5117612
  40.2098370  34.9202156  39.2322469  42.6783371  33.6781979  37.2596431
  43.5502005  33.0283093  37.3344827  41.9655991  33.1108332  36.6611409
  43.0692816  34.5554018  36.7441106  43.9039803  35.2758312  41.7804241
  44.6282387  36.2471771  41.7333841  44.1081619  34.1282344  42.4964762
  43.5084343  33.3455563  42.2777462  45.4415894  33.8755298  43.0828857
  45.5917501  34.7685266  43.6896086  45.5408859  32.6535225  43.9529037
  45.5193233  31.7099690  43.4076166  46.4684296  32.7279592  44.5205545
  44.4808578  32.5980949  45.0587988  43.5282803  32.7644730  44.5557928
  44.4721127  31.6292167  45.5580950  44.5557070  33.9353943  46.2511396
  46.0926247  33.5834885  47.1066141  45.9232044  32.6876831  47.7040625
  46.8344116  33.3090425  46.3565922  46.4009476  34.4485545  47.6937246
  46.6054440  33.8700747  42.0678282  46.5304089  33.1170583  41.0736990
  47.7801037  34.5330405  42.3947001  47.6958323  35.2793407  43.0700016
  49.0570116  34.3216228  41.7443419  48.8493776  34.4278789  40.6795883
  49.6869421  35.1380634  42.0974874  49.5966625  32.8831244  42.0521212
  48.9938736  32.0820212  42.7779198  50.7204294  32.6434708  41.4487886
  51.1111450  33.3587956  40.8523369  51.4802217  31.4202499  41.6615057
  51.1959171  30.8586311  42.5513697  51.2209845  30.4001284  40.5308867
  51.8825769  29.5419765  40.6490803  49.7646618  29.8903394  40.6629562
  49.6084738  29.8374844  41.7404175  49.1026592  30.6570530  40.2604532
  49.4982100  28.9429379  40.1944113  51.5275192  30.8875465  39.0445447
  51.1897087  31.8998265  38.8225651  52.5992823  30.9143615  38.8478017
  50.9310484  30.0205994  37.9598331  49.8482752  30.0120354  38.0848646
  51.1706495  30.4457116  36.9851685  51.4267826  29.0578508  38.0841589
  52.9906559  31.5323973  41.7955399  53.4820604  32.6123071  41.5099955
  53.6885786  30.4668093  42.2598124  53.1824589  29.6249032  42.4946165
  55.2277470  30.3378820  42.2727013  55.5055618  29.3397689  42.6113605
  55.5463266  30.4716539  41.2389135  55.7615376  31.4125037  43.2262468
  55.2647400  31.4927053  44.3631411  56.7428875  32.1781635  42.8135061
  56.9633484  31.9627380  41.8516874  57.2977924  33.2821989  43.5009813
  57.7497292  32.8724360  44.4042778  58.4000635  33.9793277  42.6489019
  58.0032539  34.3560076  41.7061663  58.7413502  34.9414277  43.0309916
  59.6222639  33.0647135  42.3099279  59.3489170  32.0865440  41.9142485
  60.2201891  33.5383177  41.5312862  60.4958773  32.7531362  43.5214090
  61.3935661  32.2939134  43.1074381  60.8437586  33.6811924  43.9750528
  59.9888754  31.7358422  44.4285822  59.0565395  31.3759065  44.2826509
  60.5299568  31.3847733  45.6119537  61.8036699  31.6536593  45.8862972
  62.3308420  32.2002888  45.2204227  62.2127438  31.3646841  46.7633677
  59.8056984  30.7704854  46.5282393  58.8178158  30.6103325  46.3920975
  60.1725578  30.6847095  47.4653387  56.2255573  34.2935658  43.9094162
  56.4988804  35.0397539  44.8276138  55.0468206  34.4194412  43.2613230
  54.8183107  33.7282825  42.5611925  54.1166115  35.5593467  43.3946562
  54.5520353  36.3028336  44.0622854  53.9172125  36.1751151  41.9902325
  53.7016916  35.4059863  41.2485552  53.1897116  36.9846320  41.9308949
  55.1916504  36.8903971  41.4742422  55.6273317  38.1198573  41.9283581
  56.8604136  38.3326674  41.4342308  57.4949408  39.1796446  41.6496754
  57.2911787  37.2707605  40.7248735  58.1839466  37.1071506  40.2818203
  56.2239695  36.3873601  40.7696247  56.2521839  35.3733969  40.3988409
  52.7836895  34.9986839  43.9579439  51.8229151  35.7894993  44.0527153
  52.7527380  33.8479447  44.6421623  53.5343409  33.2200813  44.5197248
  51.6147804  33.2004356  45.2479458  50.8920050  32.9709435  44.4649839
  52.0648861  31.8777776  45.7046080  51.1956024  31.4088058  46.1655951
  52.3351812  31.2580752  44.8496151  53.2370615  31.8319893  47.0099449
  54.2800999  31.8182373  46.1752081  50.8656073  33.8814569  46.3455486
  49.7133207  33.4585571  46.6661024  51.4518213  34.9480367  46.9186878
  52.3939610  35.2153277  46.6716528  50.7447433  35.7492495  47.9693174
  49.9474907  35.2178764  48.4890556  51.8262672  36.0555720  49.0776014
  52.7394485  36.4772606  48.6576319  51.3998938  36.7981410  49.7520638
  52.1611595  34.8155117  49.8569727  51.5165758  33.7537122  49.8354721
  53.1646490  34.7909975  50.7202959  53.2294035  33.9244366  51.2350512
  53.7240934  35.6047845  50.9321260  50.1095533  37.0262098  47.3843479
  49.5157862  37.7967739  48.1135607  50.1568174  37.1872449  46.0770798
  50.7351923  36.5419245  45.5582857  49.3896389  38.2121921  45.3678131
  49.1265059  38.9956164  46.0785294  50.2645159  38.7904668  44.2108011
  50.4674053  37.9650068  43.5284901  49.7336769  39.5753360  43.6720133
  51.5851021  39.4274473  44.6699476  51.4900398  40.2770376  45.3461599
  52.1917295  38.6965203  45.2046013  52.4261189  39.8531079  43.5416031
  52.5765800  38.9819741  42.9039621  51.8967056  40.6190300  42.9748678
  53.8138628  40.3375435  43.9696693  53.7052536  41.1477947  44.6906376
  54.4559765  39.5736742  44.4081879  54.6162224  40.8169317  42.8146601
  55.6067276  40.9221935  42.9817486  54.6146059  40.1372671  42.0675611
  54.2600155  41.6543531  42.3765469  48.0398893  37.7458072  44.7966242
  47.9915762  36.8357873  43.9285564  46.9266605  38.2834148  45.3107119
  47.0019722  38.9564276  46.0600376  45.6383801  38.1986952  44.6957254
  45.3157091  37.2024274  44.3933439  44.5881701  38.6200953  45.7891369
  44.7819185  38.0388117  46.6906214  44.7934580  39.6531081  46.0699272
  43.1725264  38.4944725  45.1738882  43.1037235  39.0449905  44.2356443
  42.5979376  37.0711470  44.9600887  41.5157270  37.1600032  44.8651409
  42.8824949  36.5712237  44.0342379  42.8859806  36.4409661  45.8015108
  42.3558283  39.1196299  46.2906551  42.4421787  38.4905958  47.1766329
  42.5774050  40.1752520  46.4477205  41.3201380  39.1377544  45.9513617
  45.6742620  39.1901708  43.5335779  45.8368254  40.4132414  43.7352324
  45.5338049  38.7680149  42.2645378  45.5095863  37.7676344  42.1275949
  45.2431488  39.5377111  41.0756063  45.6291246  40.5399466  41.2617397
  45.7607651  38.8988161  39.7514248  45.1956844  37.9758167  39.6216035
  45.5245256  39.6715188  39.0198374  47.2331524  38.6921573  39.6772313
  47.8958845  37.8715873  40.6037712  47.3512888  37.2935033  41.3356400
  49.2896700  37.8221774  40.5746412  49.9514818  37.3195696  41.2644196
  49.9826241  38.5008097  39.5335293  51.0462809  38.3264160  39.4655275
  49.3137598  39.3155026  38.6155558  49.8036718  39.8092246  37.7893448
  47.8927565  39.4143844  38.6889648  47.4049091  39.9694800  37.9013896
  43.7310219  39.8108149  40.9359026  42.9633284  39.1655540  41.5593100
  43.4473181  40.8182907  40.0555563  44.2830849  41.1902761  39.6275067
  42.0785522  41.1663008  39.5519996  41.4808941  40.2627420  39.6723342
  41.4276743  42.3906994  40.2243185  41.2439823  42.0095205  41.2288380
  42.2736120  43.0759621  40.2782202  40.1959705  43.0836105  39.6244359
  40.4652882  43.3934927  38.6147118  38.9879107  42.1093273  39.6440077
  39.1215968  41.4142942  40.4729557  38.0842423  42.6952028  39.8120475
  38.9497781  41.5609741  38.7027550  39.9315524  44.2972136  40.5398798
  40.8214808  44.8577356  40.8261299  39.2290092  44.9510670  40.0231504
  39.5122313  43.9645481  41.4894056  42.1190691  41.3896799  38.0104208
  42.9644775  42.1699381  37.5843644  41.2432575  40.6410694  37.3304415
  40.5517769  40.1736975  37.8992224  41.1334038  40.5862188  35.8651471
  41.5289307  41.5330505  35.4974818  42.0833921  39.4998121  35.3583026
  42.0468855  39.5036888  34.2689204  43.5563183  39.6715212  35.7854819
  43.7831783  39.2767382  36.7758322  44.1451168  39.1587234  35.0249195
  43.8327885  40.7197857  35.6723166  41.4985752  38.1551147  35.7458854
  41.4646292  38.1003237  36.8339777  40.5550957  37.9831529  35.2278423
  42.3707008  36.9850445  35.1836824  42.5655651  37.2833276  34.1535544
  43.3466053  36.9009829  35.6618547  41.8574667  36.0238099  35.1568580
  39.7041583  40.4425287  35.3012872  38.6941433  40.7654285  35.9697104
  39.6274185  40.1198244  33.9800429  40.5244541  40.0148296  33.5279274
  38.3915329  40.0074673  33.2517648  38.6349416  39.9430108  32.1912456
  37.7087116  38.6630106  33.6778688  38.3592725  37.7903056  33.7349296
  37.2660947  38.7665820  34.6685553  36.7426133  38.2463098  32.6481891
  35.6100678  37.9287672  33.0719304  37.1201897  38.3426094  31.4673901
  37.4814963  41.2777519  33.1667089  36.3047647  41.2802076  33.6769056
  38.0509329  42.3553085  32.7411199  38.9252305  42.2978783  32.2387195
  37.4806428  43.7271690  32.8750730  36.8995976  43.8004971  33.7943745
  38.6197591  44.7162628  32.8643131  39.1661000  44.4431877  31.9615173
  38.1223321  45.6659126  32.6672554  39.6338987  44.8418522  33.9549899
  40.8733130  44.1391754  34.0056992  41.1765432  43.4900427  33.1975651
  41.6995668  44.2209530  35.1660228  42.5592709  43.5712337  35.2379680
  41.3145685  45.0536346  36.2310457  41.8695831  45.0410843  37.1574378
  40.1120281  45.7593346  36.1289096  39.7617936  46.2346458  37.0332432
  39.3006277  45.6940842  35.0493455  38.3396792  46.1834764  34.9904370
  36.5363193  43.9979315  31.6857982  36.5589833  44.9884415  30.9975410
  35.6335974  43.0737782  31.3588548  35.6521511  42.2636986  31.9617939
  34.8939729  42.9380369  30.0750804  35.5570388  42.9083920  29.2104602
  34.4300771  41.9611549  30.2114677  33.7939668  43.9296484  29.8739696
  33.3923626  44.1372108  28.7581658  33.3299494  44.5999336  30.9142613
  33.8044119  44.3454170  31.7687845  32.3197055  45.6286383  31.0069513
  31.8264651  45.6014442  30.0353169  31.3070154  45.2488136  32.0711660
  30.9616828  44.2431784  31.8312669  31.6640139  45.2540970  33.1010318
  29.9524856  46.0307932  32.1272135  30.1750636  46.9894361  32.5957894
  29.3623161  46.3767862  30.7318950  30.1428175  46.9920444  30.2842641
  29.1481996  45.4834795  30.1451564  28.4322500  46.9341040  30.8435726
  28.8043189  45.4070187  32.9162717  28.5676980  44.5492744  32.2866726
  29.1470122  45.0919533  33.9018655  27.8902364  45.9956074  32.8380752
  32.9327416  46.9812202  31.3084459  32.1824217  47.8970098  31.5723372
  34.2964768  47.0835781  31.2921977  34.8535156  46.2604713  31.1124778
  35.0371742  48.1874514  31.8329334  34.5584321  48.3512974  32.7983665
  36.4612937  47.7503061  32.1323872  37.0221281  47.5118113  31.2286806
  37.1011710  48.4778500  32.6317334  36.3850951  46.8305969  32.7124166
  34.7241068  49.4651079  30.9965968  34.5419502  49.3658876  29.7811651
  34.9826598  50.6828547  31.5599465  35.3565240  50.5483294  32.4885082
  34.7415280  52.0708656  31.1502600  34.8188472  52.0516396  30.0631714
  33.2456589  52.4619102  31.5245318  32.4780345  51.8999958  30.9924555
  33.0085635  52.1467543  32.5406814  32.8023005  53.9353657  31.3012958
  33.5062838  54.5635223  31.8471289  32.8359938  54.2487288  30.2578545
  31.3469982  54.2545557  31.7496324  30.7092261  53.5000753  31.2890792
  31.2405753  54.2622948  32.8343964  30.9198236  55.6150675  31.2388706
  31.0271525  56.4122820  31.9744158  31.4731169  55.9107494  30.3475022
  29.5146275  55.6855536  30.8207679  29.2956448  56.6086912  30.4744053
  29.3094063  55.0629234  30.0524473  28.8921714  55.4331684  31.5750575
  35.7795715  53.1069040  31.7073107  36.2500310  52.9585505  32.8413129
  36.1812520  54.0770340  30.8862019  35.8218408  54.0648031  29.9423933
  36.8910384  55.3120375  31.3194060  37.6351166  55.0418472  32.0687032
  37.6851392  56.0405493  30.2355003  38.2131886  55.2515507  29.7000217
  37.0517421  56.5357447  29.4995022  38.6849976  56.9808483  30.8676958
  38.1456661  57.6308823  31.5566683  39.4054079  56.3354445  31.3702488
  39.4341230  57.8696203  29.8602653  40.0307417  57.2033072  29.2372298
  38.7037778  58.4622335  29.3093491  40.4135990  58.7266016  30.5530858
  39.8561597  59.4005299  31.2036133  41.0459614  58.1259108  31.2068367
  41.1870384  59.5471239  29.5835352  41.3184786  60.5095673  29.8601651
  42.0639610  59.0752649  29.4148326  40.7311487  59.6697855  28.6906600
  35.8903885  56.3056707  31.9462562  34.9980497  56.7696285  31.2218618
  35.9594631  56.5263700  33.3018064  36.6815877  56.0242701  33.7983251
  34.9936318  57.3259211  34.0767312  34.0771699  57.3536825  33.4872961
  34.7201085  56.6311073  35.3981447  33.7378407  56.9046164  35.7834291
  34.4989610  55.5646181  35.3557062  35.6909966  56.8583679  36.4851594
  35.5056834  57.9647160  37.3707390  34.6319628  58.5934258  37.2827625
  36.4145374  58.1887770  38.4182453  36.3216233  59.0864515  39.0114927
  37.4524283  57.2551346  38.6496305  38.3578753  57.4830246  39.6286201
  39.2847633  57.3091888  39.4490051  37.7171326  56.2219048  37.7408600
  38.5952854  55.5946779  37.7837181  36.8422818  55.9903002  36.6609573
  37.0898008  55.1688623  36.0049272  35.2538586  58.8419342  34.2263007
  34.3001890  59.5326948  34.6508193  36.3969564  59.4284248  33.8830924
  37.0640159  58.8067770  33.4487152  36.7465305  60.8258009  34.0227461
  35.8666062  61.4327717  33.8096142  37.1008253  61.1182070  35.4872155
  37.3755598  62.1706343  35.5580521  36.2760878  60.8512211  36.1479926
  38.3385682  60.3600168  36.0379148  38.1455660  59.2902803  36.1186528
  39.2602515  60.4561424  35.4640126  38.5530996  61.0173368  37.4353552
  38.5948133  62.1033335  37.3518491  37.7173734  60.7748604  38.0917645
  39.7785306  60.5503416  38.0830455  40.3019094  59.9469852  37.4648762
  40.0533581  60.6898546  39.3543196  39.4501233  61.5227032  40.1219606
  38.7559175  62.1576691  39.7545362  39.6636200  61.4749718  41.1079836
  41.0832024  60.0063801  39.8316407  41.6349936  59.4533587  39.1914892
  41.5285635  60.3815222  40.6568813  37.9482126  61.1807060  33.1151295
  38.7667847  60.3295708  32.8755379  38.0699372  62.4619102  32.7257371
  37.4138546  63.0853558  33.1740355  39.3129063  63.0951643  32.2459722
  39.4574237  62.7158880  31.2343574  39.0667915  64.6617413  32.0841026
  38.1218123  64.8211288  31.5647602  39.0174866  65.1387548  33.0629420
  40.2276421  65.3398037  31.4016509  40.6495237  66.4284420  31.8913269
  40.8770037  64.7474337  30.5125284  40.5672646  62.8408527  33.1196499
  40.5705976  63.0993891  34.3660831  41.6874552  62.4847364  32.4738097
  41.6577911  62.3962831  31.4681292  42.9949236  62.3440647  33.0600500
  42.9418659  61.6234398  33.8761282  43.9742327  61.8266439  31.9503403
  43.9402294  62.5527668  31.1381292  45.0096130  61.8018150  32.2901392
  43.7230158  60.5359077  31.2450266  43.2285213  59.5470858  31.8331409
  44.0876484  60.2800655  30.0134015  43.9567232  59.3721247  29.5907807
  44.5846987  61.0172892  29.5342994  43.5677338  63.6472178  33.7164235
  44.1546488  63.5391712  34.7770953  43.3875847  64.7778082  33.0505371
  42.7797842  64.7708178  32.2439218  44.0925932  66.0170078  33.4092903
  45.0485754  65.8166122  33.8930702  44.3837929  66.7167282  32.0482612
  45.0041389  66.0175800  31.4874792  43.4423733  66.7740536  31.5018773
  45.1106071  68.0876684  32.3012543  44.4632626  68.8283253  32.7708030
  46.0379457  67.8809834  32.8355026  45.5726480  68.5668182  30.9032416
  46.1493492  67.8567123  30.3105640  44.6210909  68.6450720  30.3773785
  46.2893009  69.8735666  30.9207535  45.6531334  70.5470371  31.3230395
  47.4138069  70.2270842  30.2502012  48.1949759  69.3496275  29.6310043
  48.1481504  68.3542109  29.7954822  49.0500021  69.6764278  29.2041183
  47.7233744  71.4580774  30.1732063  47.1250296  72.2206354  30.4570937
  48.5458660  71.7005777  29.6395445  43.3404493  66.8509674  34.4994521
  43.8195515  66.9813156  35.6326103  42.0885372  67.1193314  34.1534901
  41.7582369  66.8643904  33.2337046  41.1603928  67.9963493  34.9308729
  41.7047215  68.7860584  35.4487300  40.1009989  68.7207842  34.1156816
  39.4588947  69.3434715  34.7386336  40.6681538  69.5936584  32.9681444
  40.0626373  70.4760218  32.7611041  41.7357254  69.7453928  33.1274271
  40.5025053  68.9772367  32.0845819  39.2302322  67.6964235  33.5872245
  39.7621989  67.2789669  32.9057932  40.4917955  67.1579695  36.0644341
  39.9362326  67.7554083  36.9239473  40.4603815  65.8328676  35.8775330
  40.9425783  65.5172348  35.0480938  39.7603130  64.8881388  36.7749119
  40.0456333  63.9070988  36.3951015  40.3984833  64.9606657  38.1965494
  40.3653336  65.9538889  38.6443353  39.8663807  64.2430210  38.8210106
  41.8646336  64.4975376  38.0803037  42.0511913  63.5975409  37.4943829
  42.4749565  65.3055286  37.6768661  42.4278355  64.2906809  39.5581412
  42.4039841  65.2447891  40.0846434  41.8299437  63.5175562  40.0407505
  43.8553381  64.0078592  39.4860101  44.1748333  63.5338259  38.6533523
  44.8136759  64.1509390  40.3185701  44.6669674  64.6622419  41.5582991
  43.7755346  64.9367857  41.9456911  45.5051184  64.5855999  42.1166325
  46.0207748  63.8583803  39.9521923  46.1668873  63.5127783  39.0144753
  46.8541288  64.0242052  40.4981995  38.2590556  64.8373079  36.6446042
  37.6035476  64.1347980  37.3348165  37.7683949  65.6309652  35.6900573
  38.4012294  66.0812807  35.0444269  36.3329124  65.9023905  35.5701423
  35.8563519  66.2321663  36.4933085  36.0870886  67.0008230  34.5625854
  36.6850376  67.8807449  34.7998714  36.5475202  66.7422009  33.6090565
  34.6155500  67.3888302  34.4121480  34.3620682  67.8227615  33.4449100
  33.9789915  66.5053177  34.4601631  34.1502619  68.3795834  35.4119492
  34.7523999  68.6046171  36.4575148  32.9826283  68.9838409  35.2688456
  32.5721359  69.4392920  36.0714436  32.2941661  68.7141609  34.5808101
  35.5416512  64.6555853  35.2868319  35.6151462  64.0434265  34.2067742
  34.7138643  64.1772509  36.2248945  34.6984911  64.6449900  37.1199298
  33.7661195  63.1088734  36.1068749  34.2586517  62.1430922  35.9938192
  33.1047058  62.9005671  37.4520540  33.8899946  62.5680208  38.1309032
  32.5709391  63.7628794  37.8515625  32.2301126  61.7032671  37.5749159
  32.6252818  60.3655481  37.4302530  31.4420199  59.6761370  37.3817921
  31.2551475  58.6326694  37.1752763  30.4169774  60.4271460  37.5693560
  29.4896221  60.0422001  37.4601412  30.8579636  61.7368937  37.6372766
  30.3655577  62.6972055  37.6789594  32.7356601  63.2669401  34.9088478
  32.3360562  64.4207716  34.6366763  32.3993301  62.1528101  34.2415881
  32.7921963  61.3215208  34.6595740  31.2982130  62.1999264  33.3000731
  31.6781378  62.8618622  32.5218701  30.9755826  60.7516050  32.7948284
  30.1552868  60.8443069  32.0830560  32.0920372  60.1614714  32.0020342
  32.0904970  60.8043289  31.1217904  33.0485439  60.2213430  32.5212789
  31.9235039  59.1762018  31.5673542  30.5521703  59.7879648  33.9552188
  31.3744831  59.6018171  34.6460509  29.6953297  60.2714729  34.4244170
  30.0873995  58.4331751  33.5853791  30.8759356  57.8938007  33.0606079
  29.8768783  57.8908730  34.5071626  29.2865849  58.5131979  32.8502655
  29.9796987  62.8444290  33.7996078  29.6816778  62.7850866  34.9658704
  29.1101933  63.3328724  32.8504348  29.3903136  63.7184048  31.4504290
  29.8897767  62.8830862  30.9596395  29.9258661  64.6640062  31.3660669
  27.9974771  63.9607239  30.7779121  27.5323033  62.9907942  30.6019926
  28.0492878  64.6013451  29.8975563  27.3317385  64.5187998  31.9714451
  26.2494016  64.4949007  31.8446565  27.6442719  65.5445385  32.1671009
  27.7621961  63.7711668  33.2750845  27.8585792  64.5345163  34.0471649
  26.7424917  62.6076841  33.5263777  26.9009948  61.5272093  33.0063629
  25.7311678  62.9029131  34.3732214  25.6159902  63.8423157  34.7258759
  24.7109437  61.8511677  34.7476864  25.1990986  60.8886337  34.9004340
  24.0908813  62.2543001  36.0906124  24.9369431  62.4225950  36.7569137
  23.6388850  63.2454681  36.0533595  23.0534697  61.3059044  36.7298341
  23.4654307  60.1668119  37.4611616  24.5351648  60.0600243  37.5644302
  22.5371027  59.2379475  38.0326295  22.8188658  58.2839394  38.4532022
  21.1648488  59.5636320  37.9345608  20.2517366  58.6919737  38.2941794
  19.3548095  58.9568949  38.0775285  20.7896996  60.6747770  37.1933556
  19.7425067  60.9334707  37.1398091  21.7006326  61.5660191  36.5645504
  21.2880516  62.4072313  36.0273933  23.6231852  61.5134668  33.7009120
  23.0031896  62.4310684  33.1082249  23.3645368  60.2078390  33.5032082
  23.8461423  59.5749617  34.1258097  22.3918128  59.6654654  32.4860024
  21.6875076  60.4907465  32.3812842  23.0464602  59.2591047  31.1556911
  23.9266896  58.6444902  31.3442278  22.3288035  58.6106730  30.6530881
  23.4934020  60.3631353  30.2875566  24.2448473  60.9776688  30.7833171
  23.9625525  59.8906898  29.4245434  22.3348403  61.3113213  29.9593949
  21.5526628  60.7610035  29.4364691  21.9874310  61.7718172  30.8842468
  22.7653337  62.3666716  29.0220690  22.6632524  62.2393513  28.0253386
  23.4675932  63.4585381  29.3383193  23.5732079  63.9345407  30.5618525
  23.1250715  63.3782816  31.2758899  23.9622283  64.8408175  30.7796335
  24.0162992  64.0630817  28.3451271  24.0330982  63.6840916  27.4090791
  24.6034241  64.8667717  28.5167718  21.5471554  58.4952211  33.0324554
  22.0381713  57.4807787  33.4052396  20.2238870  58.6376190  33.1516433
  19.8643529  59.5214224  32.8203917  19.3336499  57.4251223  33.4290981
  19.8201311  56.5985632  33.9470220  18.1706667  57.9929352  34.2994022
  17.7827322  58.8365269  33.7284684  17.4082136  57.2149086  34.3374276
  18.5833538  58.4061050  35.7561803  19.0019453  57.5503063  36.2857890
  19.3283296  59.1974258  35.6729484  17.4026358  59.0214586  36.5108705
  17.6382148  59.2544460  37.6932979  16.1623776  59.1626263  36.0803509
  18.9121342  56.8233109  32.0707965  19.2190909  57.2731733  30.9663296
  18.2163012  55.6666422  32.1717191  17.8906643  55.3749323  33.0821991
  17.6933241  54.8049498  31.1132264  17.2673416  53.8984442  31.5432143
  16.5376699  55.5026197  30.3826737  16.8754280  56.3806629  29.8321676
  16.0641968  54.8629189  29.6378875  15.3534901  56.0372019  31.2525463
  14.6439242  56.9129467  30.7695341  15.0925207  55.4366302  32.2653556
  18.7449515  54.1647816  30.1540709  18.5322666  53.9669037  28.9551616
  19.8760104  53.7636518  30.7765198  19.8570454  53.7737942  31.7862892
  21.0291815  53.0749798  30.2781701  21.2404656  53.5840988  29.3378210
  22.2285533  53.0894423  31.2268829  21.9930625  52.4972200  32.1111441
  23.0783200  52.6653242  30.6919837  22.5867629  54.5348740  31.7790675
  21.6191173  54.9274206  32.0915842  23.2100058  54.4209051  32.6660156
  23.2551312  55.5291748  30.8117199  22.4961352  55.7152891  30.0518608
  23.5007834  56.4648342  31.3140106  24.5469046  55.0356817  30.0436068
  25.3295827  54.7356415  30.7403803  24.1845059  54.1789246  29.4755077
  25.1607537  56.1406994  29.2520547  25.7408428  56.7451143  29.8162174
  25.7900643  55.7566071  28.5617304  24.5168853  56.6520357  28.6654782
  20.6381869  51.6412783  29.9086094  19.6997333  50.9433889  30.3783369
  21.3088322  51.1668301  28.8327789  21.9593287  51.8003464  28.3904958
  21.3480258  49.7650766  28.3968377  20.3936839  49.4595337  27.9679036
  22.3737884  49.5387030  27.2713923  22.0565033  50.0342846  26.3538790
  23.3248329  50.0053692  27.5279832  22.5246334  48.1018686  26.8972111
  21.6746211  47.2274208  27.0101190  23.6502504  47.7508163  26.3964105
  23.7693810  46.7555046  26.2728858  24.4092679  48.4021139  26.2556863
  21.6989613  48.8143301  29.5647001  22.5835204  49.0716505  30.3819084
  21.0379386  47.7020073  29.6829796  20.2951860  47.5060797  29.0272117
  20.9833622  46.7927790  30.8525801  21.0429120  47.4617052  31.7111182
  19.6115673  46.0509920  30.7741356  19.5719624  45.5199671  29.8230600
  19.5097804  45.3022337  31.5596938  18.4288955  47.0903206  30.8504295
  18.4326553  47.8621626  30.0807858  17.1921539  46.2513447  30.6735158
  17.1708548  45.4395580  31.4005923  16.3284492  46.8976688  30.8296704
  17.0989585  45.9557629  29.6285033  18.3148038  47.6931334  32.2384524
  17.4213207  48.3077765  32.3480105  18.2155991  46.8924093  32.9713249
  19.2396069  48.1723547  32.5596786  22.0737362  45.6369829  30.9390855
  21.9289327  44.6072626  30.3558350  23.1259871  45.8648396  31.6960430
  23.1312323  46.7640162  32.1559954  24.4340515  45.1460743  31.7076349
  24.2337251  44.0825748  31.5774798  25.4542923  45.5479860  30.5784869
  26.3017106  44.8720074  30.6926441  24.8558068  45.4579926  29.1464710
  25.5849957  45.9858418  28.5318494  24.6740746  44.4176292  28.8768077
  23.9802766  46.1064720  29.1144180  25.9427452  46.9355631  30.7195473
  25.6337810  47.3197126  31.5433002  25.0838399  45.2128315  33.0699468
  24.8994851  46.2291002  33.6967659  25.8889699  44.2271280  33.4308577
  26.0019183  43.4988451  32.7402377  26.4821815  44.0074968  34.7904110
  27.5584221  43.8350105  34.7829175  26.3067865  44.9658585  35.2791643
  25.7985878  42.8354120  35.4615688  24.6043539  42.6356554  35.3660798
  26.6042948  42.0068836  36.1289454  27.5953269  42.1709681  36.0238934
  26.1251354  40.7337904  36.6317391  25.3355646  40.4573727  35.9329748
  27.2261596  39.6638846  36.7354560  27.9400849  40.0867081  37.4423027
  26.6137981  38.3017278  37.1846414  27.3732352  37.6180887  37.5641084
  25.9434915  38.4100795  38.0373144  26.0549736  37.8563476  36.3615608
  27.8151059  39.5407748  35.5083299  28.5098433  40.1866388  35.6559825
  25.4023981  40.9971476  37.9527283  25.9721088  40.6510782  39.0051079
  24.1840053  41.5709066  38.0216241  23.7293434  41.7428112  37.1362805
  23.6765409  42.2825813  39.2319155  24.4320822  42.9797745  39.5941043
  22.4443603  43.2018948  39.0362072  21.7425203  42.6010704  38.4578228
  21.9933772  43.5743809  39.9559736  22.7015138  44.0986156  38.4724116
  23.3569169  41.2425852  40.4098511  23.1628704  41.7145157  41.5197086
  23.4179831  39.9134922  40.1436377  23.3112741  39.6811819  39.1665268
  23.4001946  38.9489460  41.2069225  22.4828744  39.1355991  41.7653084
  23.3754826  37.5694132  40.6422472  22.7230310  37.6271963  39.7710013
  24.3574452  37.3631287  40.2164555  23.0056477  36.3480067  41.5222359
  22.1441555  36.6440058  42.1208286  22.7844548  35.4403949  40.9606171
  24.2100334  36.0763621  42.4745274  25.1645923  36.1525750  41.9538403
  24.2540574  36.8191075  43.2710743  24.1731381  34.6428347  42.8794670
  23.8131928  34.5226192  43.8154602  24.8988867  33.6099935  42.4292564
  25.5703735  33.6001611  41.3005352  25.6104708  34.4663262  40.7826090
  26.2728596  32.8957987  41.1259127  24.8996139  32.5288272  43.1699848
  24.4232988  32.4285245  44.0549517  25.3701687  31.6951299  42.8480721
  24.5549631  39.2490220  42.1827126  24.3515372  39.2966771  43.4088469
  25.7592750  39.5270658  41.6474438  25.8377242  39.4901347  40.6411743
  26.9257832  40.0093174  42.3964739  26.8312502  39.7680092  43.4552193
  28.1131148  39.2380309  41.9175148  28.3058476  39.5356202  40.8867931
  28.9910150  39.6723676  42.3957872  28.1357145  37.7609754  42.2503471
  28.1229663  37.3650312  43.5988951  28.0237436  38.1583762  44.3249512
  28.0989718  36.0137129  44.0061092  28.1287599  35.7902336  45.0623178
  28.3127785  35.0520229  43.0057669  28.4272790  33.6660028  43.2782888
  27.9998326  33.4859276  44.1188049  28.3455205  35.4184628  41.6531420
  28.5376358  34.6707273  40.8979082  28.2924509  36.8100786  41.2457752
  28.3421063  37.0389009  40.1914597  27.1226048  41.4724827  42.2391844
  27.2039843  42.1029663  43.3025169  27.2333360  42.0522022  41.0382271
  27.0389605  41.5114021  40.2076483  27.4341583  43.4600639  40.8641481
  28.3982325  43.7349129  41.2920713  27.6216936  43.7980556  39.2992997
  28.4914684  43.2749939  38.9018130  26.6533136  43.7030983  38.8080502
  27.7826452  44.8716164  39.2009783  26.3757849  44.4133186  41.4810753
  25.3986478  43.9627934  42.0671463  26.6693425  45.7023859  41.3987350
  27.6355815  45.7585335  41.1100626  25.8404398  46.8401051  41.6885233
  25.5648875  46.8262959  42.7430248  26.5169978  48.1526709  41.3348103
  27.1282125  48.4825325  42.1748781  27.2416902  48.0059862  40.5339336
  25.6160545  49.1041851  40.9508419  26.1375594  49.8968744  40.8049774
  24.4638920  46.7123127  41.0045242  24.3749356  46.2888718  39.8677969
  23.4464002  47.2669220  41.6876173  23.7109613  47.8825092  42.4433708
  22.0107079  47.2449732  41.3109112  21.8494797  46.2052202  41.0262585
  21.0538125  47.5529385  42.4620819  21.1731482  48.6185408  42.6579332
  19.6010149  47.4741793  42.0883989  19.2636502  47.9179335  41.1517191
  19.3568468  46.4218044  41.9435167  18.9973092  47.7863836  42.9405546
  21.3947201  46.7519474  43.6861181  21.0303378  45.7276917  43.6072111
  22.4431467  46.7522049  43.9842939  20.6760859  47.3415709  44.9779129
  20.8012605  48.4092855  45.1579475  19.6141493  47.1036673  44.9163342
  21.0911226  46.7793894  45.8144474  21.7782569  48.2137489  40.0981998
  20.9884262  47.9751587  39.1711330  22.5050426  49.3467045  39.9405241
  23.0886817  49.6533060  40.7056808  22.3756647  50.3201818  38.8274765
  21.4012289  50.7930183  38.9499688  23.4362817  51.4373398  38.8706708
  24.3967485  50.9225655  38.8954115  23.3546901  52.0109558  37.9474139
  23.1620646  52.3279285  40.0307226  22.0693016  52.9016304  40.2370262
  24.1898417  52.6083183  40.8238268  24.0234661  53.0964041  41.6922760
  25.0897741  52.1652222  40.7059765  22.3355961  49.7204876  37.4085927
  21.5560746  50.1042938  36.5750313  23.1493092  48.7351465  37.1777654
  23.9202046  48.6067820  37.8175664  23.2452202  47.7259922  36.1135411
  23.8036180  48.2225561  35.3199959  24.0202713  46.4847279  36.5740776
  23.9690661  45.6981516  35.8212304  25.0819755  46.7314577  36.5708113
  23.7402987  46.1590195  37.5758910  21.8982220  47.3345470  35.6001353
  21.7072582  47.2242069  34.4094944  20.9714437  47.0287514  36.4745879
  21.1856055  47.0026588  37.4612784  19.6086848  46.5991306  36.1857510
  19.4502211  46.4293766  35.1207757  19.2516863  45.2803278  36.9869304
  19.4077837  45.4692268  38.0490279  18.2198191  45.1024675  36.6840839
  19.9999404  44.0031338  36.6397381  19.6530902  42.7565289  37.1352053
  20.4744911  41.8659067  36.5331697  20.5189705  40.7949972  36.6657901
  21.1643624  42.4743605  35.5524206  21.6613698  42.0260906  34.7960234
  20.8101082  43.8032770  35.5946684  21.1505556  44.5531225  34.8959327
  18.5135734  47.6027107  36.4414954  17.4122179  47.4396372  35.9144759
  18.7752330  48.7677717  37.0731592  19.6758366  48.8598919  37.5209618
  17.8810251  49.9303675  36.9538927  16.8211186  49.6762657  36.9655395
  18.2119191  50.8786249  38.1193924  19.2784250  51.1037111  38.1207705
  17.7095318  51.8233442  37.9115105  17.8301525  50.4517603  39.5139170
  18.3742833  49.5269108  39.7054195  18.2911098  51.6632748  40.4288530
  17.7353024  52.5901699  40.2872849  18.1329596  51.3733578  41.4676189
  19.3649149  51.7748642  40.2785301  16.3476861  50.1533651  39.6343708
  16.0233259  49.9480152  40.6545305  15.8644557  51.0620213  39.2753053
  15.9769511  49.4170094  38.9213181  18.1770825  50.6800461  35.6097817
  17.2656441  51.4438152  35.2122760  19.2618966  50.4234648  34.8962402
  19.9942791  49.9681091  35.4219460  19.6724057  51.1374855  33.6636186
  20.5980492  50.7143784  33.2734084  18.9140582  51.1184978  32.8808999
  20.0298166  52.5788832  33.9845610  19.4611716  53.4795952  33.4372234
  20.9750009  52.7751541  34.9333811  21.4186215  51.9873857  35.3836226
  21.4307928  54.1097784  35.5176687  20.9947944  54.8958111  34.9010873
  20.9654045  54.2893076  36.9760251  21.4310265  53.5211945  37.5935197
  21.4980936  55.5932999  37.5568581  21.0829139  56.4681387  37.0564795
  21.1385989  55.7330751  38.5763335  22.5712371  55.7209015  37.6989317
  19.4501746  54.0738010  37.1169853  18.9221001  54.6564627  36.3621712
  19.2007577  53.0374241  36.8893600  18.8399923  54.3709898  38.5261726
  18.8904989  55.4174089  38.8270974  17.7788615  54.1262150  38.5730433
  19.4010818  53.7683439  39.2403841  22.9517317  54.2325974  35.3969240
  23.6574173  53.2403183  35.5436635  23.4919500  55.3457499  34.9049830
  22.9004025  56.0697269  34.5228481  24.9867988  55.6117344  34.7718835
  25.4020071  54.9805641  33.9861822  25.1305199  57.0433378  34.3383169
  24.4845867  57.2893572  33.4954953  24.8154187  57.7233076  35.1298094
  26.5052295  57.4229813  33.8592649  26.3406706  58.4337854  33.4860420
  27.1887565  57.2997332  34.6993232  26.9868588  56.4675188  32.7812696
  27.8292370  55.5597162  33.0592656  26.6808391  56.6970444  31.5877199
  25.7759690  55.2159071  36.0273266  25.3155875  55.4828644  37.1459961
  26.9851232  54.5926571  35.8730793  27.3644114  54.5478535  34.9380732
  27.7745080  54.0069914  36.9203186  27.2080040  54.1784525  37.8356171
  27.8603673  52.4680758  36.7144847  28.4925127  52.2558117  35.8522582
  28.4017015  52.0476913  37.5620317  26.4734244  51.7947102  36.6144586
  25.8628345  52.0957947  37.4657106  26.0359335  52.0815754  35.6582093
  26.6252065  50.2493763  36.6671610  27.0197558  49.6317673  35.6674719
  26.2326765  49.6476555  37.7195859  26.4841628  48.6695099  37.7286911
  26.1817479  50.1819706  38.5751677  29.0983701  54.7222424  37.1838927
  29.4232464  55.6250763  36.4065409  29.8560810  54.3498945  38.2614636
  29.4282174  53.6597824  38.8621140  31.0546613  55.0813484  38.8609791
  31.6608906  55.3875780  38.0084467  30.5250716  56.3617420  39.5358753
  29.7630095  56.7863655  38.8823795  29.9613595  56.0791349  40.4249573
  31.5799880  57.2316837  39.8417878  31.1721969  57.8399372  40.4625463
  31.8803358  54.2805910  39.9035645  31.5889740  53.1251574  40.0965834
  32.8308225  54.8669386  40.6295538  32.9676962  55.8514881  40.4505825
  33.6931109  54.2541456  41.7076159  34.3197417  53.5180521  41.2040186
  34.5705891  55.3050947  42.3475695  33.9902949  56.1473799  42.7242851
  35.2240586  54.8509169  43.0924177  35.6820536  55.9014511  41.4894438
  36.2898397  55.0422525  41.2057686  35.2386522  56.3033819  40.5784273
  36.4846778  57.0510960  42.1585417  36.6172004  56.9304943  43.2337141
  37.4762583  57.1506786  41.7170048  35.8308911  58.3743620  41.9731903
  35.0233841  58.3778334  41.3665438  36.2528014  59.5744801  42.2665024
  37.4177670  59.6893072  42.8051281  38.0483150  58.9312267  43.0238247
  37.8791785  60.5670786  42.9967356  35.4833531  60.6169510  42.0589781
  34.4851160  60.5278873  41.9337225  35.8928156  61.5216684  42.2431993
  32.7280116  53.5324907  42.7226496  33.0627489  52.4848747  43.3102465
  31.5338778  54.1271544  42.9161596  31.4577770  54.9745655  42.3719120
  30.4226923  53.6338997  43.7594128  30.7333708  53.5161781  44.7975492
  29.1677451  54.6159554  43.7650251  28.5504246  54.3669319  44.6281624
  29.6232677  55.6019306  43.6730957  28.3389711  54.5236349  42.4608660
  29.0100121  54.6247673  41.6078854  27.8516769  53.5501432  42.4064112
  27.2414207  55.5863333  42.4454355  26.5862799  55.4149914  43.2995605
  27.6773262  56.5823841  42.5227499  26.3953280  55.4215860  41.2216616
  26.6564655  54.8104191  40.4611492  25.1636052  55.9570217  41.0673094
  24.5730114  56.5660286  42.0762444  24.9116397  56.2758398  42.9824591
  23.6980724  57.0700598  42.0531511  24.5766711  55.9011650  39.9216723
  25.0234556  55.4956198  39.1117191  23.5696650  55.9773016  39.9061251
  29.8888588  52.2367525  43.3296633  29.4819164  51.5006113  44.2236185
  29.9161577  51.8784142  42.0315790  30.3964114  52.5360155  41.4340687
  29.3996549  50.5735445  41.4737463  28.5899377  50.2862597  42.1445227
  28.8034153  50.6410551  40.0437260  29.5938349  50.8634949  39.3268871
  28.4210372  49.6479845  39.8077130  27.7240014  51.6900396  39.9684811
  28.0195093  52.9115582  39.8857689  26.5351152  51.3088655  40.0461006
  30.3758311  49.4035578  41.6527748  29.9258685  48.3215618  41.8686104
  31.6866446  49.7099876  41.6526175  31.9836617  50.5946779  41.2663507
  32.7003598  48.7180424  41.9211483  32.4421501  47.7679586  41.4534235
  34.1159296  49.2186642  41.4023495  34.3696427  50.1763725  41.8568039
  34.8023653  48.4665871  41.7913055  34.2806387  49.2987633  39.8978305
  33.4147859  48.8614845  39.1684270  35.4471850  49.6622372  39.4880223
  32.6527190  48.3991861  43.4442711  32.6421404  47.2411871  43.8088465
  32.6769948  49.4260216  44.2979717  32.5847864  50.3497028  43.8999510
  32.8050280  49.2735243  45.8019733  33.6769962  48.6577988  46.0225439
  33.0946589  50.5781126  46.4279604  32.3072886  51.2870550  46.1719465
  33.1655216  50.4993343  47.5127983  34.4755721  51.1531925  46.0135460
  34.8462963  50.4828787  45.2380896  34.3538260  52.1716261  45.6446648
  35.7989788  51.3255024  47.2126245  35.8878517  49.7217035  48.0610609
  36.8030787  49.4925737  48.6069155  35.0544477  49.6228218  48.7565851
  35.7460904  48.9615536  47.2928286  31.6124296  48.6037970  46.4143705
  31.7700624  47.5661087  47.0725632  30.4271913  48.9504528  45.9198666
  30.2729201  49.8329639  45.4535198  29.1694474  48.1661367  46.1821747
  29.0130520  48.3199358  47.2498751  27.9995346  48.8484240  45.5485153
  28.1462836  49.9081278  45.7572889  28.0393910  48.6346912  44.4804192
  26.6232753  48.2654715  46.0495424  26.7595029  47.2330666  46.3715553
  26.3837075  48.8308764  46.9501114  25.3809166  48.3350897  45.1967144
  25.3267002  49.0180731  44.1880369  24.4638944  47.5896358  45.5517435
  29.2235827  46.6832876  45.7796144  28.9135122  45.7930851  46.5886402
  29.6189165  46.4063358  44.5492744  29.6291709  47.1587753  43.8756084
  29.7268295  45.0412464  43.9818478  28.7750721  44.5100498  43.9725828
  30.3702140  45.1174164  42.6001406  31.2774444  45.6946230  42.7786684
  30.6216884  44.1009474  42.2974014  29.5067477  45.6735992  41.6057730
  29.7612906  46.5986872  41.5737963  30.6085372  44.1679811  44.8969650
  30.1729441  43.0762100  45.1513910  31.8038487  44.5970297  45.3565264
  32.0833969  45.5102015  45.0277901  32.7090883  43.9004946  46.3145399
  33.0618310  42.9684019  45.8730888  33.9843583  44.7950792  46.4057255
  34.3626666  45.0659990  45.4200363  33.7336588  45.7388639  46.8900013
  35.0336933  44.0818977  47.2283745  34.5877028  43.7306023  48.1588507
  35.6855536  42.8567648  46.5147829  36.3721251  43.1160164  45.7088614
  36.2308741  42.2858620  47.2663116  34.9496889  42.1939039  46.0595703
  36.2487173  44.9192619  47.5349951  37.0232677  44.3949795  48.0947256
  36.6919351  45.3614140  46.6427183  36.0453057  45.7241964  48.2412577
  32.0348954  43.7114620  47.7078104  32.3701692  42.7131939  48.3506012
  31.0107946  44.5052624  48.1654024  30.6813931  45.2071714  47.5181627
  30.1668143  44.2123842  49.3498278  30.7552361  44.1537571  50.2654839
  29.3688941  44.9487019  49.4460440  29.5102453  42.8063154  49.2647648
  29.6463823  42.0335436  50.2061749  28.9219284  42.4204206  48.1224203
  28.9466500  43.0363655  47.3223591  28.2137275  41.1882830  48.0058289
  27.5487971  41.1071825  48.8657045  27.2698069  41.2907124  46.7979431
  27.9185557  41.3342524  45.9231138  26.6205835  40.4222775  46.6864634
  26.3425875  42.4974012  46.8981838  25.1907635  42.4546194  47.7323008
  24.9961853  41.6063547  48.3718252  24.4072795  43.5823584  47.8608513
  23.5448503  43.6106396  48.5103226  24.6126580  44.6469116  47.0026445
  23.6576486  45.6245375  46.9893837  24.0137696  46.3695288  46.4997244
  25.6453443  44.6862888  46.0914230  25.8030868  45.5053663  45.4053879
  26.5735483  43.6482716  46.0919857  27.4771237  43.7525797  45.5096865
  29.1962957  39.9527454  47.7677822  28.9982796  38.8011336  48.2077694
  30.4371333  40.2519703  47.3505259  30.5275631  41.1498547  46.8969584
  31.5887523  39.3454385  47.2162628  31.1105466  38.3957696  46.9763756
  32.6766229  39.6201420  46.1705828  33.2294822  40.5057955  46.4837408
  33.6929965  38.4503102  45.9656858  34.4393110  38.7177753  45.2176332
  34.1433740  38.2912230  46.9454575  33.0781460  37.6053286  45.6557369
  32.0696878  40.0432205  44.8143387  31.3685703  39.2650008  44.5128155
  31.5467119  40.9886074  44.9587059  32.8884220  40.2262306  44.1184330
  32.0960331  39.1287708  48.5438299  32.2633028  37.9965544  48.9890194
  32.3412204  40.1409674  49.3628740  31.9834208  41.0233688  49.0260506
  32.8127432  39.9616289  50.7346010  33.7416625  39.4059420  50.6064463
  32.9713917  41.3137722  51.4981794  32.1181703  41.9563484  51.2808990
  33.0710340  40.9870005  52.5332594  34.2683053  42.1155643  51.2010479
  34.5862746  42.0380354  50.1613426  34.0119052  43.6354351  51.3060427
  34.9046612  44.2446423  51.1647844  33.3203030  43.9551497  50.5265713
  33.5328341  43.9718914  52.2254944  35.4826307  41.7848539  52.1070147
  35.1311398  41.7821932  53.1387854  35.7566881  40.7688951  51.8227243
  36.3350224  42.4526930  51.9824505  31.8573499  39.0467644  51.5380716
  32.3156667  38.1019020  52.1513319  30.5959916  39.3643260  51.5075445
  30.4264617  40.1960897  50.9602594  29.5210361  38.5907745  52.1906948
  29.8449039  38.4303641  53.2190323  28.1763697  39.3415666  52.0565081
  28.3229017  40.3159857  52.5224876  27.9949069  39.5172310  50.9961748
  26.9751596  38.6499572  52.7176905  26.1610413  39.3731928  52.6703310
  26.7995739  37.7591586  52.1145821  27.2436666  38.0075717  54.4588089
  27.9037952  39.4460750  55.4517126  28.2264161  39.1715336  56.4560270
  28.7418699  40.0196362  55.0557852  27.1211600  40.1990509  55.5445147
  29.4155502  37.1855688  51.5574789  29.3082047  36.1863494  52.2966242
  29.4633675  37.0252109  50.2556610  29.8170996  37.7737188  49.6771193
  29.3826890  35.6712937  49.6403408  28.3809400  35.3154635  49.8811626
  29.6212292  35.7051563  48.1483412  28.8186955  36.3301182  47.7566051
  30.5198979  36.3028097  47.9956484  29.7365737  34.4380784  47.3701811
  28.6847425  33.5357547  47.1963882  27.7661824  33.7154603  47.7352333
  28.7752104  32.5239158  46.2253380  27.9014134  31.8982601  46.1184025
  29.9916053  32.2300410  45.6186533  30.0534987  31.1613536  44.7500229
  30.9144974  30.9764290  44.3678141  31.1248922  33.0768299  45.9448624
  32.0894265  32.7080536  45.6285095  30.9820223  34.1847658  46.7861557
  31.8821788  34.7040677  47.0801687  30.3061104  34.6532035  50.2898979
  29.8224616  33.5477352  50.3682184  31.4953780  35.0014734  50.7076597
  31.8136191  35.9144235  50.4155254  32.4151587  34.1115093  51.3817406
  32.5400996  33.2117128  50.7793617  33.7299871  34.8532724  51.4127254
  33.5484600  35.7911062  51.9377136  34.3810940  34.3383026  52.1191025
  34.4224095  35.1563668  50.0756931  34.2948604  34.3368888  48.9147043
  33.4681940  33.6459875  48.8393450  35.0175261  34.6492290  47.7727652
  34.7170806  34.2762518  46.8047714  35.8398914  35.7321286  47.7075863
  36.2636089  36.0894990  46.7806816  36.0491848  36.4813614  48.8799143
  36.8062305  37.2489882  48.8164139  35.3478265  36.1990595  50.0800371
  35.4037118  36.9052219  50.8952761  31.9746876  33.5905695  52.7440739
  32.5326300  32.5792336  53.2239580  30.8870006  34.1291523  53.3287859
  30.4655981  34.9494195  52.9168606  30.1484919  33.7269711  54.5470667
  30.6630802  32.8353739  54.9053288  30.2452660  34.9048495  55.5773926
  29.6931458  35.7464266  55.1590443  29.8241687  34.7094035  56.5635872
  31.6372490  35.4344440  55.8198833  32.5410295  34.7389722  56.2306690
  31.8740082  36.6886783  55.5086946  32.8567719  36.9215250  55.5170202
  31.1526608  37.3011398  55.1556396  28.7358665  33.2874298  54.4230700
  28.1950283  32.6400733  55.3652811  28.0984974  33.5567951  53.2389688
  28.6460614  34.0795851  52.5704098  26.6808486  33.2782125  53.0010176
  26.6503310  32.2796822  53.4370327  25.6981182  34.1970778  53.8490248
  25.8208132  33.9342141  54.8997164  26.0844040  35.1944208  53.6388111
  24.1996646  34.1510272  53.4061146  24.0423608  34.7705793  52.5232124
  23.8943362  33.1047368  53.3937407  23.2668495  34.8288035  54.4270754
  23.6580658  35.8394599  54.5438194  22.3100758  34.9503016  53.9192200
  23.1499195  34.1330791  55.7032299  22.7953029  33.1887841  55.7547522
  23.5341334  34.7035980  56.8791294  23.7945700  35.9903216  57.0241737
  23.6745358  36.5844989  56.2163115  23.9894724  36.3468695  57.9488325
  23.6204123  33.9229250  57.9300117  23.5701251  32.9211664  57.8114653
  23.6899447  34.3348169  58.8495827  26.3315320  33.1336331  51.5336227
  26.0308027  34.0861726  50.8794212  26.1552048  31.8691993  51.0620165
  26.2430024  31.0965204  51.7065048  25.6634879  31.4285183  49.7603655
  26.1581993  31.9884014  48.9667082  25.6974101  29.8755026  49.4736719
  25.2257729  29.2337155  50.2178288  25.1609778  29.5110631  48.1182480
  25.5251217  28.5223532  47.8390503  24.0712261  29.5313096  48.1065655
  25.5302954  30.1737285  47.3355770  27.0152283  29.5444536  49.3241167
  27.3803401  29.6698976  50.2030706  24.2095566  31.9068718  49.5744133
  23.7572789  32.1258593  48.4446526  23.4122014  32.1576786  50.6513357
  23.7824726  32.0946622  51.5888977  21.9704890  32.2010374  50.5510330
  21.6050720  31.6623783  49.6767187  21.4315915  31.5869355  51.8541050
  21.8116164  30.5674005  51.7890739  21.9518948  32.0551777  52.6896524
  20.0584006  31.5745759  52.0419645  19.6274030  30.9683228  51.4350891
  21.4608479  33.6700130  50.3427362  21.0782313  34.3782568  51.2842560
  21.6656256  34.1007066  49.0783167  22.0818162  33.4102869  48.4698677
  21.2879038  35.4109168  48.5448170  21.2832952  36.1414790  49.3537426
  22.2147083  35.8593631  47.4348688  22.3056078  35.1556182  46.6074753
  21.6917229  36.7603278  47.1141624  23.6830592  36.1067963  47.8638840
  24.0910053  35.1217031  48.0903196  24.4479513  36.6383028  46.6629219
  24.0718412  36.1394882  45.7697105  24.1514349  37.6802707  46.5425825
  25.5322075  36.6118312  46.7715025  23.7202621  37.0251536  49.0263224
  23.1505346  36.5953636  49.8502111  24.7115779  37.3186588  49.3716478
  23.1490016  37.9115057  48.7503862  19.8381400  35.2467871  48.0121422
  19.5804560  34.3737674  47.1792078  18.8139987  36.0708952  48.3970737
  18.8836527  37.2794080  49.2110586  19.4864035  38.1309319  48.8953066
  19.2768800  37.0052218  50.1899815  17.4323022  37.7773285  49.3772650
  17.1783900  38.4947515  48.5969257  17.2685122  38.2201242  50.3597164
  16.6479146  36.4719963  49.2479992  15.6067264  36.7285299  49.0525055
  16.7633569  35.8180881  50.1123953  17.4107301  35.7511520  48.1082201
  17.1089852  34.7052073  48.1634426  16.8783867  36.3287282  46.7920256
  15.6588423  36.3609600  46.4527988  17.7630544  36.6452861  45.8942461
  18.6938739  36.3402152  46.1404324  17.5343287  37.2011113  44.5906973
  16.4714372  37.2908211  44.3663836  17.9251802  38.6624718  44.5888042
  17.6524293  39.0525985  43.6082363  17.3196495  39.1456151  45.3556204
  19.3864620  38.9989924  44.8321915  20.3866959  38.6638904  44.0241957
  20.3327394  38.1292868  43.0873442  21.5969491  39.0763426  44.5886898
  22.4892020  38.9471555  44.1333961  21.4215279  39.6759129  45.7573318
  22.3077250  40.2475786  46.6667795  23.3555365  40.1974106  46.4099216
  21.7640495  40.8364010  47.7787447  22.3481774  41.4405775  48.4571075
  20.3763771  40.8620739  48.0722427  19.9446034  41.3442278  48.9368248
  19.4901609  40.2407598  47.1736479  18.4413457  40.2464199  47.4312449
  19.9964809  39.7256613  45.9423161  18.1627095  36.3441062  43.4035063
  18.3765101  36.9301677  42.3359823  18.5278904  35.0773907  43.5464048
  18.5404074  34.6988750  44.4827080  19.4024432  34.3550062  42.6288128
  19.8004401  35.0277495  41.8691301  20.6577396  33.9933586  43.4219551
  21.5009999  33.9397144  42.7333832  20.9189606  34.7935390  44.1144753
  20.6613111  32.6844525  44.2836618  19.7934175  32.7210832  44.9420834
  20.4519939  31.9046903  43.5513639  21.8864155  32.4621725  45.1377249
  22.8229761  33.2105374  45.0783968  22.0800495  31.4732695  46.0137033
  22.8031111  31.5574932  46.7138433  21.2735963  30.9159207  46.2567997
  18.7310696  33.0889702  42.0068979  19.2732012  32.4461436  41.1443758
  17.4687958  32.8199124  42.3555708  17.0845842  33.4414124  43.0528688
  16.6237092  31.7189550  41.8345642  17.1422553  30.9940267  41.2071180
  16.2460852  31.1066985  42.6534939  15.3210580  32.1549916  41.0469818
  14.3563783  31.4595294  41.0077095  15.3070068  33.3725262  40.5730200
  16.2007201  33.7897825  40.3555679  14.0822816  34.0223169  40.1279688
  13.2647467  33.9444876  40.8446884  14.3105209  35.5626702  40.0322342
  15.0770140  35.6466985  39.2618275  13.4316885  36.0622811  39.6246266
  14.7517514  36.2704992  41.3341856  15.6669426  35.8535051  41.7544746
  15.1399624  37.6892257  41.0938215  14.2905641  38.2786298  40.7485294
  15.4283190  38.2121944  42.0056677  15.9826136  37.6887274  40.4024172
  13.6730707  36.3442016  42.3933268  13.4780347  35.3154039  42.6960468
  14.0119135  36.8339372  43.3062601  12.7404225  36.6778231  41.9383955
  13.6560404  33.5347223  38.7801051  14.3975163  33.4090185  37.7932930
  12.4053586  33.0820990  38.7644768  11.7944407  33.1247926  39.5676303
  11.7503190  32.5188541  37.5521445  12.4784172  31.9246173  37.0000029
  10.5592752  31.6906118  38.0060673  10.8605731  31.0135698  38.8053989
   9.8002881  32.3735738  38.3876419   9.9804717  30.9150934  36.7788815
   9.8244590  31.6141772  35.9572721  10.5538774  30.0199103  36.5381408
   8.6358058  30.4425168  37.2599649   8.7760794  29.7632289  38.1007957
   7.9743856  31.2299371  37.6213431   8.0180198  29.7452450  36.0836911
   7.6676875  30.4900217  35.3690767   8.7580425  29.1016865  35.6079817
   6.8663830  28.8611865  36.4191413   6.0235447  29.3146086  36.7418361
   6.6394496  28.3206630  35.5966830   7.0996451  28.1697655  37.1174407
  11.3674688  33.7041903  36.6456556  10.9541047  34.7989106  37.0732617
  11.6302919  33.6407304  35.3389692  11.8273735  32.7611113  34.8834157
  11.4003611  34.7186613  34.3579650  10.3832161  35.0795531  34.5105433
  12.4202418  35.8535957  34.6705914  13.4110522  35.4093766  34.5753217
  12.3069823  36.5919828  33.8768291  12.3513496  36.3152695  35.6555843
  11.6189265  34.2460513  32.9505491  12.6448679  33.6421227  32.5747132
  10.6307971  34.5018005  32.1377587   9.8260725  34.9554467  32.5460792
  10.6448281  33.9608312  30.7926393  10.8767319  32.9015779  30.9035516
   9.2460465  33.9784741  30.2476096   9.2887527  33.4194374  29.3128657
   8.6632836  33.4872794  31.0268497   8.9698279  35.0191951  30.0781894
  11.6053343  34.6460819  29.7558427  12.1923673  33.9536476  28.9161229
  11.8416464  35.9811425  29.9146414  11.4252770  36.3058877  30.7756138
  12.5875020  36.9216514  29.1173315  13.0742693  36.5301251  28.2241011
  11.6343367  38.1256104  28.6263728  12.1340215  38.6058283  27.7850628
  10.3587496  37.5302863  28.0741024   9.7020119  37.2416639  28.8947701
   9.8521358  38.2168984  27.3958611  10.5500484  36.6258192  27.4966550
  11.4224648  39.0619946  29.6803546  10.7228160  39.6472406  29.3810606
  13.6612916  37.4857259  30.0018358  13.5410202  37.4382401  31.2438130
  14.7989035  38.0455947  29.4496083  15.0358701  37.8381610  28.4899640
  15.8078432  38.7393928  30.2135181  16.2038410  38.0803704  30.9861588
  17.0676720  39.0872526  29.3704009  16.9420588  39.9306226  28.6913967
  17.7622414  39.4724798  30.1169086  17.6148117  37.8289199  28.7886071
  17.8621411  37.1948242  29.6399903  16.9450200  37.4278116  28.0279493
  18.8910282  38.0174160  27.9287410  18.6560833  38.0882072  26.8667197
  19.4268572  38.9291859  28.1926799  19.7911453  36.8135095  28.1087255
  20.0963163  36.7896652  29.1548634  19.3331587  35.8508015  27.8816915
  20.9815979  36.8457127  27.1678185  20.7066154  36.3535213  26.3298202
  21.2940884  37.7647996  26.8890166  21.7595100  36.4902616  27.7050424
  15.3026104  39.9833083  30.9136701  15.5853951  40.2121210  32.1363091
  14.4793808  40.7287979  30.1539707  14.4197309  40.4742718  29.1783881
  13.8400137  41.9984770  30.5914187  14.6630371  42.7048826  30.6997347
  13.0283010  42.4841547  29.3792033  13.7463200  42.5928020  28.5663414
  12.1934223  41.8150520  29.1709137  12.3757744  43.8650560  29.7118044
  11.5869570  43.7974405  30.4609990  13.1734252  44.5621586  29.9685144
  11.6871917  44.3669939  28.3558154  12.4319708  44.4417000  27.5634599
  10.9496355  43.6181688  28.0670857  10.9350824  45.6439066  28.4629178
  10.4680836  45.5654764  29.4446898  11.6464877  46.4608049  28.5840678
   9.8272258  45.8010960  27.5248861   9.4224828  46.7230129  27.4451470
  10.1434422  45.5615616  26.5960526   8.9936781  45.2860022  27.7697897
  13.0811989  41.8765879  31.9074631  13.2563758  42.6626873  32.8635454
  12.2601426  40.8188248  32.0300961  12.2717786  40.2043056  31.2286425
  11.6880000  40.3291845  33.3191633  11.0355544  41.0687685  33.7833190
  10.8952534  39.0821147  32.9812789  11.4281714  38.4335876  32.2859287
  10.6085157  38.6173058  33.9245915   9.5150852  39.4411802  32.2988391
   8.8942581  39.8226404  33.1094933   9.6041626  40.2386522  31.5611315
   8.7331939  38.2098317  31.7725635   9.0642273  37.0234561  32.0092964
   7.6874763  38.4603930  31.0115123   7.3158276  37.7350426  30.4149866
   7.4533057  39.4126678  30.7697582  12.7738535  39.9911761  34.4225955
  12.6888025  40.4342747  35.5791783  13.6817122  39.0437675  34.1212964
  13.8014340  38.7734342  33.1555390  14.8071766  38.6436582  35.0185990
  14.4424748  38.1031275  35.8920574  15.7093382  37.5807762  34.3348169
  15.1290178  36.7608976  33.9115810  16.1406410  38.0503011  33.4507227
  16.8257987  37.0171189  35.3148794  17.3807597  37.7273750  35.9277868
  16.2986183  36.4706039  36.0968661  17.7486539  36.0742664  34.5221210
  17.1212614  35.2689743  34.1400433  18.2817364  36.6302204  33.7508583
  18.7949562  35.4755878  35.5441761  19.3735480  36.2678742  36.0191631
  18.3070624  34.9512362  36.3658309  19.6045291  34.5104432  34.7228384
  18.9826846  33.8004136  34.3633032  20.1451778  35.0304174  34.0465045
  20.2531886  34.0279651  35.3282762  15.5540311  39.8552775  35.6129670
  15.6681418  39.9875879  36.8839765  15.9401929  40.8550453  34.7908783
  15.6933904  40.7881165  33.8137865  16.5849161  42.1113777  35.2484632
  17.4164164  41.9077873  35.9231901  17.0866203  42.8177881  34.0402746
  16.2443995  43.0976343  33.4074640  17.5356686  43.7823439  34.2771053
  18.1012869  42.1052170  33.0943942  18.7832570  40.9894228  33.5614491
  18.7539446  40.6251621  34.5777440  19.6306288  40.3155422  32.6561427
  20.1597428  39.4558001  33.0399108  19.7762847  40.6898403  31.3168120
  20.5411386  39.9732828  30.4194593  20.8890510  40.5548096  29.7394729
  19.0613866  41.8355703  30.8879423  19.1420889  42.2122526  29.8789811
  18.2617950  42.4958086  31.7646742  17.6333809  43.2576132  31.3274717
  15.6095505  42.9125404  36.1222696  15.9620583  43.3384132  37.2458434
  14.3324685  43.1343079  35.7231188  14.1584384  42.9849195  34.7395039
  13.4052360  43.9969921  36.3975978  13.7545145  45.0262928  36.4791083
  12.0791328  43.9882660  35.6357479  12.1813524  44.4374514  34.6478796
  11.8545294  42.9343081  35.4719734  10.8966494  44.6784163  36.2541485
  10.0777090  44.4941378  35.5588198  10.7755637  44.2636156  37.2548389
  11.1217248  46.2102222  36.2571168  11.2650681  46.7619562  37.3541832
  11.2177241  46.8368053  35.1892281  13.1870294  43.5363579  37.8975081
  12.9555643  44.3854380  38.7772369  13.1292880  42.2292185  38.0266809
  13.3830190  41.6441202  37.2434902  12.9198647  41.4525509  39.2356658
  12.1099687  41.9299221  39.7872877  12.4042845  39.9875093  38.8849640
  13.0070090  39.7249842  38.0155349  12.5448179  39.3105197  39.7275996
  10.9254777  39.9894047  38.5386848  10.4357409  40.2000284  39.4894171
  10.8468497  40.8041620  37.8188992  10.5450737  38.6109495  37.8915524
  10.7083559  38.6476612  36.8144774  11.2685966  37.8865886  38.2656097
   9.1338313  38.0878949  38.0595756   8.7580514  38.0932426  39.0827394
   8.5507375  38.7393379  37.4086356   8.9979148  36.7108941  37.5071001
   8.0400217  36.3914943  37.5301671   9.2598176  36.6786909  36.5321803
   9.6533602  36.0436511  37.8882551  14.1286170  41.4823866  40.1580143
  14.0582335  41.8831635  41.3526678  15.3233171  41.1984158  39.6199298
  15.2443480  40.9499598  38.6441541  16.5562999  41.3309526  40.3363800
  16.5932512  40.6622410  41.1963558  17.7861559  40.9639645  39.4256735
  17.6323760  41.5862608  38.5440826  19.1512859  41.3911533  40.0083113
  19.4670570  40.9578133  40.9573126  19.9845183  41.1879253  39.3356061
  19.2599261  42.4626160  40.1764441  17.7883494  39.4388103  39.2123795
  18.0821550  38.8864636  40.1049566  16.7734778  39.0902400  39.0209818
  18.7026858  38.9307857  38.0804229  18.3826602  39.4874310  37.1996117
  19.7677076  38.9661169  38.3097315  18.4220314  37.8869629  37.9398298
  16.7525268  42.6814079  41.0488415  17.0248771  42.7554369  42.2449350
  16.5175104  43.7818193  40.2988338  16.1446750  43.7585211  39.3604589
  16.7130601  45.1493406  40.7773829  17.6394820  45.0884056  41.3484621
  16.8855858  46.1522293  39.6449852  16.7312753  47.1925306  39.9314547
  17.9013360  46.1326933  39.2500448  15.9821451  45.8913279  38.5642815
  16.0168433  45.0058746  38.1949997  15.6331539  45.5905819  41.7333078
  15.9928131  46.2220621  42.7674580  14.3922174  45.1218939  41.6326475
  14.1154706  44.7176552  40.7494116  13.3875382  45.2485752  42.6344395
  13.4197879  46.2969542  42.9310322  11.9725966  44.9349070  42.1535587
  11.7167246  45.6013393  41.3298512  11.9300485  43.8909101  41.8431234
  10.9545290  45.1504230  43.2690191  11.1309862  44.5663595  44.1722536
  10.9636629  46.2028742  43.5525084   9.4630086  44.9298573  42.7466106
   9.0795600  45.1847744  41.5284586   8.6313862  44.5622206  43.6094427
  13.6798811  44.5079422  43.9670753  13.7160802  45.1325464  45.0419664
  14.0445054  43.1914377  43.9072609  14.1718161  42.7752542  42.9958439
  14.3097031  42.3311138  45.0819206  13.4680259  42.5190973  45.7485104
  14.1894293  40.8121681  44.6446466  13.2478034  40.5619049  44.1559649
  14.9287379  40.5830574  43.8771582  14.3542993  39.8900747  45.8661985
  14.1346717  38.8926172  45.4854774  15.4173768  39.9002075  46.1067581
  13.4220040  40.0761652  47.1165323  13.3083069  41.0883570  47.5046587
  12.4636745  39.7148132  46.7435169  13.9857304  39.1491437  48.1786776
  14.3395257  38.1813550  47.8232718  14.7479641  39.6727872  48.7556553
  12.9215205  38.7420845  49.1004133  12.5636756  39.5681334  49.5583391
  12.2188962  38.1327653  48.7065220  13.3563185  38.2144570  49.8438263
  15.6571877  42.6517248  45.7330275  15.7546449  42.4512911  46.9592476
  16.6879392  42.9592514  44.9769735  16.5661776  42.8565264  43.9796162
  17.9765630  43.3509398  45.5596447  18.1729782  42.6050997  46.3298655
  19.0535307  43.1474304  44.4585848  18.8274646  42.2077274  43.9546537
  18.9862430  43.9060879  43.6788321  20.5222535  43.1210232  45.0063181
  20.6781054  43.9939928  45.6401491  20.4958415  42.3974228  45.8210564
  21.6368484  42.7788448  44.0904999  21.5044951  41.7377806  43.7959433
  21.5694213  43.4272623  43.2169342  22.9071927  43.0516958  44.7696638
  23.0125380  44.1356897  44.7253084  22.9015255  42.7150011  45.8063459
  24.0595651  42.4879980  43.9545012  24.9707222  42.7999449  44.2587709
  24.0451860  41.4790916  43.9991999  23.9705610  42.7492237  42.9829359
  18.1319880  44.7781706  46.1129856  18.8440633  44.8312283  47.0967865
  17.3328352  45.8093929  45.6415272  16.7824924  45.6267834  44.8145580
  17.1716452  47.1221685  46.3322973  18.1577229  47.4951792  46.6091061
  16.6325521  48.2016087  45.3615856  17.2707939  48.2721043  44.4808006
  15.6651461  47.8672409  44.9868441  16.6516912  49.6332359  45.8516884
  16.0182261  50.2589798  45.2229786  16.3747036  49.7133207  46.9028616
  18.3382380  50.3678560  45.7629681  18.5483944  50.7237196  43.9783001
  18.4795117  49.8403406  43.3434772  17.7838349  51.4288616  43.6522198
  19.5904815  50.9920263  43.8046074  16.4508319  46.9378519  47.6565409
  16.6875315  47.4896574  48.7472486  15.4190028  46.0955286  47.5688076
  15.2884328  45.5070019  46.7584419  14.4577348  46.0549212  48.6784315
  14.3637109  47.1214199  48.8829708  13.1068349  45.4120588  48.2111931
  12.4881494  45.2402210  49.0919876  12.6665771  46.1032772  47.4925184
  13.2876182  44.1930771  47.5130701  13.3437073  44.4867373  46.6008139
  15.0342226  45.2056980  49.8684692  14.8016191  45.4882240  51.0470295
  15.7622063  44.1312361  49.5544434  16.0459590  44.1419506  48.5851812
  16.3568735  43.3640671  50.6239843  15.5220735  42.9550838  51.1931515
  17.0685673  42.1691513  50.0347805  17.9011440  42.5096464  49.4191647
  17.6513183  41.3341999  51.1876535  17.9909027  40.4005909  50.7391357
  18.4940743  41.8618345  51.6342735  16.8705738  41.1027145  51.9121885
  16.1102462  41.4466429  49.2997742  15.9358406  41.9896841  48.5275793
  17.2811067  44.1735029  51.6175699  18.1730223  44.8489857  51.1496973
  17.0794511  44.1855001  52.9791212  15.9498942  43.6577463  53.6992264
  16.2570751  42.6533985  53.9908218  15.0841415  43.5528898  53.0453348
  15.8431578  44.4406033  54.9703741  15.1601756  43.8914633  55.6185102
  15.4153097  45.4245567  54.7783041  17.2745275  44.6594381  55.3670979
  17.6037347  43.7722778  55.9080935  17.4824083  45.5494165  55.9610891
  17.9611611  44.8737288  53.9792299  18.0165911  45.9137535  53.6577129
  19.3457115  44.2742586  53.9732361  19.4852829  43.1169891  54.2609024
  20.3803611  45.1439285  53.8846731  20.1270580  46.1084652  53.7246561
  21.7884159  44.8068476  53.9635277  22.0502925  43.9741516  53.3107376
  22.8267431  45.8488655  53.6195421  23.8160658  45.3991222  53.5354424
  22.4509883  46.4282322  52.2898865  22.1905851  45.6097794  51.6187477
  21.6074634  47.1066618  52.4175501  23.2398295  47.0432091  51.8567228
  22.9286695  46.8489742  54.6997356  23.6009169  47.5939417  54.2740536
  21.9656730  47.2782183  54.9763107  23.5083985  46.4402199  55.5273438
  22.0995641  44.1442537  55.3585386  22.9446387  43.2535601  55.4410410
  21.3137889  44.4972754  56.4020109  20.5742741  45.1809359  56.3256741
  21.4150357  43.8635921  57.7445555  22.4495912  43.7227011  58.0575180
  20.8189607  44.6819687  58.8662386  19.7370040  44.6406317  58.7406969
  20.9599566  44.1245556  59.7922564  21.4259386  46.0444355  59.0983677
  21.0024452  46.5132952  59.9865818  22.4879789  45.9208012  59.3102407
  21.1266661  47.0399046  58.0262280  19.9425125  47.0794487  57.5710487
  22.0158410  47.8173399  57.6019239  20.8415174  42.4402571  57.8815985
  21.4664316  41.5668964  58.5490561  19.7349524  42.1718264  57.1895170
  19.4489086  42.9757023  56.6490889  19.1141129  40.8218193  57.0586681
  18.9334095  40.4308558  58.0599689  17.7044570  40.9465313  56.3626385
  17.7284932  41.6790676  55.5558443  17.1268058  39.6560788  55.8674097
  17.0976031  39.0701556  56.7860746  16.1403084  39.7431040  55.4120493
  17.8011084  39.2971516  55.0898600  16.7655730  41.4432621  57.4669600
  17.0946634  42.3977280  57.8778219  15.7728612  41.5678501  57.0344067
  16.7382121  40.6878567  58.2522678  20.1088309  39.8739648  56.2941694
  20.3602290  38.7612605  56.8073130  20.9109306  40.3446054  55.3146458
  20.7100940  41.2570429  54.9309540  22.0317054  39.6255159  54.6688604
  21.7026472  38.6015844  54.4917011  22.4608207  40.3218794  53.3459663
  22.8045011  41.3146448  53.6364698  23.2988191  39.7435236  52.9569054
  21.4738870  40.6120968  52.2381306  20.6258607  41.0851192  52.7333069
  22.1587992  41.5241003  51.2457895  21.3490462  41.9634104  50.6632090
  22.6337290  42.3317862  51.8027306  22.8728962  41.1463118  50.5140543
  21.0228539  39.3499207  51.6232967  20.3290796  39.5766258  50.8137369
  21.9541478  38.9638686  51.2088585  20.6131124  38.6585641  52.3596621
  23.2634950  39.4425273  55.6107187  23.8348913  38.3583522  55.5704927
  23.6410618  40.4736185  56.3779497  23.0511212  41.2880802  56.2845469
  24.7648144  40.4893780  57.3302984  25.5746150  39.9079347  56.8895578
  25.3309536  41.8744850  57.5762987  24.5588326  42.4653530  58.0690527
  26.2199473  41.7834377  58.2003975  25.8560634  42.6688671  56.0203075
  24.6310925  42.7211618  55.4896307  24.3714738  39.7611856  58.7225914
  25.1928592  39.7055411  59.6823597  23.1449413  39.1629553  58.7962008
  22.6811218  39.1137147  57.9003477  22.6942205  38.2316422  59.8109007
  22.3817563  38.9591646  60.5600214  21.3990664  37.3967481  59.3426943
  20.5347681  38.0410552  59.1815853  21.6431022  37.0417833  58.3414221
  21.0741091  36.2043476  60.3383017  21.8092704  35.4000854  60.3098774
  21.1399651  36.6689038  61.3221502  19.7471690  35.5208969  60.0687313
  18.9457607  36.2474632  60.2026892  19.7565174  35.1855922  59.0316296
  19.6379483  34.2232990  60.9255838  20.4450631  33.5506678  60.6353569
  19.7440434  34.5647335  61.9552755  18.3395553  33.4561753  60.8195639
  18.2540941  32.9581833  59.9450302  18.2363355  32.7164149  61.4994144
  17.5643158  34.0965366  60.9146452  23.7885952  37.3431444  60.3296709
  24.3133926  36.4922071  59.6098709  23.9927983  37.3756552  61.6794538
  23.5165405  38.1176877  62.1720695  24.8432136  36.4608097  62.4615812
  24.5526528  36.6009808  63.5027504  24.5750904  35.4377294  62.1979237
  26.3939524  36.7572260  62.3167562  27.2317529  35.8383226  62.5240135
  26.8573809  37.9215026  61.9094419  26.1743379  38.6312747  61.6863346
  28.2689977  38.2475519  61.4983559  28.9429283  37.5869393  62.0438147
  28.3719397  38.0235648  59.9802494  27.5882888  38.5947847  59.4825554
  29.2781639  38.4880829  59.5915508  28.4965444  36.5540099  59.5423937
  29.4615102  35.6902432  60.0321770  30.2658319  36.0349655  60.6651306
  29.5589018  34.3280101  59.5931339  30.2940440  33.6581326  60.0141287
  28.5652971  33.8507342  58.7258482  28.6570883  32.7948570  58.5182476
  27.4766684  34.6836329  58.3306837  26.6419864  34.2388153  57.8092957
  27.4397349  36.0170746  58.7743425  26.6513753  36.6437697  58.3842850
  28.6313224  39.6743846  61.8912458  27.7443790  40.4553270  62.1939659
  29.9271321  40.0132513  61.8538189  31.0910225  39.1949940  61.6458035
  31.2693071  39.0703964  60.5777264  30.9979677  38.2235408  62.1313143
  32.3131871  39.9569368  62.1024084  33.2287407  39.6189737  61.6169739
  32.3891926  39.7872329  63.1764317  31.9165134  41.4018965  61.8910599
  32.1704531  41.7096949  60.8767271  32.5108504  42.0020676  62.5800180
  30.4459119  41.3336945  62.2683334  30.4199719  41.5281057  63.3405399
  29.6845722  42.5585222  61.5928650  29.4737506  42.5301981  60.3527212
  29.3443966  43.5506296  62.3813343  29.3231606  43.4768295  63.3884096
  28.7098384  44.7603989  61.8169928  27.7047753  44.5037413  61.4822197
  28.5052443  45.6531668  63.1239223  29.4668984  45.8773851  63.5855007
  28.0462670  46.6268826  62.9526949  27.9032469  45.1303101  63.8671017
  29.4788623  45.5116129  60.6584167  28.9338279  46.2099409  59.8517704
  30.7844162  45.3127480  60.5278158  31.2377644  44.8524666  61.3041639
  31.6298366  45.8270311  59.5206070  31.7312455  46.8948317  59.7145653
  32.9736185  45.2754641  59.6823454  33.0077124  44.2183161  59.9457359
  33.5262561  45.5899286  58.7970161  33.7451530  45.9854746  60.8555126
  34.7883749  45.7310820  60.6682205  33.8117337  47.0723534  60.9040594
  33.4002423  45.5413294  62.3192596  32.4452233  44.7575092  62.5793695
  34.1319919  46.0535002  63.2010698  30.9774113  45.5043411  58.1093454
  31.0307932  46.4288664  57.2468281  30.4739904  44.3422985  57.9426003
  30.2239323  43.7104797  58.6898470  29.9460816  43.9617872  56.5549660
  30.6907320  44.2482424  55.8123064  29.6009398  42.4723101  56.5008593
  28.8385749  42.3204231  57.2649479  28.9973116  42.2707367  55.6159306
  30.7518601  41.4941454  56.6081810  31.2564802  41.1619997  57.8779554
  30.7329988  41.5593815  58.7349606  32.3950052  40.3037596  57.9660797
  32.8689504  40.0511169  58.9030743  33.0409741  39.9248576  56.7715263
  33.9627004  39.3630576  56.8062115  32.4651527  40.1848125  55.5048132
  32.9147887  39.9702191  54.5465946  31.3202000  40.9749413  55.4763746
  30.8211899  41.0224485  54.5197487  28.7291765  44.8683977  56.2785292
  28.5442114  45.3545094  55.1855278  27.9401398  45.2083969  57.3149014
  28.1063390  44.9615622  58.2800674  26.8999434  46.2210464  57.1802235
  26.3560438  45.9523869  56.2746286  25.8923411  46.0669851  58.3195210
  25.5823374  45.0244427  58.2481432  26.3562965  46.3376093  59.2679977
  24.9842858  46.6446638  58.1468391  27.4383783  47.6230907  56.8896914
  27.0116496  48.2972288  55.9570551  28.3585310  47.9769468  57.7671576
  28.5814905  47.3353863  58.5146809  29.0250635  49.3139791  57.7143192
  28.3458328  50.1308012  57.9583311  30.1451397  49.3741751  58.7755585
  30.8703113  48.5751009  58.6216116  30.7120132  50.2995348  58.6732244
  29.6918917  49.3266964  60.2254963  29.2763710  50.2790260  60.5549049
  28.8743639  48.6162901  60.3482533  30.9573579  48.8672876  61.4411879
  30.1547146  49.3866539  63.0066586  29.7327328  50.3746748  62.8226995
  29.4018483  48.6458206  63.2758379  30.9746337  49.5424128  63.7077808
  29.6200824  49.6481991  56.3342714  29.5873260  50.7414770  55.8464289
  30.3431034  48.6912584  55.7628393  30.3225088  47.7737856  56.1846495
  30.8487892  48.7016821  54.3853664  31.5007782  49.5751810  54.3895912
  31.6709661  47.4465799  54.0735102  32.4701214  47.3241901  54.8045874
  30.9634233  46.6174746  54.0817785  32.2626019  47.3972321  52.6930285
  31.4868140  47.0267010  51.6115332  30.4425406  46.8168592  51.7900276
  31.9969153  46.9891500  50.3500891  31.4090705  46.7240429  49.4837427
  33.3115220  47.4394512  50.1339674  33.7323809  47.5857496  48.8172770
  33.0126882  47.4288940  48.2016182  34.0985775  47.7735329  51.2166500
  35.1238751  48.0288458  50.9930944  33.6091304  47.7236271  52.5214338
  34.1677737  47.8717613  53.4337807  29.7065425  48.9615488  53.3636761
  29.7195077  49.9592066  52.6637983  28.6741161  48.1002808  53.2777023
  28.6201668  47.3317337  53.9307880  27.5454831  48.2766819  52.3511553
  27.8937387  48.3075571  51.3187504  26.7084289  47.0354700  52.4871063
  26.6451693  46.7131042  53.5264254  25.6977057  47.2933054  52.1707821
  27.0914221  45.7370996  51.5969324  28.1690574  45.5734921  51.6033792
  26.2944746  44.4923687  52.0213318  25.2603340  44.7464418  51.7887306
  26.6496730  43.6475182  51.4312696  26.3573599  44.2813253  53.0888557
  26.6191649  46.1022806  50.1635885  27.1337390  46.9795561  49.7715425
  26.8181467  45.2786732  49.4778919  25.5739546  46.4114666  50.1570511
  26.7081523  49.4779634  52.5964880  26.3381958  50.1266050  51.6073465
  26.4048076  49.8753214  53.7853575  26.5950751  49.3149424  54.6038151
  25.8116245  51.1572361  54.0437794  24.8990369  51.2624693  53.4570742
  25.3590846  51.3242674  55.4828835  26.1935782  51.0951805  56.1456347
  25.0718784  52.3726082  55.5641270  24.0419769  50.5982637  55.8177757
  23.1292486  50.6688309  55.0350571  23.9568233  49.9867678  56.9138527
  23.1681848  49.3906450  57.1207190  24.8176146  49.8517609  57.4246502
  26.7378330  52.3065901  53.5988045  26.1962152  53.2368755  53.0254364
  28.0656958  52.3851871  53.7893152  28.5323453  51.6685104  54.3266392
  28.9407516  53.4226513  53.2250071  28.5871458  54.3759394  53.6178207
  30.3142524  53.2217026  53.7671041  30.2345777  53.1976748  54.8539209
  30.6292152  52.2207451  53.4721661  31.3291335  54.2441416  53.4053516
  31.6292596  55.3487635  54.2654133  31.2199855  55.4110718  55.2629232
  32.5245523  56.3438320  53.8043165  32.8487587  57.1688175  54.4213200
  33.0481339  56.2844038  52.5170135  33.8503909  57.2734547  52.1016932
  34.0250468  57.8973055  52.8101492  32.6911449  55.2327251  51.6463280
  33.1150842  55.2083588  50.6533146  31.8365812  54.1890812  52.1199894
  31.7299247  53.2740974  51.5562201  28.8384604  53.4306765  51.6883659
  28.8104415  54.5554781  51.1929369  28.8396049  52.2784424  51.0439587
  28.8810849  51.4609528  51.6356421  28.8898063  52.3367071  49.5692348
  29.6439576  53.0765867  49.3010378  29.0751028  50.9005928  48.9743233
  28.2119918  50.3178406  49.2960978  29.0686297  50.9166479  47.8844595
  30.6389070  50.0128746  49.4629526  30.2655149  49.8918915  50.7399940
  27.5933671  52.9267168  49.0335321  27.7092671  53.7869453  48.1282568
  26.3319492  52.6054049  49.4701433  26.2094498  51.9013166  50.1838303
  25.1475120  53.3935261  49.0256739  24.9853516  53.2802296  47.9537725
  23.7589025  52.8601456  49.4765854  23.6837506  53.1365156  50.5282879
  23.0203223  53.4386253  48.9216471  23.4768271  51.3791418  49.2164183
  24.0059948  51.1522722  48.2908869  23.7844181  50.7478333  50.0500441
  21.9778419  51.1570263  49.0452719  21.6224766  51.5883398  49.9811077
  21.5062451  51.6731405  48.2090187  21.4862633  49.7637558  48.9481068
  20.9254789  49.4083881  49.7092438  21.9209838  48.8792324  48.1022739
  22.7406120  49.2503214  47.0731926  22.6852512  50.1900053  46.7070913
  23.1813836  48.6064577  46.4318943  21.7086577  47.5962210  48.2009554
  21.0331273  47.3332548  48.9042377  22.2780085  46.8869400  47.7617979
  25.2947879  54.8805332  49.3549728  24.6220016  55.7213020  48.6988831
  26.0498667  55.1839304  50.4000807  26.5165377  54.4164324  50.8618879
  26.2285709  56.5678740  50.7468271  25.2727866  57.0801401  50.8571100
  26.6534257  56.5970087  51.7501974  27.0240569  57.4694109  49.8557138
  26.7736483  58.6564589  49.9511576  27.8500843  56.9486046  48.9579010
  27.9786229  55.9490490  49.0246868  28.4439278  57.6973963  47.8444719
  29.0019560  58.5235691  48.2850885  29.4161987  56.7030334  47.2095871
  28.8214660  55.8748722  46.8241787  29.8928690  57.1971226  46.3629723
  30.5782986  56.0794926  48.0662489  30.1311922  55.5810976  48.9263630
  31.4104080  55.1765251  47.2026062  32.0529604  55.7929564  46.5739250
  32.0343184  54.5615053  47.8511286  30.7792187  54.6198988  46.5098763
  31.4974618  57.1605778  48.6052656  30.9370708  57.9593945  49.0910149
  32.1421623  56.6795111  49.3408203  32.1046019  57.5669622  47.7963543
  27.4158287  58.1649780  46.8741417  26.5641189  57.4100828  46.4217424
  27.5017309  59.4404840  46.5860176  28.2015300  60.0046730  47.0465326
  26.8485546  59.9335623  45.3533363  25.8161688  59.5844841  45.3738070
  26.7534757  61.4819288  45.3330517  27.7567291  61.8068171  45.6087923
  26.6018248  61.9823742  44.3766737  25.8752608  62.1824360  46.3918257
  24.8490143  62.1985960  46.0248661  25.7888103  61.6919374  47.3613882
  26.1839271  63.6744404  46.4624882  26.5569353  64.0006781  45.4916477
  25.2452946  64.1287708  46.7797565  27.1987057  63.8748741  47.5598764
  26.8289590  63.9367485  48.4977245  28.4681845  63.9674664  47.4754333
  29.1348243  63.9485168  46.4113235  28.7355494  64.1482592  45.5053520
  30.1027179  63.6637115  46.4579248  29.2040682  63.9835215  48.5148144
  28.9332962  63.8505697  49.4787169  30.1976824  64.1120195  48.3870506
  27.6010060  59.3713331  44.1177511  28.7162423  58.8607502  44.2000866
  26.9196343  59.5012951  42.9856968  25.9820366  59.8591042  43.0996799
  27.4026108  59.2691612  41.6219425  27.2181869  58.2053995  41.4719391
  26.4674330  59.8706675  40.6066513  25.5725217  59.2611599  40.7320976
  26.2620091  60.8963013  40.9132195  26.8026543  59.6924734  39.1189384
  26.8658948  58.4289074  38.4978509  26.5225482  57.5797844  39.0701365
  27.1670008  58.3207893  37.2122002  27.1518087  57.3264885  36.7908502
  27.5180793  59.4945669  36.4286184  27.8396797  59.4342518  35.3993726
  27.5474072  60.7392597  37.0388532  27.9467630  61.5451574  36.4409852
  27.2705173  60.8140516  38.4080243  27.3334503  61.7467022  38.9489651
  28.9173746  59.4971132  41.4671421  29.6199775  58.5482883  41.1239624
  29.3820715  60.7441139  41.5942383  28.6306047  61.3949823  41.7724800
  30.7381296  61.2213564  41.3448668  31.1004877  60.5794096  40.5419350
  30.7590580  62.6785374  40.8853960  31.6688967  62.8134680  40.3005123
  29.9863458  62.8138924  40.1286316  30.6815147  63.8232899  41.9774532
  31.5014577  63.6644459  42.6778555  30.7044601  64.7565222  41.4147329
  29.3861675  63.8369894  42.7620125  29.3636990  64.4681120  43.8061142
  28.2728100  63.4696627  42.2655582  31.6129231  60.9544659  42.5941896
  32.8540421  61.2220669  42.5198936  30.9825969  60.5838299  43.6912775
  29.9809194  60.4675865  43.6343908  31.6292214  60.5402946  45.0437260
  32.0190692  61.5533543  45.1428366  30.6484509  60.4148483  46.2342644
  29.8167920  61.0726738  45.9818554  30.2536607  59.3989563  46.2199879
  31.2655544  60.6692934  47.6132584  30.5388951  60.3058577  48.3398771
  32.1867776  60.0927019  47.6968479  31.6177678  62.1656752  47.9634094
  31.9845390  62.3312521  49.1273832  31.6318107  63.0694342  47.0859289
  32.7958369  59.4965696  45.1227665  32.6682687  58.2905245  45.0160217
  33.9447927  59.9910498  45.4623985  34.0991187  60.9855890  45.3776693
  35.1363707  59.1486406  45.8343077  35.2402282  58.4580231  44.9974346
  36.3833117  60.0894499  45.8607054  36.5535164  60.4318810  46.8814230
  37.2996092  59.6017790  45.5280161  36.2060595  60.9901667  45.2730083
  34.8807025  58.4520054  47.2063017  34.3409395  58.9913464  48.1674099
  35.3458571  57.1830130  47.3454428  35.6882906  56.3416052  46.2198210
  36.7441750  56.4195967  45.9607410  35.0988197  56.4995098  45.3166676
  35.3621531  54.9617624  46.7490959  35.8923507  54.1472244  46.2556219
  34.3050337  54.8130226  46.5289211  35.5076504  54.9542046  48.3062696
  36.4044905  54.5137835  48.7419367  34.6138024  54.5052624  48.7393808
  35.3709769  56.5087128  48.6330986  34.4812942  56.8073273  49.1875267
  36.5198350  56.9071913  49.4228029  37.5570321  57.0518112  48.8132572
  36.4832544  56.7488146  50.7848692  35.6200862  56.7651272  51.3090658
  37.6722646  56.6451120  51.6763544  38.4544158  57.1961689  51.1541605
  37.5398302  57.4655962  52.9818869  37.0680261  58.4248495  52.7689600
  36.7412400  56.9285107  53.4936380  38.8558459  57.5180531  53.7040281
  39.8545909  57.0659018  53.0796194  38.8263059  57.9063749  54.8472404
  38.2247400  55.1784229  51.7338562  38.1383395  54.4755363  52.7364159
  38.9645505  54.7759819  50.6706238  39.0012264  55.3517246  49.8416042
  39.6275210  53.4778023  50.5626535  38.8931465  52.6751471  50.4952717
  40.5690098  53.4493065  49.3374920  41.4560032  54.0593100  49.5084858
  40.9724569  52.4515390  49.1648960  40.0132656  53.8935137  47.9908180
  39.3343639  52.9949236  47.1547604  39.2820549  51.9443512  47.3996162
  38.7722135  53.5112953  45.9515858  38.1862330  52.9044199  45.2772427
  38.9366961  54.8587179  45.5697823  38.5641551  55.1800156  44.3097782
  38.4841633  54.4313717  43.7141848  39.4829345  55.7192135  46.4696455
  39.5371580  56.7900467  46.3401127  39.9974942  55.2528143  47.6805115
  40.3919315  55.9989691  48.3543634  40.5218983  53.1844902  51.7461443
  40.5512953  52.0076513  52.2042084  41.2634134  54.1636229  52.2920847
  41.1458397  55.1300573  52.0232201  42.1179533  53.9076185  53.4781218
  42.8778076  53.1380939  53.3419228  42.9006720  55.1781225  53.9003897
  43.3323240  55.7243299  53.0616808  42.2150087  55.9248400  54.3008757
  43.9247417  54.8592138  55.0259399  43.4340620  54.6733999  55.9813499
  44.4224596  53.9082718  54.8359823  45.2221394  56.1956644  55.2497387
  44.1483021  57.5623941  55.6936312  43.9475489  57.6707125  56.7594957
  44.7929192  58.4119320  55.4681015  43.2622433  57.7329016  55.0821400
  41.3156939  53.5790730  54.7145605  41.6490698  52.8405619  55.6742001
  40.2206993  54.3231106  54.8652411  39.9680948  55.0320482  54.1916704
  39.1791987  53.9768410  55.9016609  39.6147776  53.9870691  56.9007921
  38.1795454  55.1290560  56.0074949  38.6104798  55.9838200  56.5288162
  37.7723789  55.5272245  55.0780964  36.9297934  54.6770573  56.7485189
  36.9114351  54.3121815  58.1011152  37.7856851  54.2178535  58.7281656
  35.7153583  53.8521481  58.6329603  35.7037473  53.3034372  59.5631123
  34.5018077  53.8145304  57.9146957  33.3868551  53.4564352  58.5094213
  33.5655475  53.0531597  59.3620872  34.5086575  54.2239332  56.5720463
  33.7003160  53.9699984  55.9023476  35.6989384  54.6848631  55.9799147
  35.6312227  54.9188423  54.9277401  38.5331488  52.6108122  55.7116318
  38.5432839  51.7246294  56.5920067  38.0085111  52.2772121  54.5324135
  37.9146695  53.0481958  53.8867521  37.4552393  50.9587812  54.0776157
  36.5832400  50.7320929  54.6910763  37.0307851  51.0513830  52.6014233
  37.8728008  51.3980293  52.0023012  36.7511702  50.0339985  52.3278522
  35.7701588  51.9625282  52.3602200  35.8435249  52.9714632  52.7661419
  35.3398609  52.1213245  50.8833981  34.7628140  51.2449837  50.5882025
  34.6523094  52.9659271  50.9283161  36.2270522  52.1215963  50.2501535
  34.6047330  51.1694860  53.1048679  33.6152720  51.5543461  52.8579760
  34.5564675  50.1127863  52.8418732  34.7327757  51.3218927  54.1765404
  38.3990598  49.8041677  54.3514299  37.9041243  48.6723089  54.7225285
  39.7338247  50.0271416  54.2672825  39.9497271  50.9032869  53.8135672
  40.8274364  49.2147636  54.7485065  40.5956602  48.1865501  54.4707298
  42.2149754  49.5976734  54.1824865  42.4058867  50.6612110  54.3258047
  42.9879665  49.0955877  54.7642899  42.2634459  49.1121674  52.7508450
  41.7842674  48.1432819  52.6103067  41.6681767  49.7449446  52.0925570
  43.6554813  49.1002750  52.2278643  44.3873215  48.5952854  52.8583431
  43.6712074  48.6213636  51.2488365  44.0928125  50.4644012  52.0093822
  44.6165466  50.8986473  52.7558613  43.9773560  51.1450195  50.8639002
  43.8216305  50.5349493  49.7075367  43.6315727  49.5436621  49.7439575
  44.0239000  51.0756016  48.8787508  44.1618872  52.4047995  50.7069349
  44.5650005  52.9949570  51.4205980  44.0876579  52.8173399  49.7880268
  40.8718443  49.1288519  56.3231039  40.7720995  48.0414581  56.9159651
  40.9619904  50.2600670  57.0314169  41.2370110  51.0840559  56.5161467
  40.8925772  50.4287243  58.5318232  41.8256521  50.0294113  58.9293289
  40.8280516  51.9293737  58.8589144  41.7651749  52.3720837  58.5214090
  40.0741291  52.4752951  58.2917500  40.6953239  52.2084379  60.3612137
  39.7227716  51.9100475  60.7526350  41.4364386  51.6024446  60.8823776
  40.8777332  53.7364054  60.6980753  40.4065609  54.6303511  60.0257874
  41.6675758  53.9554596  61.7202902  41.7384529  54.8801422  62.1203375
  41.8826008  53.1508541  62.2916746  39.7783065  49.5711565  59.1456175
  40.1270866  48.9312983  60.1559925  38.5835457  49.7312212  58.6695671
  38.4073782  50.1476336  57.7664280  37.4593806  48.9819813  59.2557049
  37.3170495  49.3989277  60.2526999  36.3019514  49.1929293  58.2494926
  36.1908746  50.2675676  58.1048632  36.6179061  48.7330484  57.3131275
  34.9341583  48.5550213  58.6212349  35.0175905  47.5361919  58.9995527
  34.3910289  49.4513702  59.6896744  34.3940711  50.4907894  59.3614912
  33.3432150  49.1607237  59.7652578  35.0033712  49.2975092  60.5781937
  34.0388465  48.5725403  57.3640203  34.0388584  49.5966578  56.9907999
  34.2860413  47.8020906  56.6336775  33.0029392  48.3138418  57.5832701
  37.7998066  47.4952221  59.4310856  37.8631854  47.0377827  60.5550671
  38.0551624  46.7861366  58.3319712  38.1631446  47.2516489  57.4421740
  38.4192634  45.3844452  58.4918547  37.6677704  44.8024940  59.0254259
  38.4519720  44.6839094  57.1801853  39.3683410  45.0240326  56.6978121
  38.6034346  43.6219358  57.3735094  37.2459149  44.9639416  56.2719584
  37.3405814  45.5928326  55.0511789  38.2725048  46.1089849  54.8736763
  36.1199403  45.9406662  54.3048906  36.2735653  46.4960289  53.3914518
  34.9135303  45.2614164  54.6272421  34.0021682  45.3652906  54.0571260
  34.8730779  44.4734240  55.7615566  33.9882755  43.9204836  56.0404491
  36.0570574  44.2532253  56.5423632  36.1000323  43.5643721  57.3730516
  39.7299433  45.1592445  59.2854309  39.8282909  44.2197609  60.0798416
  40.7598305  45.9883022  59.1029167  40.6160259  46.7268085  58.4290981
  41.9911480  45.9997082  59.9826908  42.4390173  45.0276232  59.7763634
  43.0508661  47.0405293  59.5369768  42.6255274  48.0367088  59.6586514
  43.7877941  46.9347000  60.3331137  43.7143850  46.8889189  58.2115841
  44.2445564  45.9375191  58.1685162  42.9180908  46.9982243  57.4753332
  44.6868896  48.0079079  57.8264570  44.1187382  48.9378023  57.8511047
  45.4709244  48.1471014  58.5707808  45.2665663  47.6850510  56.5240717
  44.8652363  46.9229603  55.9965754  46.0494757  48.3459234  55.7221031
  46.6606760  49.4222355  56.0655928  46.7055082  49.6522617  57.0480299
  47.2690964  49.9530554  55.4588318  46.3603115  47.9072428  54.5740795
  46.0085106  47.0207882  54.2416096  46.8577957  48.4886742  53.9148712
  41.6881800  46.1439133  61.5192938  42.2593355  45.3886175  62.3003960
  40.7757950  46.9943285  62.0229244  40.3059053  47.6821232  61.4517403
  40.3206396  46.9579792  63.4539270  41.1164427  47.0083714  64.1970682
  39.4009089  48.1884670  63.7380028  38.7090468  48.0493975  62.9072857
  38.7139344  48.1378460  65.0610828  39.3231964  47.7344322  65.8698797
  38.2101774  49.0605450  65.3491068  37.9442286  47.3708200  65.1466560
  40.2464390  49.4663715  63.6123848  40.9773540  49.4650888  64.4210052
  40.7664108  49.4559622  62.6544523  39.3674755  50.6419420  63.6109447
  38.4856939  50.4553509  62.9979610  39.1597247  50.9434938  64.6375942
  39.9330688  51.4830732  63.2100677  39.5480299  45.6704235  63.7596083
  39.7770667  44.9938011  64.8031425  38.6751866  45.1774836  62.9013443
  38.5656142  45.6805325  62.0324135  37.9104543  43.9334011  63.1079292
  37.3976350  43.9042616  64.0693235  36.7708373  43.7847710  62.1060753
  36.0574651  44.5965290  62.2483587  37.2487760  43.8368845  61.1278296
  35.9379315  42.5228930  62.1095848  36.5690994  41.6405058  62.0041132
  35.2177334  42.3702765  63.4367275  34.4161534  43.0861282  63.6187649
  34.9720883  41.3091516  63.4788084  35.9762120  42.3674107  64.2195415
  34.9580741  42.4149942  60.9546947  34.0982747  43.0646229  61.1184835
  35.4057670  42.7471495  60.0180244  34.6407795  41.3876343  60.7759190
  38.8248229  42.7320051  63.2313013  38.7229919  42.0610046  64.2719030
  39.6954894  42.5109339  62.2837019  39.7690725  43.1801844  61.5308475
  40.7555294  41.5439510  62.3773909  40.3818512  40.5203295  62.3516464
  41.6970110  41.7882729  61.1103821  41.0491753  41.7774010  60.2338600
  42.1514177  42.7752304  61.1971617  42.6901674  40.7651091  60.7771778
  42.2977114  39.5854759  60.1293755  41.2794065  39.2278433  60.1687670
  43.1735277  38.6293173  59.6918058  42.8641558  37.7400374  59.1627836
  44.5617867  38.9040780  59.8366404  45.2323580  38.2045698  59.3597507
  45.0143099  40.0471306  60.5459881  46.0828400  40.1971531  60.5921650
  44.0885019  41.0261583  60.9122705  44.4352961  42.0325565  61.0947466
  41.6716146  41.5898132  63.6667013  41.9418049  40.5216599  64.2224598
  42.1205997  42.8123665  64.0818262  41.9731903  43.6201143  63.4936857
  42.6651573  43.0666780  65.3879929  43.5184145  42.3927736  65.4648876
  43.1423855  44.5305395  65.5188322  42.2617435  45.1478958  65.3415203
  43.4194088  44.8056936  66.5365028  44.2894077  44.9208307  64.5765066
  45.2430725  44.5978498  64.9940014  44.1926575  44.5033121  63.5742950
  44.2748356  46.4858055  64.4932318  43.3399153  46.8206978  64.0439224
  44.3862772  46.8965673  65.4967070  45.4933119  46.9733667  63.7960529
  46.3807583  46.5048265  63.9100981  45.7511520  47.9516792  62.9443645
  44.7550535  48.6237478  62.4612474  43.8102007  48.3673573  62.7094793
  44.8275375  49.2565536  61.6774082  47.0331097  48.1224203  62.5752640
  47.7430725  47.6638222  63.1282043  47.1664095  49.0337944  62.1608639
  41.7734146  42.6600552  66.5420198  42.2694206  42.1295166  67.5242472
  40.4693127  42.8576183  66.4646912  39.9989128  43.3365726  65.7100868
  39.6109080  42.6927757  67.6431704  40.0450134  42.9637575  68.6055756
  38.3981276  43.5945845  67.5414324  37.8590679  43.2386255  66.6634750
  37.4513721  43.3797264  68.6943150  37.9597974  43.4718990  69.6540642
  36.6962266  44.1650248  68.6602688  36.7848158  42.5218296  68.6058998
  38.7161088  44.9287605  67.3549604  39.2411447  44.9941015  66.5539169
  39.3295336  41.1518812  67.7955055  39.1567111  40.6267834  68.9016199
  39.3562150  40.3591967  66.7151356  39.3506742  40.8274603  65.8202600
  39.5113444  38.8866138  66.6632128  38.8601112  38.4700203  67.4316168
  38.8394070  38.3264565  65.3918123  39.3157744  38.7502956  64.5077610
  39.0170002  37.2512031  65.3720427  37.3661113  38.6009860  65.0803089
  37.1976042  39.6778488  65.0888586  36.9840169  37.9789281  63.7303257
  35.9342265  38.1227088  63.4746456  37.5836492  38.3894014  62.9178905
  37.2721696  36.9287753  63.7777662  36.3690209  37.9628587  66.0548544
  35.3518677  38.1753325  65.7256842  36.5360475  36.9003582  66.2317514
  36.2533498  38.4095216  67.0423841  40.9764957  38.4289098  67.0061398
  41.0694695  37.2813439  67.4440002  41.9919920  39.2547393  66.8515444
  41.8078327  40.1481342  66.4179134  43.4196472  39.0285707  67.1461296
  43.8586903  40.0262260  67.1413612  43.5484362  38.5999179  68.6182880
  42.7072001  38.9512515  69.2157650  43.3551788  37.5382495  68.7719727
  44.7714376  39.0346384  69.2980003  45.3155327  40.1001644  69.2014980
  45.3658628  38.1364298  70.0591660  46.2196445  38.4059310  70.5266333
  45.2827978  37.1489835  69.8638487  44.1890907  38.2086635  66.1252069
  45.2730179  37.7587962  66.4892769  43.6714840  37.9871249  64.8866940
  42.8905249  38.5915375  64.6748161  44.3221617  37.4229574  63.7451744
  44.5481062  36.3990688  64.0430069  43.3733845  37.3547673  62.5474548
  43.1962204  38.3750033  62.2071075  43.9305162  36.7176247  61.8606138
  41.9832706  36.7822433  62.8101587  40.7733870  37.2042203  62.2182703
  39.7724438  36.3190532  62.5732803  38.7965584  36.3352537  62.1109104
  40.2748156  35.5124140  63.5626554  39.6766210  34.8452449  64.0286446
  41.6746807  35.7804966  63.7057257  42.4324512  35.3269696  64.3274164
  45.6282187  38.1450272  63.3710194  45.7434464  39.2973804  63.6971951
  46.5416241  37.4153090  62.6732779  46.3343287  36.4709902  62.3810673
  47.7102566  38.0489731  62.0471478  47.5986719  39.1067648  62.2853184
  48.9701986  37.5044537  62.7539682  48.9359140  36.4169788  62.6882410
  49.8544550  37.8561163  62.2224379  49.0770006  37.8721786  64.2786264
  48.2455444  37.4886465  64.8699665  49.9822664  37.4447227  64.7097635
  49.2852068  39.3746710  64.5284748  49.7306681  40.0706720  63.6679840
  48.8439035  39.8752999  65.6999874  48.8842630  40.8757877  65.8322525
  48.4326410  39.3030143  66.4234924  47.7267599  37.7718806  60.4894686
  47.1610928  36.7914128  59.9773693  48.4044170  38.6653209  59.8078775
  48.7850380  39.4906926  60.2483225  48.6556053  38.5458279  58.3600616
  47.8344774  38.0703688  57.8236055  48.6962938  39.9910164  57.7636909
  47.8685093  40.5137730  58.2428551  49.6833801  40.3384638  58.0687189
  48.4534597  40.0441933  56.3214159  49.5914412  40.2049923  55.4530096
  50.5791998  40.0008774  55.8391190  49.3585777  40.5934381  54.1413307
  50.1957560  40.9725523  53.5740566  48.0772018  40.7780504  53.6355829
  47.7791929  41.1973524  52.3499918  48.6189604  41.3059139  51.8976498
  47.0022202  40.4630136  54.4710684  46.0234451  40.4504681  54.0147352
  47.1589804  40.0136566  55.7776928  46.2809515  39.6873927  56.3152981
  49.8881340  37.7118301  58.0681419  51.0085964  38.1695890  57.7643967
  49.6316004  36.3517690  58.0295944  48.6732340  36.1832500  58.3002377
  50.6253386  35.3355551  57.6969051  51.5729809  35.8017707  57.4272490
  50.8464432  34.4513893  58.9345217  51.4990902  33.6180353  58.6743927
  51.3519526  35.0578713  59.6860123  49.5620060  33.7612605  59.4550705
  48.5540676  33.4717298  58.7901115  49.5702648  33.4533381  60.6738997
  50.1906919  34.4498539  56.4695358  50.9489059  33.5269332  56.1343384
  49.1147280  34.8411345  55.7719994  48.5755682  35.6053472  56.1532974
  48.6078072  34.2214370  54.5764446  47.7140379  34.6766949  54.1498137
  49.5452547  34.3863869  53.3853674  50.3741074  33.6920285  53.5230780
  48.9752483  34.0876985  52.5056076  50.0377893  35.7582498  53.1161356
  49.2561245  36.6453147  52.3922729  48.1944036  36.4749169  52.2916698
  49.8905897  37.8128695  51.9228888  49.4730234  38.5025406  51.2042856
  51.2165833  38.1351399  52.2709131  51.6719389  39.3534994  52.0079947
  52.6035404  39.1978407  52.1797276  51.9190598  37.2711778  53.1091738
  52.8809977  37.5776505  53.4927702  51.3669968  36.0635281  53.4844685
  51.9848156  35.3546023  54.0156269  48.0572367  32.7873349  54.7786617
  47.8434896  32.0914006  53.7842226  47.6362228  32.3533416  55.9670448
  47.9478073  32.8988862  56.7578602  47.3569489  30.9584355  56.1596823
  47.9539919  30.3672814  55.4652929  47.7561331  30.5568743  57.6393747
  47.0330095  31.0258913  58.3066177  47.7256060  29.0943742  57.9213905
  46.7968607  28.6521268  57.5608921  48.4395361  28.5763574  57.2810268
  47.8045368  28.8590717  58.9827585  49.0520096  30.9580827  57.9968071
  48.9979601  31.8931103  58.2075357  45.8124161  30.7076859  55.9416008
  45.0664043  30.4976463  56.8600893  45.4327917  30.7894254  54.6746063
  46.1109209  30.9490418  53.9433289  43.9835978  30.7247233  54.1860342
  43.4639502  31.5279150  54.7084856  43.9789104  30.9771156  52.6803303
  44.5726490  30.2557755  52.1188641  42.9169083  30.9551311  52.4358368
  44.5363379  32.3146582  52.2464609  43.8546562  33.5347867  52.5523949
  42.9730606  33.5096622  53.1757450  44.3884850  34.8517442  52.1645021
  43.8448238  35.7402134  52.4499130  45.5117083  34.8717618  51.3113260
  46.0051870  35.7624269  50.9513330  46.1828709  33.6813664  50.9872723
  46.9937658  33.6932254  50.2740288  45.6874418  32.4298191  51.4359093
  46.0997200  31.4497280  51.2465763  43.3386230  29.2941213  54.4375610
  44.0343666  28.3085108  54.5802021  42.0480919  29.1752505  54.4348383
  41.4078569  29.9116492  54.6954584  41.3497925  27.8798032  54.3577576
  41.4962912  27.3749328  55.3126097  39.9308777  27.9660106  54.0659571
  39.7132945  28.3908772  53.0860329  39.6001196  26.9324660  54.1683388
  39.1563153  28.8319778  55.0415421  38.1024432  28.4141278  55.5908918
  39.6209097  29.9678588  55.3918076  42.0049047  26.7944288  53.4373617
  42.0933390  25.6015325  53.8101196  42.3234653  27.1897960  52.2278404
  42.0476913  28.1178164  51.9400501  42.8669357  26.1838055  51.2863922
  42.1709871  25.3449082  51.2834024  42.8029537  26.7301917  49.8526955
  43.2367134  25.9915090  49.1786766  41.7497396  26.6681004  49.5788622
  43.3590603  28.0530524  49.5656824  44.6484423  28.2724547  49.2354631
  45.4006290  27.5041413  49.1338873  44.8314428  29.6215534  48.9586544
  45.7122517  29.9681258  48.6062860  43.6636448  30.3727007  49.2904472
  43.4156609  31.7720413  49.2529392  44.0735960  32.5650215  48.9293575
  42.0520639  32.1291399  49.6316147  41.5990162  33.1055856  49.5439148
  41.1644697  31.1482644  50.0761938  40.1441050  31.4128137  50.3112984
  41.4255381  29.8267150  50.0558519  40.7510805  29.0711856  50.4309273
  42.7607727  29.3679619  49.7100163  44.2724705  25.6494522  51.6964626
  44.4390488  24.4798660  51.5006590  45.1003218  26.4231730  52.3419523
  44.9103785  27.4112368  52.4300337  46.3971758  25.9765840  52.9156876
  47.0625925  25.5752540  52.1513224  47.1662807  27.1136379  53.6396122
  48.1925106  26.8515348  53.8970280  47.2941685  28.3749151  52.7529860
  47.8356743  29.0689278  53.3958054  47.7015686  28.1714821  51.7626619
  46.3339758  28.8068461  52.4709082  46.5027714  27.3774195  54.8646259
  45.8284521  28.0111456  54.6091223  46.2054253  24.7981143  53.8380146
  47.1218824  23.9828324  53.8652277  45.0466824  24.6207571  54.5448732
  44.2386293  25.2128482  54.4161272  44.8361254  23.5705948  55.5792999
  45.6912947  23.6360216  56.2519789  43.5836792  23.9736485  56.3634253
  42.7451468  23.8671994  55.6752205  43.4654379  23.2803535  57.1961689
  43.6437225  25.3353381  56.9827223  44.3688488  25.3280044  57.7965069
  43.9764023  26.0407758  56.2212896  42.0804024  26.0075188  57.7135611
  42.5943089  27.6717734  58.1087017  43.4540987  27.6202083  58.7766981
  42.7869654  28.1477427  57.1472263  41.7489243  28.2445526  58.4899473
  44.7243214  22.1784592  54.8867607  44.9092245  21.2003827  55.5521250
  44.2343187  22.1952200  53.6869812  44.2908049  23.0899382  53.2217979
  43.7130880  21.0427999  52.9094887  43.4712029  20.2920485  53.6617947
  42.4602747  21.4998722  52.1122408  42.7446890  22.3235583  51.4574528
  42.1066284  20.8010936  51.3541174  41.2924099  22.0658946  52.9400635
  41.7013693  22.7767825  53.6580515  40.3527164  22.6545477  51.8738937
  40.1048183  21.9124389  51.1149931  39.4730949  23.1232929  52.3150778
  40.9087467  23.4283376  51.3445711  40.4144526  20.9684277  53.5905838
  39.9742770  20.3247881  52.8289604  41.0344887  20.3434944  54.2333221
  39.6612191  21.3983178  54.2508459  44.8138618  20.5436301  51.9924641
  44.7267246  20.5407619  50.7489681  45.8753157  20.0191545  52.6517487
  45.7632685  19.9904537  53.6551046  47.1639442  19.4573724  52.0712566
  47.7484703  20.0993514  51.4122438  48.1435919  19.1770101  53.2629156
  48.4312582  20.0529933  53.8442945  47.5754499  18.4436929  53.8352489
  49.4924688  18.4607375  52.8261805  49.8356438  17.9013705  53.6964893
  49.4177818  17.7809346  51.9774199  50.4891062  19.5326972  52.4583530
  49.9291134  20.1864624  51.7896986  50.7335281  20.1578212  53.3171797
  51.8066549  19.0441048  51.9224882  51.6375208  18.3929801  51.0648584
  52.2322512  20.0105095  51.6522312  52.6037598  18.3473587  52.9689598
  52.6101208  18.9900804  53.7480402  52.2579336  17.4462438  53.2664442
  53.5599995  18.1804669  52.6899195  46.8445635  18.1366241  51.3842344
  45.9778500  17.4970782  51.8958473  47.3977852  17.8251994  50.1997900
  48.1535625  18.3984756  49.8530149  47.0389271  16.6755974  49.2510700
  46.3479185  15.9678674  49.7090292  46.2102985  17.2406650  48.0791569
  46.7812252  17.8911781  47.4166012  45.8862209  16.3922048  47.4765062
  44.9027634  17.9324639  48.4389877  44.4575834  17.4803007  49.3252516
  45.1265717  18.9627230  48.7157345  43.8753939  17.9525387  47.3149633
  44.1966772  17.9292393  46.1169672  42.6546288  18.1452763  47.6327085
  41.9572115  18.2237613  46.9063807  42.3687744  18.1611156  48.6012840
  48.2388306  15.8916008  48.7932062  49.1350126  16.3883483  48.1319904
  48.2939005  14.7430360  49.2777491  42.0575619  61.7007256  20.3535342
  35.3588319  21.6913700  32.4904919  22.7609968  52.4068165  23.9723277
   1.7139973  32.2384191  48.0031633  67.6617336  32.3946929  12.5622785
  76.9280621  27.3487020  35.1266956  54.3269348  14.3412793  21.5672755
  70.3811932  48.2493973  57.2552156  23.0720234  26.1407495  15.1651263
  49.2958307  58.2274437  34.2737174  50.3958207  71.6040646  28.1408834
  24.1580963  59.6644449   6.2364477   6.9243289  22.2340282  28.7261987
  62.1573488  62.2889577   8.5750486   5.8713206  69.8194135  62.0019865
   6.6930183  69.4858608  61.6417265   5.9342488  70.7693360  61.9023895
  72.5573794  40.4413198  33.2828667  71.6341464  40.3214629  33.5053779
  72.9745213  40.6785385  34.1110851   1.9984532  54.0958677   5.3391077
   2.7291060  54.6872376   5.5198337   2.3925877  53.3682679   4.8579742
  17.9839294  14.3485494  13.3696081  17.6187389  14.0399785  14.1988565
  18.9309947  14.3438430  13.5084631  29.6452231  56.6625379  24.0266563
  29.4082031  55.7424270  24.1426327  29.0733565  57.1352445  24.6314289
   4.1242973  11.8792052   6.3731100   4.5637672  11.2942882   6.9903375
   3.4554474  11.3329454   5.9602358  52.2393918   3.0964608  19.1023113
  51.5564830   2.4265761  19.1358043  53.0421621   2.6321812  19.3394424
  71.8352763  57.7854191  13.8553573  71.6964070  58.0373441  12.9424097
  70.9615771  57.5656186  14.1787292  60.2116171  41.7566310  45.8559276
  60.8928863  42.1408592  46.4077141  60.6561629  41.0550548  45.3801109
  20.5367725  15.6233926  42.4490120  20.5360191  16.5295692  42.7573540
  21.4194028  15.4885144  42.1040394  33.6618297   5.3245397  24.9136593
  33.0583446   6.0648675  24.9764969  33.5043637   4.9604459  24.0425255
  57.3758173  19.4245565  51.2747526  57.8548241  19.4488180  52.1031237
  58.0164766  19.1103601  50.6367350  52.9209367  54.3974124  18.7907650
  53.4372631  54.3861900  17.9848434  52.1410767  53.8828360  18.5827686
  68.6564700  46.9683676  29.1031887  68.2403199  47.5537132  28.4703972
  68.0397335  46.9284098  29.8341228   6.5164988  23.8011880  26.1568405
   7.2764890  23.5076137  25.6543876   6.5303580  23.2632012  26.9484283
  55.4421822  52.9690658  40.4036476  55.0236050  53.3409773  41.1799862
  54.9815122  52.1431719  40.2556087  57.6625792  66.6095363  51.7095329
  57.0762102  66.9578110  51.0378887  57.1008102  66.0606800  52.2567131
  31.1824100   6.3964171  36.8720867  30.8531158   5.5174680  37.0598080
  30.8261935   6.6063304  36.0087921  48.8871702  60.0831228   7.0513443
  49.8348983  59.9492603   7.0399955  48.7452777  60.7328898   7.7397445
  64.5177507  23.2251215  61.6399574  64.6439123  24.1438937  61.8769598
  65.4047441  22.8734303  61.5638399  27.3634021   1.5308971  22.3521473
  26.6067855   1.5963979  21.7695095  28.1085698   1.7815561  21.8061401
  45.5261724   1.0705919   9.7992517  46.1655919   1.7757220   9.6984197
  45.9161489   0.3262730   9.3408396  60.8103506  66.5592657  24.6127083
  59.9091140  66.3119064  24.8196365  61.3478748  65.9298526  25.0934841
  69.5860831  30.6868683  14.1327574  69.4475619  31.3253658  14.8323013
  69.0543763  31.0095970  13.4051802  50.6254569  69.9157105  12.5281002
  49.6722189  69.8289977  12.5211622  50.7797877  70.8591043  12.5773289
  20.3021813  34.1823517  18.5345890  20.7312966  33.7500857  17.7961876
  19.8033143  33.4864818  18.9625313   6.9067002  69.0987025  14.3563082
   7.7559567  68.7996732  14.0313865   6.5707827  69.6656858  13.6621000
  74.2647076  35.8745050  43.1548643  74.7986555  35.7868385  43.9444494
  73.3630753  35.7894349  43.4647846  75.8729998  68.8422214  17.2413208
  75.4292265  69.5516454  17.7060940  75.7078330  69.0220891  16.3157894
  38.4468651   0.1755030  33.8543534  37.9219055  -0.4480333  33.3525038
  37.9256582   0.9783443  33.8588810  27.5712427  60.7213787  59.7156382
  26.7375644  60.3072110  59.4927597  27.3484548  61.3577429  60.3950787
  70.1014725  71.6698013  12.9440882  70.2727286  72.3779164  12.3232176
  69.1496197  71.6647206  13.0449917  12.4291262  38.0685997  63.4761238
  12.8507170  37.2543979  63.2012272  13.1466898  38.6982870  63.5455656
  58.4529524  52.6264039  54.1042328  58.1444257  52.7281943  55.0046110
  58.0051165  51.8430940  53.7847042   1.1647177  48.6672388   2.3375418
   2.0591307  48.9994548   2.4142744   1.2633515  47.8047191   1.9343521
  61.4699642  41.6367774   8.1682684  61.0884563  40.7608818   8.2273485
  61.2061159  42.0682608   8.9809419   1.3678122  31.0205810  25.5560352
   1.3652325  30.6691514  24.6656849   0.4552174  31.2560599  25.7232239
  43.9059544  32.7848172  63.6898947  43.3550167  33.0286741  64.4336939
  43.6600351  31.8802810  63.4960651  61.3448811   2.8238395  61.9882870
  61.4693546   2.9493168  61.0475445  61.2342453   1.8786496  62.0912790
  13.9840666  58.9948545   0.6046058  14.1314701  59.9406014   0.6125976
  14.4748596  58.6695705   1.3592865  23.8779759  27.8636384  58.0597878
  24.1674519  27.7964878  58.9696884  22.9230142  27.8198576  58.1084013
  24.2179942  22.7486730  49.3357038  24.5289230  21.8435264  49.3519688
  23.2637191  22.6740646  49.3307066  62.6126520  26.7542563   2.5759174
  63.3110300  26.1442958   2.8135111  62.2677938  26.4137445   1.7504789
   7.0027035  65.5816481  52.5297880   7.4909084  65.4700122  51.7140484
   7.2138946  66.4704368  52.8155947  24.6180749   6.1669153  32.7251434
  24.2600918   5.8938199  33.5698318  25.5649996   6.1912096  32.8628945
  69.1557375  43.7940852  16.4127018  68.4241120  43.2393722  16.6833450
  69.1976420  44.4781469  17.0809318  22.5429440  43.6850987  20.2222301
  22.4542809  42.7438401  20.0725605  23.2868338  43.7636261  20.8194687
  17.9383437  14.2985721  16.3092090  18.5735004  14.1280742  17.0047237
  17.6956527  15.2170510  16.4263679  62.1774498  39.3032186   5.5439855
  62.6830331  40.0845437   5.3200533  61.7288367  39.5332871   6.3576509
  21.6257525  62.0129095  11.8921854  20.7658005  61.6020285  11.8033220
  21.9853402  61.6438304  12.6988508   8.3871747  51.7300879  29.3924572
   8.0291272  52.4298237  29.9387218   7.8840399  51.7795335  28.5796596
  77.1764533  48.3161269   6.9438555  77.4435202  47.4148165   7.1242620
  77.3702113  48.4419797   6.0149624  75.7742087  63.9244710   2.4862911
  75.7631365  64.3803488   1.6446926  76.5598599  64.2507278   2.9250910
  16.6951632   4.3123057  49.3148708  15.9728229   3.7643287  49.6217537
  16.6993785   4.1932327  48.3651161   6.5883589  46.5998672  12.6302578
   6.8824387  47.3330270  13.1708385   5.8701134  46.9592427  12.1094801
  38.0196691   3.6936939  59.9054813  37.7103233   3.5273162  60.7959032
  38.8109612   3.1613785  59.8234463  17.6724768  41.6342454  12.3791363
  17.1278144  42.2247397  12.8996136  18.4381629  41.4676900  12.9288770
  74.1436211  30.8887623  21.3127376  73.4744803  30.2510129  21.0642196
  74.8301808  30.3663211  21.7273762  21.5613747  56.4792846  21.8784859
  22.3927594  56.0257946  22.0176746  20.9585143  56.0701417  22.4992897
  18.8374917   4.1224237  41.3048412  18.9392106   4.5977302  42.1294452
  19.0638177   4.7624202  40.6300022  73.5765711  32.9099597   9.3170454
  74.2242495  33.1742297   9.9704267  74.0371243  32.2776847   8.7653639
  40.6507333   8.7385672  16.7067913  39.7619780   8.5608292  17.0146087
  41.1529525   7.9660088  16.9659427   7.0962477  72.8402053  19.4896271
   6.3510848  72.8948961  20.0879337   7.2081519  71.9028126  19.3315079
   7.3656075  16.3456101  29.6200897   8.2796209  16.6124482  29.7181179
   6.8953507  16.8546386  30.2803757  77.6963059  71.5357123  43.5583259
  77.2413365  70.8456813  44.0411140  77.2545687  72.3431645  43.8212253
  16.5058248  10.3225799  18.4400894  17.1729057   9.7224231  18.1068565
  16.2993304   9.9900479  19.3135979  43.3974187   9.4923921  28.3207084
  44.3202607   9.6510167  28.5192730  42.9458539   9.6323247  29.1530182
  69.7498623  55.6568633  13.7673618  70.1530281  55.0878714  13.1116678
  69.1729418  56.2312208  13.2638647   8.7606049  71.7987190   3.7706901
   8.1360245  71.2258421   3.3257725   8.2148219  72.4054752   4.2708875
  27.3279238  43.3124302  15.7601024  27.4520016  44.2577933  15.6756975
  27.7214051  43.0936919  16.6048195  28.7503211   4.9164577  28.5581829
  29.3107240   4.5465083  27.8760387  28.9395110   4.3902583  29.3350651
  66.9410531  23.4502719  13.8945104  66.6622464  24.2263483  13.4085037
  67.8885046  23.4131323  13.7634041  52.5554864   4.6081443  37.4596359
  51.5987365   4.6144338  37.4882557  52.7976529   5.5267997  37.3427250
  50.0226498  16.8342173  59.5972538  49.6753120  17.1181059  58.7516832
  50.3242350  17.6407683  60.0152874  67.0519082  37.2821937  31.6370727
  67.2894350  38.1180953  31.2357189  66.7629830  37.5138303  32.5197365
   9.9993325  67.1750771  17.0064308   9.6256304  67.9977451  17.3223259
  10.1520587  67.3240863  16.0733177  13.4775115  33.9016675  26.3737537
  13.3211184  34.1216539  27.2921039  14.4305945  33.9066734  26.2852146
   6.5606881  54.9047493   6.6644337   6.6389561  54.7591983   5.7216074
   7.2924281  55.4833196   6.8790199  53.3182859  16.2031090  55.7779026
  53.6593151  15.9707105  56.6415691  53.6702061  15.5321312  55.1929426
  59.2339849  43.7018490  57.2599459  59.8822212  43.0198908  57.4358940
  58.4261370  43.3715534  57.6530313  57.5369493  51.4458166  22.4699070
  57.2053830  52.1520697  21.9153740  57.7124516  51.8650435  23.3123257
  -0.1864433  53.6126541  27.6792576  -0.0459289  53.9687954  26.8019535
   0.6914187  53.3956014  27.9930736  35.1679580   6.7819400  31.5934517
  34.4091956   6.4405723  32.0667221  35.7038800   7.1982379  32.2685196
  56.5045015  60.8910929  43.5991241  57.1552054  61.5673481  43.7875320
  56.1623351  60.6421100  44.4577076  18.9170583  73.2857323  49.2957973
  19.1570839  73.0981406  48.3883667  18.2493051  72.6331613  49.5067215
  20.2319003  20.0528000   2.7279379  20.3941489  20.1899801   3.6612560
  20.6016112  19.1890465   2.5449802   8.6295843  17.5994158  62.7934361
   8.6639494  17.4447048  61.8494463   8.6134875  16.7235649  63.1792593
  23.7158744   2.3281236  42.5359680  23.7233274   1.6092200  43.1679107
  23.2683198   3.0418534  42.9904033   1.1888982  28.2859455  20.7438614
   0.9171773  27.8267662  21.5385677   0.8959389  29.1875582  20.8761646
  15.1889897  27.8927456  13.9728786  14.6742869  28.6994247  13.9487316
  14.5373011  27.1946822  14.0380003  10.3603745  68.6372148  33.7681057
  10.8754063  68.1317578  33.1392242  10.3621388  68.1037532  34.5628692
  54.7097389  63.1912504  17.6946213  53.8360850  63.2182847  18.0847885
  55.2432863  63.7464129  18.2632591  19.7086017  25.7651706  22.1540500
  18.8664119  25.4502387  21.8257763  19.6472232  26.7185874  22.0952274
  63.4730283  62.3411070  28.8186313  63.0876414  62.4033032  27.9446461
  63.0127636  63.0056821  29.3312027  53.5491180  22.4505639  57.4722433
  52.6429129  22.5217938  57.1723270  53.7799072  21.5338969  57.3216057
  20.4466153  44.7529374  23.2237770  20.3959895  45.4680739  22.5895454
  19.6039534  44.7749029  23.6772873  62.4452305  25.4872036  55.1280642
  62.9213953  24.6590090  55.1880121  61.8582344  25.3724360  54.3807364
  39.3060748   7.8621860  21.3662197  38.8040082   7.3763652  20.7118942
  38.7776200   7.8077979  22.1624710  28.8117187  62.0607075  27.5480369
  28.0872886  61.4644847  27.7376369  28.4004037  62.8055415  27.1095375
  43.7790649   7.2389264   8.7576677  42.9385583   7.0125527   8.3595039
  43.8575046   6.6459842   9.5049955  19.9725406   6.4928145  22.2339870
  19.6822517   6.1328216  23.0720665  19.5723550   5.9230943  21.5770962
  59.5153443  42.0155583  22.5000049  59.2373721  41.2620498  21.9792511
  59.0235297  42.7521430  22.1369793  21.0102177  58.2994591   2.5716068
  21.8163777  57.8300749   2.7861025  20.3606940  57.6098047   2.4347498
  20.7200687   6.2492557  14.0383961  20.1927774   6.9820781  13.7203314
  20.3405301   5.4794164  13.6146833  16.0950407  19.6446431  39.6941805
  15.7807097  20.5167866  39.4558716  15.3335223  19.0760839  39.5799017
  60.9720580  61.8688236  11.4824011  60.8575074  60.9449969  11.2595655
  61.3456575  62.2610222  10.6931974  38.0204129  62.1976354  12.8462412
  38.6803460  62.8907182  12.8651335  37.2536063  62.6078822  12.4463226
  20.5476157   4.6495004   6.8853571  19.9234740   4.2532916   6.2773277
  20.7042472   3.9719768   7.5431253   0.4957534  34.4192086  23.5415317
   0.5440331  35.2320536  24.0447094  -0.2908372  33.9820029  23.8676502
   7.1691752  33.9882647  20.8266975   7.1680022  33.1023382  21.1891414
   6.2427331  34.2092000  20.7311870  34.6373908  16.3428779   5.0864126
  34.9025933  15.6397481   5.6792929  34.9432866  16.0581727   4.2252495
  71.5900183  23.0720901  37.1891308  72.1828747  22.4773836  36.7296934
  70.9291601  22.4987793  37.5774765  22.6128197  63.6981045   7.4465181
  22.0518685  63.0794011   7.9142429  23.4150792  63.2070814   7.2689964
  57.6570240  26.8250333   6.2411882  57.1475045  27.6315533   6.3195993
  57.7541701  26.5146218   7.1414329  66.6727225  45.4207192  10.0941088
  66.7145888  46.3768558  10.0773241  67.4398343  45.1562630  10.6018783
  66.4888302  60.3559290  44.4367172  66.7976681  59.9605547  45.2518989
  65.5652420  60.1096784  44.3859531  67.4630085  62.5729857  19.7853138
  68.2718197  62.4871837  20.2899887  67.6569144  63.2481109  19.1350509
  13.5211898  61.9648753  56.5283920  14.3046761  61.9209038  55.9802677
  12.9890109  62.6539694  56.1306907   3.2980061  44.1533868   9.9518682
   3.6146785  43.9250867  10.8258392   2.3555804  43.9898734   9.9883129
  12.0573998  53.3447526   3.5754206  12.6064730  53.3276533   4.3592932
  11.2567759  53.7896477   3.8534595  64.0045754  46.7022912  18.5888531
  64.4605819  47.3161148  19.1646244  63.8619558  45.9263323  19.1308739
  28.0220191   1.8604035   4.3483927  27.8242080   1.0219426   3.9311601
  27.2194116   2.3724909   4.2493107  18.4479129  14.9158478  21.7864513
  18.0763781  15.7131231  21.4088988  18.2341659  14.2294228  21.1544967
   1.6268047  72.7276545  50.4172182   0.7253059  72.9767278  50.6209278
   2.1626671  73.3906270  50.8525896  52.9062128   5.1393890  58.5069370
  53.1584358   4.7041583  59.3213034  52.9316616   4.4463721  57.8471565
  24.1479461   9.8915668  21.5105583  24.0814082  10.6519647  22.0881416
  24.3848722  10.2579351  20.6585838   0.1783229  49.6453713  -0.0845240
  -0.5004215  48.9705215  -0.0954006   0.5695201  49.5775996   0.7864572
  65.4739515  52.9176878  15.5056192  66.2041823  53.4489261  15.1881649
  64.9908391  53.5003553  16.0915710  50.0861932  48.0652379  20.6132461
  49.3525124  48.2448469  21.2011959  50.7416630  47.6446365  21.1697342
  77.0582406  55.4038535   5.5247642  77.8516785  55.6131528   6.0175993
  77.3760668  54.9766778   4.7293140   1.6298724  64.2232691  15.8692648
   1.4262677  63.9752971  16.7710926   2.1899844  64.9948774  15.9536697
  50.5267906  24.6975732  59.2399073  50.8758402  24.6270180  60.1283979
  50.1683474  25.5838919  59.1930676  45.6636445   6.2527270   6.2072708
  45.0565545   6.9609065   6.4221050  46.5150706   6.6828866   6.1281349
  37.7922822  73.3527647   1.5521051  37.8198243  73.9379011   0.7950785
  37.9628945  73.9228879   2.3018266  59.8826885  35.3213000  57.5751257
  58.9372492  35.4567313  57.5116014  60.1615667  35.1531219  56.6750288
  20.0504462  17.1374841   2.4784662  19.7370975  17.0494504   3.3786299
  21.0001723  17.2221513   2.5626613  33.4601689  72.6804696   5.5356504
  33.0598164  73.5314380   5.7139923  34.3887616  72.8071271   5.7303144
  30.0564194  66.2169539  16.0834934  29.4894982  66.9185601  16.4037849
  29.7175599  66.0144769  15.2114727   2.7471686  61.5356003   7.3150446
   3.5646201  61.0666500   7.1474459   2.0649768  60.8720695   7.2122099
   7.6660777  60.8518230   1.5178730   7.3390771  60.3225790   0.7904102
   8.5379792  61.1307345   1.2381841  71.7344809  50.7988548  56.2096930
  71.8135881  50.4374886  55.3268623  71.6351175  50.0322866  56.7742538
  52.4854867  20.9640832  14.0201141  51.6713350  20.4613442  14.0454056
  52.3081271  21.7344756  14.5598080  63.9456479  57.5800239  46.9089653
  64.1879193  58.5055409  46.8780567  64.7266714  57.1177064  46.6048385
  33.2675458  40.6887810   8.0873920  34.1389943  40.7946615   8.4689476
  33.1619836  39.7423922   7.9902460  20.9759459  54.9753618  41.8552208
  21.2751803  55.7733774  41.4194965  21.0810408  54.2889500  41.1964083
  60.9454728  52.1677290  35.1813843  60.2769662  52.8114067  35.4159405
  61.7627621  52.6657711  35.1665642  12.4288019  13.7823558  54.8523188
  12.7000746  12.8837049  55.0395775  13.1892714  14.3153751  55.0842762
  16.4488094  25.3549285  26.3054134  16.2761800  24.6420856  26.9204666
  16.1875264  26.1462064  26.7764141  32.1155835  64.7189222   8.7818291
  32.4906827  64.4771038   7.9350426  31.4139558  64.0833508   8.9232733
   1.7913660  47.7796078  62.0540810   1.0470566  48.0643177  62.5843334
   1.4267287  47.6522303  61.1782694  54.8624580  32.9598279   6.1703684
  55.1467673  32.0476956   6.1119367  53.9838760  32.9616637   5.7904722
  33.2607730  59.5120231  56.7974091  32.4244340  59.0475527  56.8295765
  33.5635837  59.5232538  57.7053785  25.4557340  12.9050059  16.4187385
  24.9403207  12.9627414  17.2232582  25.5263631  13.8096757  16.1140968
  59.7697259  40.0589372   3.9785101  60.3999902  40.0560467   4.6989157
  59.1822243  40.7880418   4.1771938  18.7444497  63.6725031   4.6910478
  19.6963073  63.7625538   4.6452858  18.4226704  64.1344963   3.9169409
  16.3967244   7.9782720  39.4646408  16.6457956   8.1241746  38.5520031
  15.7452790   8.6556430  39.6463539  73.5811090  47.7769375  51.0735989
  73.7891102  48.7107372  51.0421133  73.5933733  47.5601292  52.0058441
   4.5183405  26.1748886  57.1077299   4.2257723  25.7397723  56.3069105
   3.9276919  26.9219637  57.2038794  77.7575715  30.3083654   7.8723337
  77.4344714  30.4366870   8.7641718  78.1631263  29.4414468   7.8869345
  15.4808268  29.5172381  60.6600094  15.2992663  29.2510748  61.5613508
  15.5843195  28.6936641  60.1833010  21.2793542  61.9242273   9.1387274
  21.1232234  61.0124312   8.8927986  21.6051818  61.8774401  10.0375511
  75.4977766  53.6281704  28.0473568  75.4112164  52.6841734  27.9146625
  76.4072195  53.8198243  27.8184082  73.2899094  50.3414249  51.2794065
  73.9037514  50.8738375  51.7853451  72.6648569  50.0159216  51.9271612
  56.1623526  18.3602464  61.9083595  55.7101440  17.5606632  62.1774435
  57.0890665  18.1206727  61.9018459  26.8776910   3.6865373  16.1767723
  27.2182290   3.9677711  15.3275539  26.6687076   4.5017095  16.6328956
  37.7044837   0.4856963   4.5697405  37.3516767   0.1476355   3.7466528
  36.9958894   0.3645725   5.2017595   7.0874819  59.4403028  57.2851086
   6.4709219  58.8116407  56.9097948   6.6795382  60.2934694  57.1370554
  75.2963734  38.1054568  34.2717767  74.7454786  38.0959940  33.4890532
  74.7242785  37.7895236  34.9711514  71.1638880  30.0887036  58.4823465
  70.6058073  29.8120713  57.7555370  71.3098383  31.0224175  58.3303261
  69.0099590  22.4307389  38.8411953  68.3891170  23.1592650  38.8359215
  68.5050933  21.6834827  38.5203411  13.7776137  64.6996056  26.1538650
  14.3934537  65.2021109  26.6872169  13.7874461  63.8231216  26.5384628
  31.6618983   3.0898328   8.7597277  30.7847898   3.0717321   9.1425945
  32.2523038   3.0264134   9.5104791  68.1386439  36.2323041  25.8586933
  68.2897918  36.5930982  24.9850704  68.6827342  35.4454084  25.8902695
  42.8867452  20.9937663  26.6520073  42.1196525  21.3029428  26.1701156
  42.8706186  20.0428910  26.5433647  16.1828376  52.7243029   4.2361357
  15.9365130  52.0945655   4.9136211  16.8541575  52.2741424   3.7233831
   5.6525565  63.6257349  22.1560146   6.2076665  64.2063509  22.6765587
   4.7587348  63.8889586  22.3751594  35.7937241  48.9561819  13.2910301
  36.4959718  49.1203414  13.9204170  35.4360867  49.8231934  13.0996754
  78.4898392  70.0723635   1.0474445  78.4238545  70.2919446   0.1181127
  77.9488293  70.7280408   1.4874746  52.4799745  32.8452392   5.2627804
  52.3447053  32.9182143   4.3180038  51.6226785  33.0368800   5.6429865
  53.8856666  10.8631034  25.1300289  54.6001880  10.2880473  24.8561527
  54.2642371  11.7420192  25.1093056  56.9877243  18.0750203  55.9113312
  56.4797354  18.7433302  55.4513979  56.3511372  17.6367235  56.4760256
  74.0686480  55.5232321  49.9837734  74.6221701  55.7066511  49.2246963
  74.0158669  56.3580810  50.4490425  13.1050778  73.5631453  45.8824398
  12.3899317  73.4157454  46.5013744  12.6873542  73.5313068  45.0217869
  12.7774748  68.1184673  61.3116932  13.2591852  68.0118227  60.4914379
  12.2295889  67.3358345  61.3711882  70.7756393   6.5530868  19.1854050
  71.3661544   6.8181033  18.4802200  69.9384181   6.3938232  18.7495853
  67.1680021  36.5923882  61.8621635  67.5527477  36.9405079  61.0577917
  66.2282658  36.5589857  61.6832352  39.9025123  10.3995223   6.9084455
  39.9703090  10.1457830   7.8289081  40.5376498   9.8420663   6.4589168
  50.8384959  35.8338876   5.3626158  50.6455772  35.9667440   4.4345190
  50.0090902  36.0091634   5.8071329  16.7972486  11.4810748  12.0328333
  16.0653321  12.0422263  11.7766287  16.4447848  10.9328742  12.7338888
   7.8594971  65.4948722  13.3334877   7.2068358  66.0471688  13.7638761
   8.0875540  64.8372375  13.9905598  28.3757146  71.8127361  59.4999838
  28.0542310  71.4260850  60.3144646  29.0143999  72.4677441  59.7815418
  61.6047812  55.1204824  58.3008623  60.6898212  55.0710201  58.5776949
  61.7474747  56.0475349  58.1099701  69.9369478   5.6793606  47.6994801
  70.8851624   5.6856436  47.8301620  69.5732784   5.6619799  48.5847378
  66.0707752  50.1944552  15.9309580  66.8408505  49.7926329  15.5287697
  66.1911789  51.1339592  15.7928802   1.7987093   8.9464754  61.6732311
   2.4113974   9.6202594  61.3785172   1.5051064   9.2490703  62.5325727
  34.0653992  41.3032867  15.0275757  34.3398000  41.1894219  14.1176464
  33.8630582  40.4177164  15.3293278  11.2804159  41.4879608  61.5691805
  11.0608229  42.1652174  62.2089672  10.6821093  41.6454220  60.8387947
   1.8798678  19.9993749   5.6775762   1.3162725  19.3051000   6.0190012
   2.6352994  20.0054212   6.2653829  10.5540467  56.6707812   9.3385031
  11.0307885  57.4616610   9.0865948  11.1895228  55.9632455   9.2299129
  17.2215796  46.1875968  11.0192205  16.5280343  45.8226036  10.4696657
  17.7200223  45.4252981  11.3136436  33.8184453  65.3522669  10.5024006
  33.1823254  65.0041638   9.8775675  33.3226395  65.4599272  11.3140823
  40.5153672  18.6614223  27.4477627  40.6012981  17.9666991  28.1006004
  40.8081214  18.2591720  26.6300060  40.5302335  71.5603291  24.4585277
  40.9957982  71.8894659  23.6896564  39.6075345  71.5749775  24.2042686
  73.8946167  72.1299277  47.3163654  73.2407109  72.6795517  47.7482845
  74.6274105  72.7208553  47.1430160  71.6832542  33.7759256  41.7674255
  71.9763374  34.3983412  42.4329567  71.2182045  33.0997467  42.2601128
  14.2871285  72.8316699   0.4992534  14.4654418  73.2010804  -0.3656004
  15.0203896  73.1242691   1.0405018   4.1408190   2.5532493  59.3648529
   3.9224467   3.0913249  60.1257849   3.7002215   1.7190912  59.5269728
  49.6707122  27.9078050   4.7135403  49.6314971  27.4202008   5.5363037
  50.4295270  27.5453897   4.2562773  62.1135203  59.3468915   8.2580664
  61.4480440  59.1551314   7.5973083  62.0287076  60.2868734   8.4176590
  36.4201562  26.4183564   7.6627590  36.8217294  25.5956836   7.3831560
  36.8636863  27.0897336   7.1443321  31.4181615  70.0907026  28.8356926
  31.1260510  70.3818832  27.9719116  31.8164540  69.2347346  28.6778595
  66.2938087   3.7552161  32.3130752  65.8666293   3.1765218  31.6815235
  66.7975490   4.3662973  31.7754223  10.3947680  15.7774491   9.7673942
   9.5559923  15.3163762   9.7576191  10.8430235  15.4427619  10.5441047
  71.6001574  35.3698939  25.0404407  70.9506146  34.7888014  25.4362346
  71.4281098  35.3164125  24.1003467  12.9414114  47.2350883  58.0440807
  13.2053980  47.8106356  57.3262501  12.8590712  47.8169107  58.7996817
   7.4528838  62.1251546  24.9504902   6.9468594  62.2643386  25.7509853
   6.8027926  61.8626724  24.2987873  31.7497174   7.2801299  21.2780430
  31.5173022   6.3595052  21.3991310  30.9498517   7.7594943  21.4940407
  73.0491797  47.6467262   2.7152683  72.9992787  48.4251486   2.1604730
  72.7793852  46.9276987   2.1439173  21.3002539  45.0774048  11.3072969
  21.9105387  45.0626527  12.0445682  20.4472924  44.8888312  11.6986133
   6.2773896  62.8811823  27.3312141   6.2653638  62.8932200  28.2882644
   5.3537513  62.8709208  27.0801880  37.8303544   9.6161790  38.3959534
  38.2229297  10.2377982  39.0089084  37.0544641   9.2887349  38.8509418
  38.5014932   2.4550457  16.1331512  37.8788392   3.0356021  15.6955578
  38.0138127   2.0957394  16.8742992   3.5072137  58.2337199  19.5817901
   3.1460477  58.8325892  20.2353527   4.3817139  58.5774790  19.3992664
  56.7688402   9.2034292  60.2961111  57.6102671   8.7661374  60.1656818
  56.1871561   8.8007510  59.6513462  35.4431389  50.5090903  10.0448896
  36.2139193  51.0320507   9.8243381  35.7833252  49.6237408  10.1739647
   0.4147944  36.2661457  61.3498259  -0.1649013  36.7763686  60.7842636
   0.8645376  35.6671715  60.7538462   9.7450162  13.3756776  25.4397156
   9.8214628  12.4762769  25.1211883  10.1748659  13.9050241  24.7679569
  12.7606139  53.5424709  62.7462196  12.4091849  54.1270351  63.4177971
  13.0339274  52.7615643  63.2275915  73.4391546  46.8089151  53.9177513
  74.1060448  47.2249365  54.4640303  72.9134655  46.2952805  54.5309925
   2.6767954  54.4054890  13.9406860   2.7370676  55.3082895  13.6283517
   1.7952666  54.1252327  13.6945200  14.9075668   2.1495528  38.8971664
  14.9987237   1.6859217  38.0647137  14.3171279   1.6008992  39.4134857
  63.8402621  51.6723771   3.5290148  64.2575614  50.8164258   3.4318163
  64.5369212  52.3012395   3.3407785  14.4324891  37.3080869  14.6023037
  14.1185586  38.0844445  14.1386749  13.7736981  36.6378636  14.4205763
  78.3606307  18.0419011   5.6102516  77.7317111  18.1886048   6.3167717
  77.8261249  17.7566524   4.8691894   1.7647490  47.2279930  36.5758514
   1.3920340  46.6257620  37.2197700   1.9006094  48.0423927  37.0601273
   5.4951812  61.7534886  16.6960670   6.0858775  61.0576354  16.9843342
   5.7141925  61.8868314  15.7738497  10.1545271  20.7519794  39.7838688
   9.6848139  21.4581037  40.2277040  10.0687250  20.9556317  38.8525271
  65.3525130   7.4162860   0.3926803  64.4869487   7.3521228  -0.0109432
  65.8780543   6.7577787  -0.0616453  54.7815196  39.3017097   3.3874275
  55.1717822  39.5568557   4.2233850  55.5225627  39.2464728   2.7840807
   6.1083365  71.7742048   6.7419245   5.9110308  72.5822412   6.2682392
   5.7530261  71.0790454   6.1880829  64.8956672  22.8943847  22.7805759
  65.7785217  23.2576047  22.8503658  64.5615856  22.9028808  23.6775352
  66.0958473  30.7880245  31.7990734  66.9903485  30.8456908  31.4632561
  65.6113545  30.3295992  31.1125328  10.5703688  38.9241374   8.5046627
  10.1678801  39.0854840   7.6513149  10.2102853  39.6057950   9.0720417
  66.4498631  39.4915791  28.4381153  67.0103327  40.1607703  28.0453159
  65.8304516  39.2612915  27.7456333  22.7198411  21.6693626   0.8533909
  22.9595042  20.8309446   1.2481691  23.4077264  21.8360089   0.2089693
  67.2185008  43.1068002   5.6510355  66.4694754  42.5366150   5.8244707
  67.8325240  42.5549255   5.1666357  68.3752918  64.9670245  12.7011253
  67.7382946  65.0817754  13.4063198  67.8697014  64.5911386  11.9804909
  11.0503817  50.9268092  11.9018366  11.5664244  51.7325650  11.8755962
  11.4601613  50.3585945  11.2495758  52.8568681  43.0061546  60.6107616
  53.3888563  42.2347537  60.4154062  52.4631437  42.8161779  61.4622974
   3.3652879  40.2102758  22.0564224   3.5210562  39.7185640  21.2500812
   4.2228986  40.2549128  22.4792053  64.7429037  12.1231139  27.2776270
  64.0572357  11.9069445  26.6456819  64.8272467  13.0750406  27.2232747
  39.9984479  19.9980330  62.2807503  40.0602627  20.3829622  61.4065409
  39.5808864  20.6760073  62.8119993   9.0073777  53.8275562   4.6024896
   8.3205605  53.1782936   4.7540571   9.6103621  53.7143217   5.3372146
  55.1431465   9.3165708  53.8334799  55.7612562   8.6417294  53.5528469
  55.3326464  10.0651133  53.2677937   1.2912831  15.7336354  32.4555922
   2.1913466  15.8981931  32.1744466   1.0246119  16.5431988  32.8911662
  34.8367667  14.9885428  49.4227552  34.6473026  14.4619942  50.1993370
  35.3557134  14.4112372  48.8627148  61.6733074   3.8866636  46.0517931
  60.7874012   3.6777657  45.7555437  62.2450352   3.5004419  45.3883266
  55.7236639  38.1475068  18.8955356  56.5896384  37.7623180  19.0294983
  55.2148858  37.4532309  18.4767772  68.9946842  14.3479931  32.4914074
  69.0479326  13.8945031  31.6501331  69.5177221  13.8109016  33.0865502
  21.5191524   1.0147233   3.6391212  21.2748162   1.2876768   4.5234443
  20.6897704   0.9752936   3.1628849  69.9824110  51.7365705   6.3685562
  70.8938710  51.8763839   6.1117985  69.8745982  50.7854925   6.3608505
  23.4923585  68.1230226  58.4607792  22.5753053  67.8536943  58.4087372
  23.9861997  67.3393807  58.2194090  45.0691032  21.7643905  48.3897734
  45.8845663  21.3803434  48.0676556  44.8173904  21.2083983  49.1271639
  66.7811028  34.7983928  10.3918030  66.6316954  33.9537667  10.8166744
  67.6604001  34.7274058  10.0202848  69.2322079  32.6386763  20.6528522
  69.6163002  33.4556468  20.3346302  68.9163557  32.1990596  19.8634197
  26.8411288  15.7264912  64.0946198  27.2387728  15.3941226  63.2898569
  26.9777235  15.0285172  64.7352505  12.3800851  30.8854126  10.0450804
  12.5914574  31.5810876  10.6676485  12.7943087  31.1616252   9.2275478
  69.0914647  53.4993218  31.3317253  69.6508471  52.7225886  31.3286259
  69.3452898  53.9741181  32.1231605  23.6374570  36.5068773  24.4286682
  24.0197802  37.3788866  24.3303825  24.2396451  36.0457647  25.0126030
  63.6603546  15.8358693  40.4112720  64.3857765  16.4486003  40.5319309
  62.9762506  16.3549054  39.9883842   5.9943629  41.0629960   1.7231561
   6.5314627  41.6454686   2.2602655   6.6007519  40.3849046   1.4252998
  61.2488222   1.3716921  40.4681969  60.4782391   1.0000347  40.0388861
  61.9809723   1.1214931  39.9046493  65.1464628  55.7142726  59.3751526
  64.9420761  56.5329400  58.9232159  64.3373417  55.4844359  59.8320198
  59.4306978  43.9601317  49.6963167  59.5827802  44.1821710  50.6149006
  60.3073820  43.8902942  49.3184710  73.8891617  61.5588103  11.2946321
  73.4091107  62.3483406  11.0447838  74.4377200  61.3617049  10.5353786
  24.3674135  18.0303800  50.4158163  24.8067760  18.8524592  50.1981497
  25.0621557  17.3725557  50.3869629  61.0096566  36.6806002   8.7633182
  60.7184235  35.9688910   8.1933309  61.8744031  36.4051768   9.0676023
  49.6172317  68.5306278  61.0616255  49.1126283  67.9194871  61.5983915
  50.1262935  67.9706630  60.4755163  53.9426279  42.9523897  45.7734823
  54.1487980  42.8101158  46.6973209  53.0814886  43.3702326  45.7818460
  31.2403902  59.2875234  53.8217640  31.9577821  59.5251265  53.2342911
  30.4710849  59.7151164  53.4455156  40.7453903  66.3848731  49.0251493
  41.2949022  66.6445604  49.7646236  40.5915817  65.4494843  49.1579008
  42.6072454   9.2999297  41.9155121  41.7768812   9.3975723  42.3815441
  43.0082464  10.1681340  41.9561577  40.0632478  36.2056548   6.4511921
  40.9571839  36.5477860   6.4438345  40.1619530  35.2734734   6.2574770
   9.2187596  61.6638051   8.9830114   9.5094395  60.9353672   9.5317509
   8.8618375  62.3016749   9.6010401   6.5257391  16.2702501  45.9000969
   6.0984644  15.4199088  45.7971668   6.8595442  16.4777780  45.0273228
  24.6017536  60.5142942  58.8703442  24.4284042  60.8059457  57.9752922
  24.5344337  59.5603732  58.8286924   6.7876626  52.5526284   9.0384247
   7.5300790  52.4932347   9.6396925   6.7859746  53.4651326   8.7493469
  70.6477165  13.7719035  50.1581192  70.5522537  14.2675138  49.3447971
  70.6366301  14.4368911  50.8465242   9.6521664  61.0643493   6.4192488
   9.5182515  61.3946520   7.3076155   8.8497353  61.2988387   5.9530355
   5.1016427  46.0993348  20.4252006   5.7846118  45.7808982  21.0154392
   4.4761182  46.5415363  20.9991504  38.1647182  10.8549368  29.1759348
  38.5052776   9.9688381  29.0531254  38.3883643  11.0742629  30.0804281
   1.2144312  45.4998827  32.9735970   1.7326388  46.2390709  32.6553369
   0.3572974  45.8764648  33.1729531  50.4099687  48.9054743  51.9235516
  50.1961788  48.0896345  52.3762417  49.7151931  49.0076366  51.2731075
  73.0292288  44.1604672  28.3101513  73.5746542  44.3349885  27.5431587
  72.2784106  44.7453712  28.2082226  49.5485926  26.7882204  42.3566055
  48.7294245  26.8261218  42.8503275  49.2791271  26.8515992  41.4403057
  36.1682734   7.4388909  22.5507665  35.9616408   7.5676709  21.6250515
  35.4426131   6.9131440  22.8872657   9.7530112  21.6593456  55.5252934
   9.1231856  21.8466544  56.2213230   9.2866263  21.8715310  54.7167826
  31.0605241  43.5387378  27.2559311  31.2216187  42.6092146  27.4179985
  31.5289307  43.9891087  27.9587795  33.7626863  17.4788749  59.9972486
  33.2758498  17.7969766  60.7575369  33.5911536  16.5373325  59.9798059
  24.5701648  48.1205474  23.1595947  25.0394917  48.5802733  22.4634506
  24.5832730  48.7282120  23.8990642  76.7191839  14.3800247  41.8999815
  76.0743618  14.6176362  41.2336636  76.9266653  15.2056205  42.3376751
  73.7884060  73.3530365  15.1755144  74.0355126  74.0339123  15.8012773
  74.3637434  73.4978734  14.4243576  20.8707190  44.4240217   3.8494779
  21.8202782  44.4054912   3.7302019  20.7264138  45.0928603   4.5188524
  55.9284067   7.4674308  55.8884001  55.2259874   6.9267935  55.5270863
  55.8994198   8.2735485  55.3730726  44.7810746  46.0409288   6.6944029
  45.0238896  45.6547456   5.8528950  45.6065560  46.1078386   7.1743347
  26.5683890  40.1652341   2.9043104  26.7546559  40.9383924   3.4369995
  26.3427258  39.4855261   3.5393717  21.6956139  63.9835416   4.7289993
  21.5676928  64.8259913   5.1650526  22.4383641  63.5880433   5.1852228
  61.2632362  34.3133564   1.6405393  60.3180639  34.3092181   1.7917444
  61.6255728  33.8189529   2.3757316  13.2924399  34.3194294  56.6136599
  13.6967024  35.0329614  56.1200237  12.8607210  33.7828231  55.9488964
  60.8455888  29.1746222   9.2670538  60.5107943  28.5636090   9.9234154
  61.7906109  29.1941570   9.4179870  72.0482683  27.2522736  55.8768654
  72.4380159  28.1230116  55.7984972  72.7641821  26.6961980  56.1842489
  18.0108007  72.1258900  43.7466097  17.9944070  71.7793446  42.8544950
  18.0509122  73.0755895  43.6339426  46.7430656   7.9410691   8.4739734
  46.7158429   8.8946958   8.5519745  45.9012572   7.7086825   8.0820705
  51.1545340  43.0022858   4.9356224  50.9197108  43.4704881   4.1344501
  50.4389183  43.1919657   5.5423738  10.9057364  10.4678011  42.5369024
  10.8420691  11.4206862  42.4721766  11.7805609  10.3097630  42.8917837
  65.6949130  31.1050134  20.6846668  66.3944308  31.4931314  21.2102844
  65.2717463  31.8514823  20.2604725  61.3549185  40.4688549  50.2911472
  61.8112278  39.8331833  49.7398472  62.0526314  41.0106087  50.6598330
  68.1734291  52.7296518  50.7197716  68.8767973  52.0804332  50.7150318
  67.3749033  52.2186183  50.5877353   3.3326563  43.0042982  53.7175274
   3.2301745  42.0532894  53.7536478   2.4963888  43.3474493  54.0323782
  13.7919808  67.0114146  28.3648826  14.4453574  67.1609031  29.0482475
  14.0214492  67.6329409  27.6740314  11.5199599  16.0174656  47.9950523
  11.1123118  15.2449572  47.6035261  11.8678984  16.5080404  47.2504044
  24.8135233   7.1341926  18.8790476  23.9303184   7.4780905  18.7451887
  25.2712417   7.8278971  19.3539143  35.4570270  12.4406898  56.3472652
  36.0924315  12.2422600  55.6594324  35.4661441  11.6678488  56.9119501
   0.1936198  18.7180565   2.1706344  -0.0376796  18.9555965   1.2726881
   0.8541156  19.3620156   2.4261667  21.7071868  47.3589431   9.6906330
  22.4399520  47.7714692  10.1479151  21.6077758  46.5075503  10.1166345
  53.7624113  64.4638907   8.6972000  54.0767042  65.3679071   8.7115385
  52.9742757  64.4928990   8.1547691  42.2473955   0.3055463  57.4997234
  41.5696430   0.9655998  57.3540783  42.7919149   0.3438240  56.7134237
  36.1945630  72.8571735   5.4967548  36.7413998  72.6969753   4.7276403
  36.4160443  73.7484180   5.7666780  48.5740995  22.3245144  42.2133350
  47.8813410  22.9239058  41.9357729  49.2835474  22.8970695  42.5050449
   4.1651091  16.8319619  51.7192745   4.0372881  16.0031223  51.2578440
   4.8903021  17.2534621  51.2581205  48.0130800  70.8749515  61.4908075
  48.6644538  70.1738841  61.4696121  47.2815260  70.5379048  60.9736443
  60.7160600  61.7544476  44.3607330  61.0532983  62.6495865  44.3257332
  61.1629613  61.3019899  43.6453342  16.0407352  27.4316382  59.0399837
  15.7616234  26.7467976  59.6477032  16.9090545  27.1537495  58.7483835
  58.2867940  58.8868621  55.5295801  58.8043817  58.4099499  54.8808193
  57.4037202  58.5279909  55.4422522   5.0716878  24.2778157   0.0422384
   5.1938296  23.5911642   0.6978466   5.6096268  25.0054263   0.3543903
  32.3357233  61.2014595  58.9862490  32.0561203  60.3541187  59.3327522
  31.7395147  61.3704315  58.2567167  44.8601917  47.5946163  20.2662613
  45.6833390  47.8038417  19.8248054  45.1217297  47.0777904  21.0283043
  34.1058254  -0.0525669  28.1705499  34.1575265  -0.3879949  29.0655613
  34.3191600   0.8771259  28.2504988  15.7517958  50.1699482  17.9152729
  15.1055623  50.2847980  18.6119892  16.5061141  49.7734891  18.3512260
  57.3020776  73.5704653  42.4510193  58.0761941  73.8666213  41.9721985
  57.1563848  72.6765246  42.1413755  41.3158512  13.4870195  57.1345854
  41.1766481  13.5229743  56.1882448  40.4478693  13.3112776  57.4978447
  21.4134980  29.3683706  14.8654224  22.3298360  29.2311876  15.1056959
  21.1668397  28.5710578  14.3967153  -0.0470256  45.3961425  19.6089031
   0.7836629  44.9230062  19.6571686  -0.3780126  45.3911893  20.5070450
   6.1382867  41.3377817  21.1778595   5.5595875  42.0711957  21.3862945
   6.3876868  41.4814316  20.2649547  72.5698010  46.7177443  16.5965034
  72.5451294  45.8142518  16.9116642  73.3874432  47.0713352  16.9467403
   0.5278207  28.2775636  30.9752704   0.9542562  27.8629346  30.2252914
  -0.1721095  28.8055177  30.5911114  50.6243531   3.6008544  10.8417084
  50.2762334   4.2963357  10.2837231  50.7770030   2.8685136  10.2445461
  38.0321169   0.7292089  51.4160490  38.4780240   1.5583898  51.5888405
  38.2998490   0.1586175  52.1364498  55.0627804  45.4042196  44.9400759
  54.4913769  45.8814716  45.5417013  54.8113108  44.4869471  45.0478172
  25.1986743  54.4439577   6.5163280  24.7627974  55.2924918   6.4373876
  26.0785580  54.6548151   6.8287041  48.2624913  72.7341257   6.1822464
  48.8208676  72.5130521   6.9276144  48.3325482  73.6855780   6.1043836
  56.3077736  28.2403088  44.9380541  55.3797674  28.1439924  45.1519632
  56.7511845  27.6105165  45.5063677  24.4419242  65.7749926   8.3382036
  24.1672278  66.3646494   7.6360084  23.9293814  64.9790393   8.1968118
  58.4005022  15.2507496  42.2626686  58.1609201  16.1773300  42.2458506
  57.5648928  14.7884476  42.3279858  72.2935152  12.0078754  55.9824085
  71.9168806  12.8517294  56.2319851  72.0514107  11.9001651  55.0626183
  28.1959058  68.2452212  16.9334938  27.3730660  67.8016006  16.7276623
  27.9333974  69.1281138  17.1939041  78.1545893  62.8958713  13.4113361
  78.0738608  62.0069800  13.0655243  77.8332917  62.8330432  14.3108084
  73.0264330  32.0810604  46.5988922  72.3610783  32.3129797  45.9510136
  72.9091263  32.7199674  47.3019361  54.9718809  24.8261142  27.3978376
  55.9024382  25.0272894  27.4969721  54.8767948  23.9464188  27.7629757
  12.0084429  50.6565164  22.0186188  11.3163329  50.5622672  22.6730873
  11.5655757  50.5225168  21.1806728  40.1167012   2.3084768  59.0637255
  40.6659222   2.6808151  58.3738375  39.6871091   1.5598091  58.6499834
  57.6454990  16.9280858  28.5296776  56.7882411  16.5498109  28.3340980
  58.0788963  16.2706180  29.0738537  44.1071256  65.2894727  46.2513638
  44.0766986  65.9380833  45.5480814  43.9239391  65.7897094  47.0466232
  56.1249733  11.8976021  53.1145477  55.9533930  12.0876253  54.0368748
  56.8908310  12.4297214  52.8988171  17.7376112  32.6228476  38.4203935
  18.3313116  31.9672918  38.7864494  17.9678187  33.4340191  38.8734293
  23.0270068  22.4318595   9.2207910  22.8020971  21.5608783   9.5479681
  22.6853482  23.0322166   9.8834183  72.3745489  34.4062996  36.8011618
  72.8679371  33.7148809  37.2424531  71.5504217  34.4587302  37.2852087
  46.7727613  41.7211723  63.5276604  46.2471390  40.9214067  63.5094166
  47.0368624  41.8133736  64.4430733  55.3737593   6.1906350  32.7373672
  54.8440361   6.9032824  32.3799324  54.7436476   5.6234580  33.1817794
   3.8619456  51.7972898  42.2021008   3.2417616  52.3757076  42.6459932
   3.3120188  51.2038755  41.6905594  77.7572155  48.9636898  54.9169683
  78.6732960  48.6878681  54.9478674  77.7767563  49.8096752  54.4695807
  77.4348545  20.1928186  59.3135118  77.6717758  19.6382976  60.0568867
  76.7734766  19.6885133  58.8397074   8.9316496  27.2368717  24.9052501
   9.6733412  27.7899885  25.1505685   8.6387858  26.8492889  25.7300210
  67.7498817  21.3405275  19.9235582  67.8705215  21.0333681  20.8220744
  68.3580971  22.0746493  19.8377025  72.1138811  36.3185501  50.7018423
  72.5635386  37.0522118  51.1211061  71.3031483  36.6972184  50.3619051
  39.2234421  44.2798881   7.2513201  38.4973622  44.9016719   7.2020723
  39.1967583  43.9511804   8.1499101  65.1474412  72.4602762  51.0014153
  64.3409570  72.0019345  51.2375212  65.7447656  72.2838682  51.7282677
  53.7791634  24.4540834  46.9917631  53.0522823  23.9351964  46.6473389
  54.4530678  23.8091969  47.2067213  36.9782639  62.8227435  39.6760322
  37.1139813  63.3828484  38.9117767  36.3087464  63.2754670  40.1888992
  13.5494837  13.6321712  58.5581350  14.1655001  14.1440821  59.0822554
  12.8161654  14.2271090  58.4015274   8.5480977  59.9869810  26.3703205
   9.0074969  60.6287490  26.9119121   7.9234029  60.5051480  25.8628799
  59.5454454  49.7570610  42.8210831  58.9174032  49.9698114  43.5113955
  59.3110561  50.3374004  42.0968628  49.1865318  20.5474467  23.1676342
  49.7899024  20.2068086  23.8280441  48.8080232  21.3293548  23.5695984
  59.0953350  49.2842150  22.1841645  59.7127104  49.5814896  22.8525257
  58.3457088  49.8729610  22.2717214  61.9961166   8.6091334  57.3888159
  62.4974489   8.2505572  56.6564798  61.2389755   9.0272957  56.9788074
  42.0672004  16.7430730  11.5320494  42.0742910  17.4020143  12.2262956
  41.6173951  15.9920735  11.9192221   2.2343764  22.8412843  34.5251679
   2.7488074  22.6238585  33.7477851   2.0022330  23.7625861  34.4087839
  63.8909149  28.9603901  63.8180256  64.7133780  29.3225718  64.1475821
  63.7771082  29.3673396  62.9591465  60.2397411  30.3906579  15.5027963
  60.1190726  30.8389182  16.3398983  60.1312606  31.0778089  14.8453142
  41.8388177  58.4987246  19.3827869  41.5017510  57.8911744  20.0412037
  41.7446900  59.3627988  19.7837307  14.7506476  43.2839052  17.4347164
  14.3827439  42.6433472  18.0434563  14.0977288  43.3550881  16.7383911
  27.6567110  72.7743768  38.1813240  27.2136243  72.8073817  37.3334932
  28.1334861  71.9444409  38.1702566  53.6511819  25.7740684   7.8589775
  53.0017011  25.2367730   7.4054148  54.3173473  25.1508231   8.1488373
  56.7118597  20.4384923  59.8837042  55.9491444  21.0162783  59.8579454
  56.4432144  19.7121537  60.4462814  38.5838032  53.7171732   7.5650169
  38.3739758  54.4154845   6.9448854  39.5177651  53.5533367   7.4342110
  31.2987996  73.2979427  22.3192169  30.6092454  73.6030184  22.9088547
  30.8568669  72.6868092  21.7297699  40.4007451  28.3714004  19.2567398
  40.0202768  29.2444701  19.1607143  40.2669017  28.1518979  20.1787712
  35.8704949  61.0676538   0.7750322  34.9345971  60.9267317   0.9180881
  35.9554959  61.1674725  -0.1731442  37.8531171  71.3999187  24.2331650
  37.3419762  71.0643755  24.9696304  37.6826764  70.7821737  23.5221245
  12.7481890  24.5507811   3.4262468  12.5567199  25.4781972   3.2867100
  13.6217261  24.4280122   3.0546381  10.5618478   4.0146479  52.2874784
   9.7868109   4.2737040  51.7890453  10.7202340   3.1066546  52.0292377
  50.5899160   1.9886203  21.8103458  50.0606935   2.6236816  21.3277962
  50.8013122   1.3136883  21.1653568  40.4694398  73.7238355  34.0181780
  40.9976562  74.5171605  34.1067886  40.7913383  73.1434741  34.7079563
  48.2797719  67.7247416   1.7986681  47.6853371  68.4736548   1.8434717
  47.9647351  67.1279512   2.4775078   5.2356943  24.9842119  36.4764857
   4.6274123  25.4904795  35.9380531   5.9320959  24.7259450  35.8726931
  74.5068455  22.4923396  27.8784227  75.4114389  22.7077103  27.6513624
  74.4911575  22.5026727  28.8354373  75.2468260  22.7193828   1.3933851
  75.5143125  22.2686381   0.5924417  75.2246173  22.0319314   2.0590832
  14.8850855  17.8927827  60.0842285  14.4066462  17.3687112  59.4418335
  14.4054541  17.7649069  60.9026575  42.9944802  54.3209396  24.6192982
  42.5071622  53.5483132  24.9053146  43.7910939  53.9683853  24.2226459
   0.7840825  71.2839638  35.5841686   1.0550166  70.3776370  35.7304432
  -0.1170539  71.2165891  35.2685024   2.8972849  50.5193281  33.2739925
   3.7195238  50.3754425  33.7424421   3.1611761  50.9126425  32.4421906
  27.6467530  11.6217656   9.7631838  27.3308007  10.9428735   9.1669418
  27.1457927  12.4018378   9.5249464  15.1224948  66.1503826   8.1126215
  15.9247161  65.6302630   8.0662824  14.6246243  65.8923708   7.3368742
   8.4759173  53.0429792  36.7948079   8.5929140  52.1430731  36.4903212
   7.8197893  53.4123945  36.2038207  69.2637205   4.8942873  52.3361397
  69.5027542   4.1521591  52.8914213  69.9669266   4.9453077  51.6887426
   4.1954756  69.2042647   0.6545402   4.1805936  70.0061189   0.1320078
   3.5344363  68.6424671   0.2500154  75.2597825  55.1030384  30.9594871
  75.5199973  54.6676098  30.1477482  74.9941937  54.3894492  31.5395595
  53.3647299  20.7715964  35.1741791  53.2104158  20.8373094  36.1165690
  54.1889572  20.2906752  35.0994039  52.5604916  56.7467403  57.7166843
  52.7152872  55.8221245  57.5233889  53.4017372  57.1708965  57.5474930
   9.6678862  59.3682146  42.9982281  10.5204233  59.6956444  42.7115250
   9.8113665  58.4356785  43.1595325  17.1337939  72.5437151  14.3670322
  17.2711373  71.7754231  14.9211885  18.0165244  72.8374778  14.1418173
   8.7938341  48.2652855  59.3261147   9.3563017  49.0107584  59.5362043
   8.1073603  48.2878113  59.9928093  25.1945401  62.3426782  26.1592056
  25.6012822  61.5585457  26.5278961  24.9570227  62.0920859  25.2664425
   1.5876803   6.8420899  48.1983805   2.2991595   6.4086175  48.6696959
   1.7278132   7.7753055  48.3587027  76.5049362  34.2380834  24.7053838
  76.0587931  34.4917941  23.8974118  75.8167076  33.8539338  25.2485275
  16.3292266  49.5274614  15.1456358  15.8170033  49.6831356  15.9391262
  16.9566584  48.8488983  15.3948643  58.0208175   1.7445846   0.8870603
  57.2879283   1.1609573   0.6908752  58.1258361   1.6863055   1.8366958
  37.2571660  52.0431708  12.8479959  36.6787339  52.7921270  12.9918958
  37.4553490  51.7211686  13.7273552  14.7261382  57.8486382   7.2905495
  14.0995551  57.9421269   6.5729954  15.3650141  58.5459958   7.1430303
  70.8619118  69.1828060  42.5491238  70.2567387  68.4787703  42.7822161
  70.4421997  69.9779415  42.8775120  44.6097867   4.0777679  13.1070043
  45.2875487   3.4057136  13.1792213  44.8760240   4.7542996  13.7296249
  41.8783014   6.7473884  31.0389568  42.7904384   6.5849490  30.7984306
  41.6878574   6.0934682  31.7115261  29.3924730  10.3416534  24.0170910
  29.9337165  11.0061069  24.4434597  29.0640657   9.8024554  24.7365715
   5.2202655  52.8491758  27.0076324   4.4205380  52.5236975  26.5944340
   4.9354792  53.1642793  27.8654434  46.2456322  54.8638307   3.5066273
  46.7724610  54.9049066   2.7085068  45.6799412  54.1019248   3.3812525
  60.4408519  18.5906835  10.2475454  60.4185073  18.6086507  11.2043144
  61.3573043  18.4170957  10.0325872  66.7067099  42.8011274  55.5550098
  67.1114540  43.0627966  54.7280073  66.0502529  42.1508265  55.3051949
  67.1718566   1.4816470   1.4444973  67.7273910   1.3202901   2.2071125
  66.2950294   1.6038437   1.8084623  64.7029337  11.9576895  60.9727764
  65.3079733  12.5335681  60.5053139  65.1599249  11.1179626  61.0202169
  32.0836949  69.8493576  51.8840790  31.6964650  70.3063583  52.6306915
  32.0278525  68.9222431  52.1155357  35.4793565  63.7422128  31.2707760
  34.8081128  64.4165464  31.1662056  35.5901591  63.6594052  32.2179272
  39.7005177  66.5218125   4.5035030  38.9535332  66.6556345   3.9201166
  39.6664143  65.5916439   4.7267916   1.0298762  24.4241476  58.2331753
   0.0730070  24.3997097  58.2269955   1.2891373  23.5680580  58.5739470
  44.2589474  63.7891327   2.6361467  43.6305714  63.1535207   2.9787447
  45.1147557  63.3961140   2.8074838  12.7901459  10.8957943  54.3737173
  13.6669350  11.0369667  54.7308540  12.3599053  10.3275761  55.0126600
  78.1721687  13.8406777  48.1559134  77.9947329  13.7875021  49.0950203
  77.8668547  14.7120404  47.9034424  75.6322384  11.0596478  49.9622536
  75.4887486  12.0021188  50.0482178  74.9643946  10.6636512  50.5220747
   1.0084996  25.2070832  46.0117435   0.9509310  25.1993656  45.0563049
   1.8249544  24.7468519  46.2062216  43.0720998  54.9569319  17.4813511
  43.8985158  55.3896843  17.6957847  42.5001145  55.6655561  17.1865322
  53.6739334  65.3455863  43.5105371  53.4789499  66.2730179  43.3760643
  54.3795141  65.1570127  42.8918028  26.4209685  -0.0169498  62.7563238
  26.3649306  -0.0789119  61.8027782  25.7485613   0.6211974  62.9948044
  51.2640794  65.0210521  35.6877065  50.7511505  64.3592903  35.2238011
  52.1736797  64.8101309  35.4770589  39.8806319  24.5409107  55.1309776
  39.4749293  24.3930817  54.2767000  40.8196577  24.5721364  54.9479961
  32.9678632  24.3237327  26.0860493  33.5507107  24.0842722  26.8065883
  32.7212811  23.4881042  25.6896259  58.6039686   4.0441701  52.4827242
  57.6641512   3.9759904  52.3144007  58.8698006   3.1558502  52.7203226
  20.5790568  45.6088226  14.3545629  20.1653195  46.0630898  13.6206056
  19.9836207  44.8868673  14.5557358  23.9836821  35.1762176  11.4662886
  23.9210924  34.7424984  12.3172891  23.1272349  35.0360513  11.0624588
  16.8016434  38.1867861   6.5363218  16.8735696  37.2690155   6.2741091
  15.9562016  38.4698504   6.1879923  75.4963795  38.8505519  13.1624843
  75.3708474  38.7424763  12.2197248  75.9445158  38.0507572  13.4376814
  66.5214666  58.1269387  48.3495569  67.2410902  58.1937149  48.9771795
  65.7382806  58.0346194  48.8920784  21.5607008  27.6627827  40.4678822
  22.1142706  27.9809475  39.7547436  21.2087855  28.4567308  40.8704138
  72.5652218  25.0804043  48.8245487  73.3953285  25.5552411  48.8656092
  71.9113731  25.7561326  48.6453676  76.5406466  20.6397820  35.3634667
  76.1217308  20.8447003  36.1993814  75.8124447  20.5148077  34.7549105
  27.6441003  37.4883831   9.2194654  27.1592475  37.1194541   9.9577333
  27.8835488  38.3695690   9.5065309  71.4374733  12.2575605  53.3758211
  70.6530142  11.8959737  52.9633665  71.8354940  12.8024781  52.6969433
  54.4453622  42.0102476   0.1123812  53.7909413  41.8809889  -0.5740975
  53.9349461  42.2320132   0.8911754  48.5370525  71.6641598  22.1427631
  49.0629419  71.2759549  22.8420234  48.5171827  72.5987357  22.3486876
  28.4453075   2.7673073  12.5568678  27.6257484   3.2160993  12.7645590
  28.9992158   2.9130669  13.3237936  58.3294106  27.2654605  26.4151025
  59.0348864  26.7179871  26.0704064  58.5913992  28.1596875  26.1961293
  73.1683842  46.0873942  19.5256378  73.0421416  45.3314911  20.0991394
  74.1180769  46.1986904  19.4816257  14.4940186  61.1458097   4.7466518
  14.7100306  61.7772828   4.0604927  13.9181758  61.6261564   5.3415539
  25.3619853  64.6955238  20.4841282  25.7624579  65.3986512  19.9727966
  24.6047696  64.4236170  19.9655582  65.2212516  51.2066697  20.7670070
  66.0199014  50.7364617  21.0063793  65.4005448  52.1175288  21.0002949
  59.2986885  48.4849118   2.3025419  58.7690369  48.1621169   1.5734960
  59.7581688  49.2453943   1.9464781  28.0869596  29.1219993  11.1472608
  27.7328031  28.7230678  11.9420339  27.3157899  29.4191260  10.6643059
  75.0922886  56.4163171   4.0528538  75.8450524  56.9257055   3.7526895
  75.4659668  55.7616697   4.6427967   9.4233466  72.3492919  24.7763588
   9.9773598  72.9656778  25.2552845   9.5924474  72.5419222  23.8541176
   0.5867577  70.5572949   5.0403740   1.2623692  70.5308972   4.3628170
   0.1271487  69.7222172   4.9529793  64.1345159  56.6570614  13.2261707
  64.8954836  57.1600805  12.9361202  64.1731087  56.6939865  14.1818764
  37.8586968  48.8529068   8.1543354  38.2379898  49.6285683   8.5675148
  38.6032423  48.4102541   7.7469734   3.4271909  47.9432832  22.2591831
   3.1809426  48.5994886  21.6072704   2.5937749  47.5876390  22.5676777
   5.4150026   7.3513694  23.2481624   5.6124298   8.2774396  23.1080105
   4.7398727   7.3504205  23.9267113  47.3246400  14.6586318   6.2516214
  47.4510734  13.7594028   5.9489109  46.4220016  14.8676105   6.0111906
  12.7853243   6.6742797  21.7843582  12.6614897   5.7995410  21.4159443
  13.6047570   6.6135640  22.2753574  21.7316405  32.8272386  11.0259868
  21.6668431  32.3167749  11.8331148  21.7748801  32.1710725  10.3304245
   0.9000938   2.6777859  39.7614815   1.5532295   2.0258017  40.0155784
   0.6015103   2.3936219  38.8975765   5.2503388  21.4455648  46.1211159
   5.8566205  21.4859052  45.3815033   5.4608695  20.6206746  46.5586712
  50.9602324  -0.1966873  29.8103237  51.6408411  -0.0686708  29.1495538
  50.8893863   0.6513247  30.2485991  66.2379471  66.6124354  23.1629326
  67.1574084  66.4506708  23.3742382  65.7524673  66.2133347  23.8849212
  74.3317588  10.1584477  18.7807228  74.4837554  10.6150146  19.6081688
  74.6240552   9.2618365  18.9446880  11.5853302  13.4101768   8.7281038
  11.6741054  14.1831203   8.1705095  11.6067021  12.6718898   8.1192447
  26.0113494  18.5387797  12.2665312  26.9664638  18.5346360  12.3295595
  25.7213657  18.9996524  13.0537655  65.0720759   9.1245217  12.8066923
  64.2072125   9.0361257  13.2072307  65.4826446   9.8478503  13.2804634
   4.3930388  73.6835633  51.1375095   5.2034999  73.1807123  51.0567142
   4.1984893  73.6753450  52.0746948  28.6941640  19.4523711  30.3128006
  28.7222211  20.0253863  29.5465710  29.2653005  19.8787112  30.9517528
   8.4521072  25.7778354  26.9826748   7.6524775  25.5216117  27.4422123
   9.0579788  25.0522990  27.1335079  57.5647942  55.9723042  20.5483391
  57.4017850  56.7481838  21.0846855  57.3616139  56.2513124  19.6555282
  12.0476676  63.5238467  17.0342304  11.5420533  63.6296307  16.2283756
  12.1579934  64.4147383  17.3664524  17.0458222  31.2534456  14.5153190
  17.5224114  31.3167362  13.6876203  17.1453524  30.3388761  14.7796823
  50.3734319   4.9539371  42.0219375  50.5880801   4.1252275  41.5936996
  50.5632560   4.8013825  42.9476501  47.2057930  61.4570366   1.5232088
  47.4665586  62.3604666   1.3441850  47.9770771  60.9362684   1.2992575
  45.4236452  44.4254296  14.8285391  45.7790760  43.6651723  14.3682052
  44.6049777  44.6204017  14.3724682  28.7625241  17.8367305  60.9980345
  29.2348933  17.5217175  61.7686605  28.7222791  17.0784652  60.4152441
  14.3635528   0.8760066  11.9585182  14.4698445  -0.0498323  11.7399885
  14.7797506   1.3425012  11.2336780  58.7086145  51.5759824   5.6882622
  59.6552030  51.4550768   5.7629778  58.6076633  52.4526464   5.3174450
  22.1967173  21.9614172  58.2037020  22.4191260  22.2977805  57.3355818
  22.7255535  21.1689520  58.2962275  72.7439181  68.7774907   1.9438173
  72.9090945  68.5811840   1.0216381  72.1329180  69.5141016   1.9261791
  69.8690780   0.7503648  31.7133858  69.9256916   0.9691329  32.6435329
  70.0765057   1.5684910  31.2618591   1.4075312  21.0078263  46.2185335
   1.7347941  20.2202773  46.6531563   0.7313856  20.6882572  45.6210899
  49.2910949  38.7102261  10.5593302  49.7177807  39.3140675  11.1672308
  49.1408030  37.9178085  11.0748054  54.3997971  54.6696304   1.1152460
  53.8291255  54.0487050   0.6624557  53.8615481  55.0137447   1.8280603
   4.6475470   0.8432885  25.8397055   3.9444312   0.3112812  25.4671073
   4.7760895   1.5485588  25.2054310  37.4619579  14.3737614  61.4731169
  37.1729875  13.8866436  60.7014656  38.2719421  14.8022377  61.1964083
  46.0769705  18.7583016  15.6440498  46.2504689  18.9632331  16.5628197
  45.2602807  18.2593070  15.6600429  61.6209356  71.9362746   5.6118872
  61.9479124  72.6417910   6.1700680  62.2940628  71.2577687   5.6644489
  32.2646920  12.2851033  39.5850231  31.8595092  12.0560117  40.4214241
  32.9241244  11.6057105  39.4442798  42.0055962  19.5780504  63.9776707
  42.1217871  18.6304533  63.9084435  41.3110113  19.7806072  63.3509731
  76.8423764  71.6330372  34.4505741  76.6340891  71.2247478  33.6102535
  77.1529833  72.5088225  34.2208912  42.2206609  25.1484914  15.9629967
  42.6252191  24.8742147  16.7859985  42.6305597  24.5948167  15.2984192
  52.4607359   9.7317166   3.8585426  53.0881164   9.3014999   3.2775595
  52.9133589  10.5201573   4.1580822  37.6008956  12.4108119  23.7717583
  37.9945247  13.1633277  23.3301594  37.9883973  12.4170680  24.6469833
  14.5162503  10.9216304  16.2515690  14.8227184  10.1001258  16.6355469
  13.5766451  10.9353252  16.4337398  64.8385970  50.9653722  24.3984558
  64.2383400  51.4092229  24.9975540  65.5874649  51.5573190  24.3275406
  27.1187306  55.0955044  27.3953010  28.0048657  55.3732799  27.1632530
  26.7261840  54.8281823  26.5642311  11.7320721   0.5271096  19.1907169
  11.8168466   1.3517232  19.6693184  12.6331131   0.2298541  19.0642502
  60.3969208  66.9699489  18.4646560  60.6891147  67.8727709  18.5902359
  59.5428721  67.0514618  18.0401661  47.2856633  18.1250711  19.0875675
  47.7579133  18.6684127  19.7184421  46.7429607  18.7431998  18.5980560
  37.3339431   0.1668115  12.5793602  36.7958419  -0.0513129  11.8183710
  36.8057220   0.7927842  13.0747129  37.9289631  62.6186000   2.6293995
  37.2054306  62.4254476   2.0332243  37.6405410  63.3925043   3.1132557
  22.5336922  66.4161645  11.6346361  21.9910119  66.1820875  12.3875906
  23.3835886  66.0159360  11.8182804  14.2875417  72.2958960  41.1701679
  14.3522485  73.2386096  41.0174036  15.1934942  72.0092021  41.2854576
  59.9298382   9.8291290  49.9644804  59.0069389   9.6693969  49.7670603
  60.4005003   9.4810009  49.2071772  32.9197172   0.6707558  25.8734512
  33.1744257   0.0791439  26.5815115  32.5785229   0.0936731  25.1902270
  22.3623080  66.4214550  16.6033127  21.5319780  66.8062030  16.3226845
  22.1801747  65.4844438  16.6745045  38.4039712  33.2794571  61.6047812
  37.5907230  32.7776861  61.5492201  38.5426879  33.4076285  62.5431633
   0.8253662  13.8667340   1.4826919   0.9643213  14.6545310   0.9570505
  -0.0590046  13.5798354   1.2550737  53.6694828  50.8478962   8.8084175
  53.1162182  51.6226374   8.9079382  53.1300203  50.2301298   8.3148815
   7.8151685   9.7822315  48.4824085   8.2362020   9.0655905  48.9571571
   8.5400772  10.2648926  48.0851936  26.0206427  66.1883746  28.6961986
  26.7360691  66.4173518  29.2894699  25.7078379  67.0292078  28.3624508
  27.6945225  67.7531730   2.9063322  26.7770870  68.0134331   2.8238203
  27.8356997  67.6689039   3.8493063  77.0985492   2.5808568   5.9439375
  77.2928055   1.6661425   6.1483766  77.2385915   3.0456204   6.7689277
  58.2478253  64.5964538  20.7891418  58.4950010  64.0455400  20.0464203
  58.6010734  64.1408979  21.5532924  17.2309081   1.7998810   8.2668688
  18.0222289   1.9870229   7.7618696  17.0969169   0.8579440   8.1618311
   8.9433734  10.3002782  35.7287170   8.2968752  10.6025834  35.0908424
   9.7830813  10.3846355  35.2770473  35.7356699   0.4864235   6.3704635
  36.0122295   0.5486579   7.2847273  34.7808047   0.5438252   6.4046385
  38.5634521  55.7578026  10.4419901  37.9201213  55.1621400  10.0578739
  39.2581848  55.1840316  10.7650472  30.2487724  23.5508580   5.5018570
  30.9429185  22.8924127   5.5308582  30.0630872  23.6622233   4.5694639
  60.3353635  36.5160009  24.2314293  60.2514306  37.0207608  25.0403835
  61.1730520  36.0611557  24.3187477  18.8020277  29.7003269  50.5149364
  19.0659869  28.9129972  50.9910345  18.7618840  29.4243503  49.5992661
  56.5776984  61.7472373   4.1240646  56.4814917  61.7404209   5.0763943
  55.6842748  61.8416773   3.7937500  70.0947556  26.6086102  52.6417446
  70.4262009  26.3899827  53.5127115  69.4905213  25.8971047  52.4298620
  73.6180456   8.4103246  21.4822151  72.8790982   7.8195663  21.6277744
  74.3790205   7.9251380  21.8011810  55.4769722  58.6670648   4.9019911
  54.9579421  58.0077563   5.3625919  55.1104585  58.6857139   4.0179350
  53.6587122  12.0297713   4.8659231  54.4498153  12.3889251   4.4641830
  53.0999769  12.7920003   5.0177624  61.4389340  59.7778283  51.3034489
  61.3849536  60.7279311  51.2003662  61.3638393  59.4356214  50.4126694
   8.6180985  46.1186600  57.4515676   8.9930171  45.3335810  57.8507137
   8.4680414  46.7128515  58.1868601  17.9447496  18.6135697  49.9339867
  17.9209435  19.5698977  49.9007940  18.2658446  18.3518803  49.0710545
   3.3542157  71.5207587  15.2240087   2.9569150  70.6677137  15.0487997
   2.6281787  72.1410976  15.1586010  68.7904978  15.8654881  56.4798403
  69.3935251  16.5980363  56.6061831  67.9670334  16.2759221  56.2158775
  11.6208915  64.2951141  11.4693405  11.5765671  64.6891366  10.5981256
  11.9332019  63.4038197  11.3135006  18.8761071  57.4832998  16.7019893
  18.4496716  56.6797720  16.4041092  19.3826232  57.2155486  17.4687912
  63.6652704   7.4340148   3.5791733  64.1457112   7.2658916   2.7685310
  63.4828313   6.5640540   3.9342930  77.8233925  58.3185397   7.0412447
  78.3856121  57.5540243   7.1663668  76.9625060  58.0358182   7.3497536
  64.5327250  45.1780383  25.9373905  65.1454131  45.9042399  25.8212902
  64.3123309  44.9058710  25.0465538   8.7608720  71.8492685  15.7134344
   8.7758065  72.4077903  16.4906456   8.1611014  72.2911821  15.1124145
  46.5532080  55.2168690  14.3968202  46.0297278  55.5749427  15.1137497
  46.1119298  54.4003771  14.1626312  59.9344412  43.7842129  36.4222194
  60.4535381  43.0810855  36.8125870  60.0950066  44.5414291  36.9853164
  69.8460690  51.2110244  16.6160251  69.5427290  51.5087210  15.7583572
  70.2038113  50.3381311  16.4538338  37.6692986  19.5475245  44.9288177
  38.4668064  19.8600483  45.3560686  36.9573045  19.9376607  45.4358578
  17.7298499  48.2837890   7.3374988  18.2597972  47.8527127   6.6670038
  18.3464766  48.4740566   8.0444624  37.5688354  66.4019095   2.7098324
  37.4495582  67.0706044   2.0354034  36.8317441  65.8037101   2.5870134
  69.5726077  68.9349590   9.3092443  69.1556755  68.0797945   9.2039253
  68.9016453  69.5630990   9.0418817  41.5925757  52.1642076  25.2267124
  40.7550684  52.1563695  24.7632934  41.5529028  51.4032339  25.8060028
  29.8894162  57.3244892  11.3689853  29.6096204  56.4257322  11.5427162
  30.6182424  57.4693142  11.9723703   2.9198775  42.3109388  59.2373943
   3.6895785  42.8499746  59.4196892   2.8691229  42.2812033  58.2820034
   8.5313432  18.2572599  24.9928810   7.6577823  18.1264443  25.3616764
   8.9537971  18.8740344  25.5906727  59.5068995  70.0089441  21.1246635
  59.5865146  70.4035460  20.2562286  60.4066221  69.9558841  21.4470245
   8.6235921  41.4341588  25.4002239   9.3688075  40.9381147  25.0613548
   7.8716986  41.1016412  24.9099972  63.4867135  63.1735049  12.6369383
  63.9122359  62.8189884  13.4176304  62.5535623  63.1695949  12.8501179
  20.7375352  10.6919141  19.3096592  21.0323159  10.8610625  20.2044918
  21.3410680  10.0258393  18.9805366  23.6703317  29.8282142  35.5976917
  23.2755630  30.3217454  34.8787929  24.5699279  30.1518579  35.6447841
  64.1193954  69.3610822  14.8994829  63.9097563  69.8157631  15.7152941
  64.9380175  68.9010821  15.0851967  31.8910273  53.2488304   2.1496490
  31.9688185  53.7711531   2.9479984  32.0247778  52.3465210   2.4397853
  72.6968034   0.2479024  30.3801872  72.5272162   1.0194726  30.9207012
  73.0362065   0.6013794  29.5579387   5.0836603   1.7896051   1.8386604
   4.3567745   1.1700578   1.7751600   5.8524339   1.2848969   1.5731623
  51.7692176  46.9939993  22.9798557  52.6125447  46.9406895  22.5301983
  51.6731659  47.9206453  23.1997063   1.9518313  13.1649542  44.5195532
   2.0935473  13.2365561  45.4634953   1.2300095  13.7672234  44.3393612
  55.3730384  66.8175159   3.9178564  56.3204090  66.9542562   3.9128734
  55.0811831  67.1317659   3.0621101  18.9976216  31.9751845  19.0468456
  18.7926436  31.4527898  18.2714035  18.6921645  31.4431839  19.7816326
   8.8679171  16.5235435   1.5872528   8.1818677  15.8570562   1.5503027
   8.4905339  17.2808050   1.1396314  66.8262497  70.0087200  30.6325676
  67.5335137  70.2701865  30.0429584  67.2124020  69.3267928  31.1821987
  77.3567454  60.7222901  11.9682361  78.0071274  60.0930415  12.2801306
  77.1313254  60.4179131  11.0891630  62.1914855  70.0493728  30.0842239
  61.5087024  70.5028640  29.5898678  62.2693507  69.1960321  29.6576359
   6.9189994   8.6704822  20.3725769   7.0147841   8.9849610  21.2715580
   7.6506965   9.0680022  19.9005367  45.7513241  70.4049169  44.9202968
  45.1455573  70.0261770  44.2832424  45.4131762  71.2864719  45.0776150
   6.3934509   6.6253848  33.0811550   7.0451467   7.0682473  32.5376560
   5.7738058   7.3142953  33.3213188  55.8030335  69.3808733   5.7908108
  55.2095930  68.9007388   5.2132894  55.2260820  69.9162303   6.3355591
  31.9257859  68.2690035   1.1463692  32.6015870  68.7003361   0.6234171
  31.3865588  67.8054558   0.5055954  51.3854591  55.8796261   7.9054214
  51.9880978  56.3899873   8.4463360  51.4834920  56.2460898   7.0266010
  25.2296035   1.5180178  10.7380344  25.6015079   1.2028713  11.5618040
  25.9900729   1.6986294  10.1854946  35.6442380  11.5601659  63.9051676
  36.3656116  11.0527992  64.2772293  35.9420729  12.4687219  63.9504814
   0.2697770  10.0655789   3.6068584  -0.6375177  10.3127332   3.4280683
   0.7210843  10.8976312   3.7491276  58.1894962  68.3997832   2.9969932
  58.7121002  68.9674293   2.4305155  58.6185352  67.5458990   2.9418661
  68.5820361  18.3963342   3.4506227  68.2135792  18.1865163   2.5924589
  69.2614754  19.0451999   3.2674124   0.3331805  70.9352504  12.0459749
   1.0729504  70.3325521  12.1216585   0.7361508  71.7953955  11.9276573
  10.8513356  36.3206007   3.8690903  11.5357400  36.5795131   4.4861700
  10.0466252  36.6859400   4.2367794  43.1330732  57.3768698   0.5089142
  43.5003213  56.5625094   0.8526851  42.2178689  57.1671067   0.3228142
  33.1753687  68.6815702  17.3304607  32.7393893  69.1334687  16.6080047
  33.7665955  69.3368898  17.7009155  19.5789910  17.5875627  47.8661873
  19.5962907  16.7993055  47.3234321  20.3440667  17.5033878  48.4352257
  46.3190429   1.9397922  36.6789200  45.9473436   1.1311264  36.3265945
  45.7956330   2.1240659  37.4588634  72.7312024   8.9333434   8.3495142
  73.3611830   9.5735211   8.6804725  72.1283837   9.4465680   7.8115179
  38.7361781  50.2173887  22.1463348  38.3124618  49.4225250  21.8224670
  38.7145750  50.8201681  21.4030792  34.0478055   7.4445052  17.5264885
  34.2376916   7.8491492  18.3729126  34.5090930   7.9914708  16.8906643
  49.1471497  48.6223529   5.6458237  49.0110032  49.2686032   4.9529602
  48.8567439  47.7949463   5.2620317  36.6389672  12.6810832   4.2758371
  36.6270988  12.7365632   5.2313520  36.7598264  13.5849567   3.9849188
   9.1673280  66.2261377  19.9228050   9.5519591  66.5708767  19.1169216
   9.8138858  66.4237391  20.6004097  50.3210775  64.7323285   2.8029157
  49.9374501  63.9149176   3.1205656  50.2037302  65.3487645   3.5257341
  16.2628770  27.1079445  31.8578625  16.2169003  26.5851808  32.6583862
  16.3761437  28.0073237  32.1652985  72.8110949  71.3102017  16.8626644
  73.2097117  72.0004331  16.3326408  72.2179858  70.8591829  16.2618019
  61.1887971  53.4532307  15.5032255  61.7323772  53.3289133  14.7252180
  60.5933730  52.7037655  15.5016472  57.6443863  28.4579110  55.4927874
  56.8289089  28.3233380  55.9756184  57.4886608  29.2478514  54.9751282
  47.4034969  59.9843226  30.3052093  47.8342096  60.7467948  30.6916763
  46.5031163  60.0291668  30.6269790  22.4967120  33.6954407   2.3205234
  22.5868077  33.2742576   3.1753446  22.2817815  34.6058361   2.5235464
  19.8134232  23.6974525  28.7335062  19.4513476  22.8127241  28.7823915
  19.3637311  24.1789865  29.4278622  60.5380920  31.4692736  63.7515974
  60.5303863  30.9092879  64.5278645  59.6902827  31.3134694  63.3354521
  62.5525133   1.2154993  56.3503599  63.2485405   0.6001457  56.5808392
  61.7559616   0.8194479  56.7037392  61.1792649  11.6819091   4.9750902
  61.2850531  11.8139453   5.9172203  62.0507516  11.4306922   4.6690990
   3.4562970  71.1922465   9.7786428   4.4068099  71.2279855   9.8858024
   3.3278180  70.9022509   8.8755228  40.9489489  13.2317460  54.4762850
  40.3350353  13.1296051  53.7490225  41.5323400  13.9384556  54.1998005
  35.9270644  26.4114738  63.8364744  36.8642950  26.2911105  63.6836863
  35.5056548  25.9736061  63.0969334  55.8939998   3.9073320  12.1166755
  55.9325187   4.7624011  11.6881897  54.9705569   3.6591001  12.0733454
  67.4705096  14.8898978  22.1489860  67.6332934  15.8276029  22.2511532
  68.3210190  14.4804568  22.3078014  62.4749891  49.6116768  32.6091434
  62.8645412  50.4852222  32.6465751  62.2388903  49.4939362  31.6890289
  24.4548655  61.7209707   9.3703033  24.2987014  62.2011124  10.1835110
  24.0255309  60.8760916   9.5047762  65.2102037   8.1833263  18.9992287
  65.3248461   8.8781829  19.6475078  66.0986145   7.8777070  18.8160469
  65.9764544  64.4459139  32.5815346  65.0832359  64.1181837  32.4767448
  66.0255305  65.1996861  31.9936134  17.8622770  61.2052059  57.2968388
  17.0508742  60.7167912  57.4357939  18.5557449  60.5559158  57.4141073
  45.0750784  57.0922624  33.6694576  45.6678430  56.5200947  33.1821300
  44.2265598  56.6514658  33.6253406   0.7645417  60.2987491   9.7010185
   0.5560637  60.3756653   8.7699653   0.7341719  61.1977373  10.0283243
  60.5608416  30.7599139  55.6445456  60.5914927  31.1393952  56.5227747
  60.9872246  31.4109826  55.0872898   2.6559401  28.9136623  14.0852930
   2.9213715  29.8301290  14.1618921   3.4482575  28.4577648  13.8013412
  76.8323167   4.6739907   8.0199720  77.2953327   5.4437013   7.6892282
  76.0632451   4.5961852   7.4554302  54.8461485   8.1417680  58.6388254
  53.9636230   8.3884943  58.3622169  55.2134657   7.6808566  57.8845882
   6.7103991  24.2749929  52.8124237   7.3584971  24.6150637  52.1955299
   6.6898569  24.9208999  53.5185480  74.7896973  63.7971960  14.9365522
  74.6241299  64.1115032  15.8253862  75.7285658  63.6115800  14.9191429
  56.7994992  55.1018010  23.7270214  56.9670597  55.8905648  23.2112648
  55.8466069  55.0688122  23.8115074  46.6472729  15.1769729   0.8027651
  46.7593218  14.4541211   0.1853849  46.1560871  14.7962184   1.5307714
   1.0787122  37.7467580   1.0578443   1.7155807  37.1320386   0.6935026
   1.3261835  38.5946841   0.6890489  24.5735614   0.1247687  33.2313301
  23.6626880   0.3225513  33.0135490  25.0257842   0.1193423  32.3877098
  66.6051499  47.0566391  25.8553554  66.2106196  47.6334475  25.2012398
  66.5121333  47.5318812  26.6810180  34.9911475  28.9037204  62.6659393
  35.3627205  28.0356121  62.8226233  34.3309855  29.0089011  63.3510303
  50.1920718  41.7524524  17.1462108  50.0027210  41.7988725  18.0833484
  49.3344103  41.8117566  16.7253353  62.7691419  36.1999602  14.9668934
  62.9420205  36.1339707  14.0277483  61.8166955  36.1388345  15.0399782
  24.1858499   2.7665062  16.8189766  24.5850722   2.1377440  17.4202396
  24.8753755   2.9622812  16.1845829  56.8773937  30.8647466  46.5678692
  56.6630411  30.0097156  46.9409752  56.3496923  30.9174418  45.7710028
  16.8049686  23.7723346  47.0172645  16.7816894  24.1354365  47.9026176
  16.3869636  24.4400306  46.4734890   0.8333731  17.1968731  11.7891097
   1.1447621  16.4299950  12.2699177   0.1767827  16.8503937  11.1848950
  32.0431344  50.6954618   3.2962324  32.0414846  49.8649831   2.8202774
  32.3494880  50.4678292   4.1740467  46.8798876  12.1956563  58.5495424
  47.1469355  11.6049266  59.2537832  46.7192745  13.0320346  58.9864731
  59.3234912  72.7766262  24.0971996  58.5564104  72.5267087  23.5820724
  60.0465504  72.7673684  23.4700348   8.9572231  13.4914775  15.7293846
   8.0625932  13.6918397  16.0045578   8.9598267  13.6543078  14.7861387
  26.2609363  42.3023605  61.2133217  27.0191121  41.7580032  61.4256334
  25.8183408  41.8316317  60.5070972   6.3121311   7.3571296  28.2981731
   6.3012712   7.9144807  27.5200512   5.6763379   7.7594848  28.8898804
  36.2804627  31.0932446  64.2792416  35.8355999  30.5977011  63.5916615
  37.2089219  30.8977389  64.1528606  30.8428828   1.5139623   4.5087625
  29.9467675   1.7490001   4.2680122  31.3637559   2.2810907   4.2711880
  37.7788539   7.6932569  44.4863178  36.8271883   7.6948924  44.5890858
  37.9679211   6.8794150  44.0192558  73.9890639   3.6400112  47.4068880
  74.3570820   3.5613808  46.5267658  74.6912400   3.3461079  47.9872370
  19.0426557   4.3634505  24.0342857  19.0083472   5.0469298  24.7035457
  18.2171218   3.8892694  24.1336681   8.5917998  55.3169583  10.3395035
   8.8709880  54.4667815  10.6793358   9.4033051  55.7424389  10.0626375
  67.9250713  24.1718621  16.2412693  67.1664567  23.9296527  15.7101633
  68.3388360  24.8858876  15.7562973  46.7315952  58.1889545   7.1059133
  47.3489825  58.8966309   7.2910072  46.6666237  58.1714092   6.1510803
   8.3088923  70.1173936   7.4904157   7.9891539  69.2211686   7.5942280
   7.5895119  70.5800758   7.0607092  55.5845065  13.7170501   9.2572214
  56.5155922  13.9036746   9.1368772  55.4896335  13.5686107  10.1980688
  14.0016429  17.4534650   6.8652107  14.7706668  17.5473781   7.4273636
  13.9251821  16.5105100   6.7195179  23.6450171  71.0937166  61.9402122
  23.3653307  72.0003271  62.0669556  22.8451681  70.5790424  62.0478535
  63.5773516  18.5155988  54.6952963  63.9627886  19.2095459  55.2301884
  63.1120300  18.9799631  53.9995432   4.7186423   3.5883936  61.8413544
   5.6491662   3.5977634  62.0655584   4.4413424   2.6874050  62.0073414
  32.7397871  58.3620358  62.3534632  32.0288968  57.9852819  62.8720427
  33.2270384  58.9046049  62.9734945  24.5787955  58.9581834   3.2165815
  24.5104123  59.1056214   4.1598846  24.1995240  59.7440873   2.8232099
  72.7481142  65.2419268  13.5546686  71.9176213  64.7749339  13.4628631
  73.2457034  64.7236191  14.1871168  78.1640776   3.3569141  14.6817591
  77.7158077   3.2044263  13.8498737  79.0934475   3.2593532  14.4744350
  55.8396022   0.4272504  17.9340317  55.4525249   0.2341600  17.0801498
  56.7329089   0.7071276  17.7342941  62.2807281  19.1130443  25.0300743
  63.2194678  18.9941926  24.8855831  62.1918361  19.1845174  25.9804584
  53.8643599  20.6297207  45.2981853  54.5838976  19.9987423  45.3174353
  54.1243410  21.3085270  45.9209728  11.1209528  11.3385100  34.2163612
  11.6585176  12.0460219  34.5722915  11.0081784  11.5646215  33.2931091
  70.4170291  19.0926833  18.4751655  71.2758319  19.4954152  18.6036255
  69.9962966  19.6337409  17.8069736   0.6953280   8.0712075  19.2874004
   0.2228276   7.6776643  18.5538532   1.0822265   8.8675256  18.9235069
  50.3116846  12.1228170  59.8948336  50.5930424  11.4071083  60.4647732
  50.4500437  11.7910731  59.0076876  60.0410604   2.9629424  55.6792355
  59.7001076   2.4234478  54.9658442  59.8697376   2.4509680  56.4696550
  24.5189397  26.8944020   1.1240961  24.1780774  26.0885377   0.7359936
  24.9450175  26.6093679   1.9324543  70.5029535  70.0534630  54.3529749
  71.2044907  69.8048210  53.7511015  70.8618450  70.7899523  54.8479557
   5.9670449  57.4888979   1.4671852   6.4914561  58.1461130   1.0096981
   6.4026356  56.6585551   1.2747766  32.7361409  21.2823052  16.2056591
  32.3898856  22.0298762  16.6929771  33.6328141  21.1824985  16.5254261
  58.1595485  14.3291040   5.3868820  58.6715667  14.8356958   4.7564556
  57.7584998  14.9876828   5.9540417  35.6455231  25.2971697  59.5274496
  36.3132095  24.6618748  59.2689371  35.7593226  26.0259032  58.9173412
  74.5553644  40.5979724  31.5594055  74.3072183  41.3317533  30.9970619
  73.8533934  40.5452104  32.2080089  58.5752193  53.6383961  36.1195995
  57.6703230  53.7219535  36.4202835  58.9975730  54.4493376  36.4028313
  77.6309593   3.2404180   3.2163812  77.2753699   2.9338403   4.0505316
  78.0363114   4.0823789   3.4237863   7.4086134  14.1213889   1.1289932
   7.0263521  13.2989783   0.8228065   6.9583170  14.7978015   0.6230976
   6.7884732  72.7241598  41.2764789   6.3158417  71.9416057  40.9928181
   7.5870515  72.3875009  41.6828873  36.7928378  11.2779565  10.4367878
  36.3670366  12.1026177  10.2025654  36.5405433  11.1284776  11.3479616
  13.2947914  27.6472278   9.1221430  12.9842894  28.3030362   8.4978535
  13.9917152  28.0892367   9.6070768  22.7052562  59.5016522   8.8977911
  23.1425302  59.5315023   8.0468323  21.8087451  59.2329164   8.6970951
   0.7050133   0.3921684  42.9256344   0.3960419   0.2814755  43.8248110
  -0.0938653   0.4992422  42.4093437  31.1278884   9.5826716  49.9185325
  30.8608119   8.7196775  50.2349903  31.0716264   9.5161910  48.9652969
  42.8927890  54.0537904  21.6477062  42.9995648  54.3300055  22.5579502
  41.9901899  54.2872928  21.4308597  51.2635040  67.0268345  59.5778894
  51.2159491  66.2005424  60.0587320  51.5908861  66.7818165  58.7124300
  63.0741493  59.5344864  25.5599930  63.0737869  60.4515658  25.8342220
  62.4448220  59.1099130  26.1430218  62.4438325  59.3894945  36.5547897
  63.1701127  58.7831961  36.4093639  62.8522579  60.1642142  36.9411041
   0.8141033  27.5235314  15.9747078   1.5033166  27.9250283  15.4455425
   0.8457296  27.9952045  16.8070270  16.4157979  18.9675279  28.1743862
  16.0938136  18.5175748  28.9554741  16.6164796  18.2633014  27.5579311
   7.8269038  37.5259161  47.2724199   6.8936190  37.7213836  47.1887064
   8.2560381  38.1524515  46.6897297  20.4619662  29.6276040  47.5896885
  20.0353067  30.4049678  47.9501106  19.9312608  29.3945880  46.8279220
  11.9822733  11.5784926  13.7618162  11.7684548  11.9526143  12.9070951
  12.0795409  12.3368878  14.3376734  63.4184122  35.9422517  45.4501200
  62.7169371  35.3853154  45.7877350  63.5838604  35.6105304  44.5676088
  43.5068052   0.4624028  39.5436146  43.3701245  -0.3021197  38.9841034
  43.9894120   0.1240296  40.2978279  25.0606744  25.1642795  21.5511658
  24.2522781  25.6693358  21.4637329  25.4296271  25.4458184  22.3883297
   9.6451903  65.9309255  30.7423069  10.1151276  66.4089666  30.0590278
   9.0584994  65.3448258  30.2642776  46.4915848  24.0041828  47.6615524
  47.1395922  23.4984279  47.1711111  45.8106804  23.3692932  47.8840637
  19.7517411  27.6258512  25.4103710  19.7506826  27.0467944  26.1725475
  20.3012149  27.1759791  24.7685577  68.8241811  -0.0345044  24.9785473
  68.4256573   0.4396696  25.7083275  68.4391125   0.3615065  24.1968014
  69.5667807  61.4689218   7.0447923  69.3047015  61.2317477   7.9343416
  68.8960997  61.0775362   6.4851190  62.2862816  62.8954220  57.0644093
  62.2776651  63.1974697  56.1561537  61.3809443  62.6390982  57.2401762
  11.9868676   6.3981385  41.2235405  11.8212263   5.5284591  41.5874817
  11.4855091   6.4161010  40.4083397  54.5575539  67.1849595  11.5603878
  54.8179809  66.5783416  12.2535135  53.6037461  67.2298227  11.6272594
  75.1259764   7.3646350  18.7860252  74.9301679   6.4841790  18.4655716
  74.8227365   7.3620267  19.6939232  69.9310239  17.0734592  34.1794540
  70.3843375  17.6850171  33.5991623  69.5320566  16.4342160  33.5891773
  73.0865923  51.6111146   5.8759119  72.6274888  50.7980262   5.6653311
  73.3684079  51.4988278   6.7837717  31.6433685  37.7680202   8.0564215
  31.1131684  37.0100732   8.3026554  31.2601440  38.4970326   8.5441830
  50.6057739  40.3389454  48.1747055  51.5231705  40.1175976  48.0146265
  50.1607275  39.4930530  48.2260275  16.8897359  11.9112248  33.2460548
  16.4678399  11.6606231  34.0679027  17.6186959  11.2976976  33.1542255
  68.0565739  38.8101983  40.8735037  67.8726244  38.8292336  41.8126678
  68.1213999  37.8791475  40.6609583  50.8245325  53.8124323  62.4443531
  50.6426096  54.2134857  63.2942343  50.0083828  53.9100409  61.9538355
  76.9637648  70.7040320  31.6616775  76.1042992  70.5347358  31.2758114
  77.2205893  71.5563642  31.3098194  61.5096712  54.3452644  55.1782560
  61.5106440  53.5589266  54.6324539  61.2296724  54.0380001  56.0404778
  64.2445715  16.4760537  24.3935444  65.0874777  16.0954137  24.6402313
  63.8170095  16.6718669  25.2272560  27.5693727  59.0435648  63.3581257
  27.1437860  58.1905079  63.4441614  26.8632412  59.6393681  63.1078625
  51.0729313  27.8839087  46.5144300  51.6590357  27.5520921  47.1945858
  50.2588558  27.3966169  46.6411448  67.7357308  72.6611863  10.3764107
  68.3782546  72.9428254   9.7252037  67.2359721  71.9727527   9.9376299
  61.6290487  14.9056764  12.7153208  61.5636517  15.2479310  13.6068441
  62.5407167  14.6260018  12.6324035  62.1999256  61.3212286  31.5543415
  62.4872176  61.2865745  30.6419327  62.6664225  60.6017982  31.9798233
   4.1312306  49.9017663  12.7838709   3.5431997  50.5779977  12.4474575
   3.9959757  49.1549535  12.2005989  14.5335071  34.5542712   4.4272806
  14.5295303  34.6138663   3.4719469  14.4784562  33.6160846   4.6089603
  75.8186579  50.1916790  57.5259638  76.6645956  50.1905870  57.9738712
  75.2178383  50.5991268  58.1498528  55.0675551  52.8205191   4.0116693
  55.2652542  51.9151364   4.2513134  55.2133814  53.3184873   4.8160269
  57.4373118  64.2186485  24.6044399  57.8055588  65.0038563  25.0095035
  56.5460292  64.4697534  24.3619682  31.2968795  14.3429990   3.2451774
  30.9490030  14.3078179   4.1362287  32.2034852  14.0479179   3.3301832
  53.5176992  22.4564290  62.1348190  54.1588688  22.1189070  62.7602911
  54.0393162  22.9411507  61.4951372  75.6513993  74.0596663   8.5922577
  76.0897652  74.5099150   9.3142988  75.4162613  73.2039867   8.9510824
  58.3306265  50.6827021  57.9052544  59.1483116  50.1856136  57.8823423
  57.7929211  50.2911377  57.2169352  20.3656165  32.6634402  21.9821503
  20.7480685  32.3434157  22.7991821  20.7748048  33.5177751  21.8446400
   2.2606406  18.7938786  47.6272249   1.3376078  18.7342346  47.8735733
   2.3841223  18.0911565  46.9891310  72.7486753  44.7744703  40.3953600
  73.4071922  45.4151678  40.6638575  72.3980618  45.1208735  39.5748067
  40.4300356  18.3663607  45.4717159  40.6769753  17.9660892  44.6380281
  40.5962038  19.3007803  45.3472996  17.9188669  36.5888309  62.6177549
  18.1715119  37.2114086  63.2995176  17.0750535  36.2436414  62.9094028
  48.0937862  43.8405180  62.2215080  47.5773335  43.1243086  62.5910378
  48.2401752  43.5851288  61.3106966  41.4761274   6.4925284  17.9965259
  41.5145080   6.4932962  18.9529564  42.0050876   5.7384296  17.7361919
   5.9332220   7.4238868   1.1501695   6.2020652   6.5260453   1.3446667
   6.0617749   7.5131602   0.2058508  24.2366950   3.7905116  25.2314140
  25.0922219   4.1306872  24.9695255  24.2149894   2.9004855  24.8798229
   7.6507966   6.0701699  11.9939186   8.5227863   5.8180423  12.2977163
   7.0510237   5.6367536  12.6010849  26.1940098  30.9083009  59.8939133
  25.7075286  30.2731490  60.4194117  26.2203693  31.6971302  60.4354715
  67.7032264  24.5450969  22.4605038  68.1943949  24.4066424  21.6506721
  67.9314108  23.7954087  23.0101730  52.5941173  72.2662602  10.2767708
  53.5128395  72.2644769  10.5454256  52.1041242  72.2554408  11.0989763
  48.7740278  45.7325506  57.5134277  48.4129715  46.3870907  58.1112957
  48.0433226  45.1397467  57.3376846  19.6392489  35.5031195   1.0919906
  19.9434758  34.7380836   0.6037285  20.0280476  35.4028480   1.9609024
  40.2436209  23.4136486  58.5305071  40.6036282  22.5562739  58.7575245
  40.4461765  23.5199976  57.6010513   7.2012179   3.5341926   9.5261432
   8.0769484   3.5914416   9.9083044   6.7935579   2.7915163   9.9716522
  50.8596198  13.3992667  15.2937414  50.1222055  12.7996821  15.1799204
  51.5039651  13.1119723  14.6468117  16.2601106  21.5040107  13.3315899
  15.4369132  21.0923143  13.0687477  16.6415469  20.8946796  13.9636137
  50.4110909  52.3010969  45.7798290  50.5155849  51.7550898  46.5590572
  50.0366831  53.1184149  46.1085224  63.6941019  72.4065124  43.0710365
  64.0540139  71.5557228  42.8203346  63.1249134  72.2155152  43.8165428
  35.4505227  62.5889431  11.9018747  34.9637083  62.5902997  11.0777141
  34.8519687  62.9865085  12.5342562  59.4447698  18.6188741  33.4828331
  59.2838235  19.5577092  33.5772754  58.8846304  18.3519692  32.7539779
   3.1431866  26.4290057   9.7421266   3.7902833  25.7238029   9.7558977
   2.9834176  26.6255187  10.6652119  63.4701777  65.3885937  62.3458719
  64.4273233  65.3978539  62.3502445  63.2269382  65.3358746  63.2701492
  31.1412208  28.9004417  25.1940586  31.9970290  28.4798665  25.2773334
  31.1799590  29.6435971  25.7960941  24.5637481  13.7187285   6.3798715
  24.9645106  12.8666921   6.2076618  25.2471702  14.2191501   6.8256761
  19.6865432  17.1750159  31.0420467  20.0903194  17.1828504  30.1742126
  19.4390313  18.0861945  31.1992885  38.3612657  60.5132532  54.5275831
  38.3193350  59.5638037  54.4134760  37.8784084  60.6787252  55.3373384
   0.6613509  15.7159133  44.9365665  -0.0127442  15.5757613  45.6015350
   1.4247458  16.0172410  45.4291679   9.3629329   0.2328081  20.5612900
  10.1107948  -0.1259785  20.0835754   9.0590779   0.9606190  20.0188877
  56.2257604  41.8876071  20.8405353  56.8919112  41.4444776  21.3660003
  56.2936191  41.4820237  19.9761726  78.4008020  68.7561560  57.8977776
  78.0833826  68.5839844  58.7842512  77.8264111  69.4470549  57.5676727
  13.0687182  27.5924964  46.6750194  12.9636542  26.6895719  46.3751461
  12.8055541  28.1260629  45.9251644  12.0699073   7.8830990  62.9810524
  12.6410962   8.4194168  63.5309124  12.2935534   8.1358036  62.0853090
  25.8246534  46.2991567  -0.0270270  24.9657314  45.9038968  -0.1762007
  26.0627906  46.0271783   0.8592893   7.0332114   6.4203925   9.5791389
   7.2443812   6.1984010  10.4859783   6.9083373   5.5747552   9.1483976
  28.3129501  22.1761608  40.8322525  28.1630874  21.2454128  40.9980297
  29.0343261  22.4103403  41.4162111  37.3520970   7.5751275  56.2901974
  37.0335960   6.7479140  55.9289360  38.1974316   7.7133787  55.8629608
   9.1729339  50.5064789  36.0609913   9.3627580  50.0077501  35.2663422
   8.3563860  50.1308385  36.3901973  75.1902961  39.7708741  62.6787281
  76.0142779  39.4168106  62.3441792  75.2229714  40.7019607  62.4590874
  76.0881542  57.8965560  22.5317407  76.4786529  58.5878149  23.0664396
  75.6204986  58.3642915  21.8398213  78.4595925  70.6702243  17.7374222
  78.2810719  71.4632307  17.2319557  77.6869661  70.1214276  17.6028778
  33.7557411  16.3122535  47.2201109  33.1373763  16.8496835  47.7151108
  34.1297483  15.7173526  47.8700686   3.5992702  72.3040626  35.1519513
   3.5508450  72.8776514  35.9167266   2.7435978  71.8763280  35.1187992
  50.8132712  31.5163885   0.3620626  51.0249583  32.3336499  -0.0890539
  50.2647630  31.7848079   1.0991670  24.2028522  14.1552436  37.3906922
  23.4720755  13.6580896  37.7581620  24.2446184  13.8784266  36.4753461
  69.2361037  17.0369087  22.2619201  69.2053811  17.0516239  21.3053276
  69.7732893  17.7937983  22.4959804  42.1854353   5.1364285  63.3879948
  41.2534285   4.9270955  63.3265114  42.4359989   5.3779334  62.4962950
  65.2529470  70.3607403   2.6972153  64.3216626  70.5001055   2.8690292
  65.2731315  69.6807633   2.0238258   8.9201840  70.1347456  51.2117577
   9.3187269  70.7756064  51.8005610   9.4904383  70.1287023  50.4429865
  18.2774127   9.0550321  55.5488443  17.6321197   8.8066483  56.2107611
  18.0467319   8.5317665  54.7812414  66.9081914  64.1435728  58.8814640
  67.5989889  63.8413468  58.2918119  66.1789965  63.5439959  58.7233067
  31.1552334  13.2421851  35.3314877  30.4025245  13.5094249  35.8589768
  31.8806314  13.7706876  35.6642294   8.8262416  34.8465332  16.6205265
   9.5487023  34.2188920  16.6017296   9.1021443  35.5104667  17.2524311
  24.7108503  14.0920101  23.1229164  25.3856213  13.4566961  23.3622791
  24.1327754  14.1260491  23.8850929   4.9300719  31.1242621  10.8835508
   4.3096019  31.3727222  11.5687658   4.3796826  30.8666186  10.1440098
  55.4659033  10.8543622  33.0983162  55.7120275  11.3448095  33.8826108
  55.0101757  11.4928222  32.5497651  55.6934448  68.9019046  39.4234872
  56.2212908  68.1964007  39.7974849  56.0726886  69.0515086  38.5574484
  65.2114359  60.9262739   4.6887066  64.3272630  60.5619322   4.7302296
  65.4255692  61.1393796   5.5969860  26.3523936   9.8092920  45.4341459
  27.1334648  10.3397655  45.5914927  26.0132480  10.1249158  44.5965385
  28.7750753  68.2615897  58.0900049  28.5540327  69.1590208  58.3389759
  29.7106775  68.2920274  57.8901196  33.2891369  22.1374893  38.5835075
  32.6991534  22.8523469  38.8225269  32.7876997  21.6111398  37.9608130
  22.7160192   6.9555533  55.8936167  23.5943985   6.9235194  55.5145979
  22.2215056   7.5251293  55.3043175   5.9499217  56.0127328  10.3719189
   6.8860675  55.8424328  10.2677013   5.5330754  55.4837822   9.6917154
  28.3641429  31.1633746  13.4674646  28.7251056  30.4383533  12.9572870
  27.4232248  31.1329787  13.2943107   7.8283149  16.0368526  48.4906054
   7.1621019  16.0189009  47.8035355   7.8196245  15.1521087  48.8558292
  12.9049047  59.5300797  57.8073692  13.7584623  59.1040352  57.7289057
  12.9744466  60.3091351  57.2555780  64.8293626  47.8143564  40.7020998
  65.6848382  47.4273649  40.5160093  64.9671292  48.7568465  40.6074190
  47.9223887  64.9203430  22.5992348  48.5293309  64.3384992  23.0567409
  48.4589640  65.3506552  21.9335415  53.2939053  14.0022933  61.4260960
  53.5649729  13.2781732  60.8618259  52.8808546  13.5781610  62.1782494
  66.2938992  27.5611721  11.6093208  66.1516372  27.9527466  12.4710991
  66.0386459  28.2452272  10.9903290  43.3527461  64.3503414  14.3481399
  43.6026839  63.4681283  14.6228458  42.4839059  64.4822060  14.7275640
   3.1217385  51.3556336  23.7679531   3.5662938  50.8974336  23.0547573
   3.5317088  52.2203277  23.7894203  72.8381077  49.4995879   0.6554701
  72.1688334  50.1707517   0.5218937  73.6642424  49.9830078   0.6614734
  18.1703627   9.4134837  49.4028187  17.5807893   9.0667456  50.0724506
  18.0498195  10.3621030  49.4455147  66.8614832  51.2779139   4.5656444
  67.0881478  50.3562926   4.6900179  66.3890616  51.5180539   5.3627493
   9.8640164  47.5204292  41.1596680   9.7287544  47.8647176  40.2768326
   9.4697960  46.6484061  41.1396837  67.7302567  56.6732513  34.0021183
  68.2412783  56.8662725  34.7881462  68.3569161  56.7543350  33.2831241
  77.8191916  49.5551311  14.0352918  78.6570565  49.1222583  13.8714744
  77.2717492  49.3070649  13.2903053  71.5312115  42.9148112  15.3381111
  70.6851212  43.2890610  15.5836727  72.0922438  43.0723195  16.0975029
  62.0734183  41.3030397  21.2920715  61.2569181  41.8022440  21.2732937
  61.8299071  40.4335497  20.9743931   4.0593942  61.8215016  49.4312143
   3.5576852  62.5895039  49.7045088   3.8488802  61.7156056  48.5034704
  28.5250807  24.5976853  42.1618032  29.1829348  23.9052129  42.2245741
  28.1830621  24.5230889  41.2709141  57.5291109  57.7471234  28.7690975
  57.6391411  58.6367871  28.4335090  57.3150539  57.2244050  27.9963257
  56.2171999  46.6646354  10.4077579  55.9147421  45.7641493  10.5255510
  55.9192411  47.1221565  11.1939718  47.9399586  12.0897067  23.9504433
  47.0945883  12.3704696  23.6000752  48.5833025  12.6110339  23.4702802
   3.2410844  45.8340851  55.5875778   2.8269204  45.1268378  56.0820484
   2.5175460  46.4112392  55.3434086  31.8032384  17.9317081  54.4985533
  31.2852383  18.7353635  54.5437717  31.2861061  17.3441160  53.9476013
  44.3058681  17.8866780  60.2845860  43.9070034  18.7197328  60.0332737
  45.1608801  18.1282806  60.6407022  43.1048679   3.1779203  54.7621202
  43.8246489   2.6335314  54.4430828  43.5106039   4.0235716  54.9531317
  63.5406176  32.0027430  15.3502943  63.1553213  32.7476899  15.8116342
  64.4711939  32.0393168  15.5714752  70.8125750  33.7752770  18.3238937
  70.5060879  34.6811761  18.2833435  71.7648903  33.8472732  18.3882477
  30.1098871  21.8976068  49.4485950  30.5739260  22.3970199  48.7766695
  30.7744193  21.3143039  49.8151827  22.8455242  73.3090827  48.0020666
  23.6868366  73.1088601  47.5917721  22.2388109  72.6697176  47.6287794
  42.7528429  31.7068052  58.0734682  42.0222473  31.2897944  57.6167822
  43.5056925  31.1476469  57.8816605  59.7877256  54.5149146  21.4581062
  60.3780238  54.9506639  20.8433677  58.9182464  54.6228384  21.0726311
  59.4094719   2.2483368  10.5618336  60.0570144   1.8549342   9.9768926
  58.9495058   2.8859038  10.0157835   3.7915310   2.7066910   6.2743402
   3.7779132   3.6044317   5.9425151   4.7212815   2.5027749   6.3754052
  48.0504743  49.9299120   8.3559563  48.0708519  50.7667194   8.8202526
  47.5168435  49.3610691   8.9108326  77.5865761  16.6142641   9.5218088
  78.2108370  16.1062442   9.0036871  77.2706477  17.2895740   8.9214947
  64.9117994   7.4431527  47.5651407  64.9419689   6.6658753  47.0073223
  64.6952343   7.1058834  48.4343815  72.2496414   5.5051631  43.6293983
  72.8523540   5.6949890  44.3483782  71.5863609   4.9343300  44.0172577
  49.8184586  15.3244019  51.5969801  49.5165968  15.0002182  50.7484388
  49.8926687  14.5399582  52.1404600  66.2332455  58.6506973  12.4234297
  65.4824249  59.1712938  12.1379806  66.9809929  59.2422329  12.3386099
  77.6252142  36.4531342  12.9725744  77.3315064  35.6346618  12.5724842
  77.6414744  36.2683747  13.9116337  13.0264425  17.5024760  62.0799017
  13.6487997  17.3513329  62.7912807  12.3300159  18.0248129  62.4778795
  34.8641491  21.5743208  44.6901894  35.5029011  22.2470045  44.4541311
  34.3888283  21.3997984  43.8778782  43.6307573  20.4227829  58.9307261
  44.4778967  20.8127475  59.1464043  43.4420490  20.7343841  58.0455542
   7.6107013  28.0187011  52.3824978   7.4309886  28.7273145  51.7645979
   6.8194771  27.9615903  52.9181576  51.0022211  27.3731661  52.8024960
  51.3970184  28.2444572  52.7676296  50.9923935  27.1517563  53.7336874
  32.5777713  72.4873410   1.3151838  33.1378613  72.4338423   2.0895674
  31.7380408  72.1281587   1.6016723  21.9452906  23.6559772  20.3102827
  21.6046977  23.7559533  19.4213319  22.1970177  24.5418119  20.5713630
  48.9620892  63.9300619  27.7950527  49.5203415  64.7073256  27.7738811
  48.5368482  63.9171563  26.9375946  63.8789129  11.5139318  49.6326256
  64.3434906  12.2077727  49.1646671  63.6332560  10.8883286  48.9510822
  53.1169907  41.0890125   5.3067018  52.2290174  41.4193277   5.1702215
  53.0520479  40.5445494   6.0912897  23.0988479  64.5076428  22.2662594
  23.8603828  64.7586452  21.7434837  22.3942984  65.0731741  21.9500019
  45.7450024  67.4651371   5.6236269  45.2819482  67.9356037   6.3167908
  45.4177324  67.8521071   4.8116066   7.6651097  68.3130489  30.7168247
   7.1352244  68.9062630  31.2493183   7.2667456  67.4526773  30.8483459
   5.9026974  19.5231342  38.5682154   5.4602647  19.0529704  37.8615117
   6.6829646  19.0000737  38.7521243   6.4638504  69.2777476  44.1139746
   6.4098891  70.0623706  44.6595812   6.2235173  68.5608581  44.7009516
   1.3139630  57.7071606   9.6272375   0.6736279  57.5074540  10.3101112
   1.4441491  58.6533676   9.6902992  18.6574606  46.0818689  18.5024311
  19.3540440  45.9252189  19.1399814  18.2983569  45.2131753  18.3217480
  32.4746084  28.2278943  35.9032011  31.8455720  28.5301709  35.2480888
  32.6228976  27.3075080  35.6860948  11.3619125  28.1598282  25.5458856
  11.6382122  28.5853791  26.3575482  11.9182539  27.3836160  25.4810071
  67.5183312  39.6813612   6.2445070  67.6392428  38.9590854   5.6281235
  66.6993491  40.0947644   5.9713747  19.1839719  21.5877843  34.5976782
  20.0452733  21.4445329  34.2054152  19.3079996  21.3912582  35.5262399
   1.6287375  44.9549531  16.0266544   2.2280169  44.8214583  16.7610027
   1.4959813  44.0792786  15.6636049  31.9224834   2.2534373  47.0121336
  31.4657354   2.0622115  47.8313065  32.4089479   3.0580920  47.1913385
  55.8281708   5.9051418  61.2330055  56.5607882   5.3786188  61.5528202
  56.2302494   6.5397167  60.6398106  25.1108997  11.1893745   5.9113218
  24.9906842  10.5260844   6.5909054  25.1143329  10.6947608   5.0918247
  22.8770574  60.0735131  52.4315834  23.4699377  60.3407267  51.7292118
  23.1791242  59.2000440  52.6806593  49.8218012  31.8481231  51.1880350
  50.5447054  32.4742270  51.1476135  49.5007420  31.9107294  52.0876122
  31.2475014  26.6454339  59.3560600  32.1061087  26.2369132  59.2458820
  30.8699036  26.6502357  58.4765005   4.0934420  60.3228556  37.7901317
   3.4409524  59.7333418  37.4120285   4.9264956  59.8671208  37.6694443
  26.7524481  24.0927362  63.2764530  26.7492580  24.7772551  62.6073837
  26.4144993  24.5236135  64.0615416  38.7585568  26.1852050  57.2852230
  39.2554498  25.4366994  56.9549656  38.7758899  26.8192887  56.5683746
  22.6265073  13.6511958  45.0692463  23.4392905  13.5516095  44.5735645
  21.9483709  13.3044839  44.4894600  32.7344370   8.6790913  59.3459702
  32.7180290   8.2718778  60.2120733  33.6374903   8.5710245  59.0475655
   9.0613461  46.7877565  16.9543697   9.3187476  47.6093410  16.5360691
   8.2110072  46.9770597  17.3510029  50.0266091  16.6366802   4.2706873
  50.1696054  15.9781681   4.9504997  50.7139412  17.2863375   4.4181682
  49.5886890  52.7405857  43.3419086  48.8365952  53.3296202  43.4021236
  49.7751967  52.4968253  44.2485573  48.9132611  44.6323632   1.6906788
  48.6881510  43.7127851   1.8318655  49.6723668  44.6064125   1.1081697
  44.7043697  69.0047298  17.4201824  45.3479699  68.3115564  17.2734978
  45.2150408  69.8140560  17.3992206  48.5589855  69.7342724  43.4140158
  47.8236013  70.1156205  42.9344177  49.3362161  70.0760562  42.9720545
  67.8733050  73.5493762  59.8170519  67.1212732  74.0333752  60.1582670
  68.2013177  73.0555508  60.5685711   4.4804240  60.3661905  10.1564218
   3.9342786  59.5802008  10.1430895   3.8563681  61.0907923  10.1981212
  60.2950096  16.0137439  48.5063839  60.3724813  16.2999666  47.5962687
  60.5679178  15.0963712  48.4930086  10.6487307   7.0700270  38.6727190
  10.7317004   7.3617387  37.7648354  11.0278734   7.7816480  39.1885448
  74.7057866  63.1361547  47.5026035  74.0359496  63.2544211  46.8291330
  74.2115902  62.9709712  48.3055449  47.7950898  14.5864236  14.2451525
  47.5074115  15.0554132  15.0284290  48.1636778  13.7680686  14.5778251
   4.5613147  43.8844954  38.0675747   5.4483653  43.6091451  38.2989742
   4.3788672  44.6203934  38.6518623  44.3175364   9.6978891  45.7850218
  43.7790632   9.0045971  45.4034090  44.8956919   9.9714988  45.0729084
  67.2205941  49.8219000  21.7609741  68.0947653  49.6915375  21.3934662
  67.3791520  50.1687859  22.6389076   2.5359687  15.5421376  42.5332451
   2.6497874  16.4922452  42.5571680   1.7616674  15.3800261  43.0721378
   4.8954692   8.0910879  63.3666134   4.4950357   7.8851819  62.5219345
   4.1564012   8.1648976  63.9704037  24.7465182  39.8476236   9.2987015
  25.1852513  39.3188532   8.6322595  23.8989735  40.0662629   8.9112760
  20.0191737  24.6704351   2.6332094  19.9439908  23.8279687   2.1850683
  19.1165972  24.9772905   2.7193548  54.1787569  67.0424663   8.7720157
  53.8016716  67.8847991   8.5180237  54.2024604  67.0693337   9.7285463
   0.5536231  60.7633415  39.4243288   0.1433524  60.2657202  40.1316357
   1.4586385  60.8855358  39.7111154   7.8916979  35.9320164  42.8711653
   7.0768923  35.9322071  43.3734798   8.4509319  35.2994657  43.3221292
  17.2034776   8.5139167  36.9392753  17.7571332   7.7495342  36.7798495
  16.4294565   8.3665699  36.3957572  62.4520874  25.4488063  41.9160461
  63.0469227  24.7967315  42.2864628  62.0727730  25.8870912  42.6777983
  17.8851462  28.4457682  13.8795378  18.4019995  27.9169647  14.4873716
  16.9901658  28.1220637  13.9817669  77.4930541  45.6552892   7.5389053
  78.3537404  45.2391122   7.4915077  76.8775574  44.9254434   7.6076414
  56.9472075  38.0659389  52.7581644  57.4227905  37.4306202  53.2933474
  57.6323223  38.5887003  52.3415470  39.6235780  67.5305425   8.7657883
  40.4388908  67.3256599   9.2235185  39.8638765  67.5357781   7.8392555
   9.5954554   2.9008026  10.5368568   9.7573988   2.2150822   9.8889400
  10.3564541   2.8671737  11.1164953  25.7532096  26.8315196  50.9831810
  26.5624475  26.6283226  51.4523029  25.5503798  26.0317469  50.4979467
  27.2924972  14.8304796  52.8858519  27.9376221  14.1493249  52.6959181
  27.5275302  15.5522561  52.3027325  44.7414732   7.8133219  42.0621490
  44.0497875   8.4717667  42.1273899  44.2849493   6.9767374  42.1512890
  21.2508607   7.4032360  58.2776642  21.6685510   7.2224271  57.4355984
  21.4943695   8.3073187  58.4765863  11.4742049  71.0143459  33.9244390
  11.9175275  71.2202558  34.7474217  11.2539323  70.0856570  33.9968801
  10.5235005  28.8348018   1.9384958  10.0659753  28.7492643   1.1020853
  10.6963111  29.7725485   2.0221664   9.2513355  54.3117503  48.2210207
   9.3431552  55.2625683  48.1598139  10.0531801  54.0211717  48.6555767
  60.2418057  22.7272593  12.1594574  59.4888607  22.3641013  11.6931726
  60.6573812  23.3113657  11.5251495  54.1861311  52.9793678  27.9369785
  54.9426047  52.4649774  28.2187225  54.2130176  53.7643002  28.4841492
  53.8047663  49.8867940  21.9872047  54.2276803  50.6363450  21.5682175
  54.4626132  49.5497011  22.5953533  71.5746085  54.8146139   9.3313982
  70.8030764  54.7412048   8.7696316  71.2725846  54.5247017  10.1921894
  27.0194982  15.4776131   6.7481138  27.5281248  14.7125159   6.4794876
  27.6206250  15.9855996   7.2929336  58.9277363  10.7107925  58.9923668
  58.1819105  11.2184703  59.3121195  58.9385128   9.9280745  59.5432425
  39.5061878  48.2481466  13.8891413  39.4568268  47.2972249  13.7914564
  40.2974407  48.4972297  13.4115316   6.0734614  69.1460744  53.7007618
   6.4682015  69.9249617  54.0928650   6.8130024  68.6616519  53.3338261
   9.1452122  69.5904122  17.5970604   8.3255816  69.3932544  17.1436741
   9.4136286  70.4402839  17.2479202  59.7072593  49.9721800  36.4710190
  60.0682513  50.8163200  36.2001945  58.7868062  50.0108646  36.2112190
  75.9654538  58.8525926   9.9560310  75.4820649  59.5039140   9.4477512
  76.4851586  58.3792864   9.3063213  13.6415124  13.2737672  42.5418091
  13.2191658  13.9547062  43.0654287  14.4250333  13.0402660  43.0396080
  25.6762481   4.2047027  36.9798470  26.2782359   4.2673016  37.7214170
  24.9866295   3.6128518  37.2804642  46.3157836  36.2740613   3.0827810
  46.4487640  35.3910758   3.4275772  47.0070640  36.3827833   2.4296762
  51.6811848  73.2846119  33.7165405  52.5422668  73.3774092  34.1241695
  51.7977095  73.6265423  32.8301193  61.0500717  22.3490000  40.7492304
  60.4133844  22.3684049  40.0347519  60.6305552  22.8378487  41.4572287
   4.6075965  56.8579315  14.6108867   3.9004994  56.9253861  13.9692499
   5.1465226  57.6336561  14.4558384  55.6903599  20.3738208   5.0065662
  55.0986798  20.3352494   5.7580044  55.1110663  20.4647107   4.2500021
  72.5186554  71.1884008  40.2342941  72.9357115  72.0106922  40.4914619
  72.9771344  70.5184542  40.7414486  11.6260040  33.4752154  49.7202444
  12.4476600  33.0473971  49.9612522  11.3932645  33.9968157  50.4883575
  60.3749243  66.4552413   9.2471029  60.2593867  67.4053489   9.2605545
  60.0820652  66.1906754   8.3750536  78.1104143   8.4652562  21.8317749
  78.4972127   9.0204997  22.5087692  78.5637720   8.7173791  21.0273315
  62.8285535  52.7977696  59.0631771  62.2611745  52.5149170  59.7803211
  62.4834188  53.6532966  58.8078594  55.5739681  19.9637555  13.0861093
  55.1609746  19.5304798  12.3391582  56.4130441  19.5148729  13.1894876
  22.2515933   3.6929698  33.0392982  22.0800893   2.7875919  33.2983543
  22.7486484   4.0610595  33.7698318  74.5003191  60.7665978   8.5957958
  74.7628991  61.5963255   8.1972553  74.1020838  60.2722107   7.8794052
  47.4323511  25.9782457  49.4169521  47.0242929  25.4776978  48.7104273
  47.6405525  25.3244662  50.0843763   0.4131413  20.6264385  62.7545023
   0.9397698  21.2764629  62.2893524  -0.0997209  21.1373600  63.3807230
  28.1953447   0.9008117   0.8999969  27.8929727   0.2620120   1.5455486
  29.1367500   0.7427116   0.8293583  67.6501767  34.9642058  20.4304935
  66.9243065  34.4517471  20.0744964  67.2834507  35.3944187  21.2029316
  50.4632219  68.8919333  57.2944927  49.5743974  68.9584545  57.6434803
  50.9341224  69.6211502  57.6978874  58.7003851  59.4456673  58.7775993
  58.8863373  58.5190153  58.6260271  59.3794870  59.9094725  58.2877636
  20.2117698  26.6559739  27.9279663  21.1590402  26.6440864  27.7909710
  19.9961488  25.7604308  28.1882335   0.5620671  55.6818818  36.4564564
  -0.1957988  55.9022974  36.9980194   1.0558224  55.0513433  36.9807197
  48.4831334  29.2467837   2.3842766  48.7603188  28.8962679   3.2307627
  48.6833859  30.1814322   2.4348881  27.0217324  50.1203357  18.7740471
  26.9573642  50.2141188  17.8236248  27.4125958  50.9424768  19.0699245
  75.1677752   4.8849356  64.0624285  75.7206678   4.1823682  63.7204599
  74.2733145   4.5664808  63.9409494  60.7880107  47.5144635  21.0539867
  60.0952784  48.1218051  21.3137771  61.5663544  48.0640052  20.9622337
  51.1785809  53.1090961  15.6416084  50.9238211  53.2818125  16.5479709
  51.6986553  53.8720952  15.3894474   2.9591799  55.4137348  10.7449772
   2.1435977  54.9709497  10.5104639   3.5909367  55.1140712  10.0912811
  33.2597399  48.5974360  63.8748837  32.4916053  48.1637526  64.2465258
  33.7161398  47.9063892  63.3949041  16.1152459  27.2246371  11.4668896
  15.7179166  27.2584640  12.3370697  16.8138982  26.5753339  11.5476753
  48.9029399  55.3068040  39.3060448  48.9292876  55.9097730  40.0489952
  47.9815189  55.0584231  39.2317249  72.3037338  23.7925816  51.4269590
  72.1055412  24.7181678  51.2846851  72.6554203  23.4914207  50.5891943
  17.1549909   7.8851314   8.9520361  16.6893308   8.4577699   8.3425524
  17.9234092   7.5897975   8.4636261   1.5835318  26.3751459  59.9881601
   0.7951578  26.2880754  60.5239916   1.4639363  25.7409239  59.2812729
  54.9181787  26.5013681   1.3047220  55.0995914  27.4410938   1.3201095
  54.0475074  26.4318965   0.9131386  29.2130153  21.6618295  44.5639183
  28.5289447  21.8520923  45.2058555  28.7770145  21.1267037  43.9007713
  45.6628994  70.1661669  10.1823570  45.4533080  70.9196626   9.6304991
  45.3387348  70.4072796  11.0501196  48.8643090  63.7912332  18.4553387
  49.7213022  64.0268885  18.0999996  48.4656278  63.2457958  17.7772571
  57.4631651   7.2973437   4.7936775  57.8034331   7.9634614   5.3909494
  56.6751139   6.9681497   5.2259256  -0.0594043  22.9804801  31.8778660
   0.0865222  23.8966929  32.1134235   0.2523185  22.9126345  30.9753944
  66.7839018  35.4060282  23.2810833  67.1928946  36.2409426  23.5088398
  65.9235279  35.4388076  23.6993076  62.4412429  73.8186293  38.9670897
  63.1144571  73.1835059  39.2112851  61.8674230  73.3410369  38.3680320
  65.3402177  16.0047995  31.9704868  65.6721035  16.6884004  31.3884403
  64.8273603  15.4325090  31.3997890   2.8057846  59.5285908  59.1660786
   3.4388145  59.0415612  58.6385345   3.1913956  60.3997258  59.2591429
  63.8098145  43.4596348  32.6072621  63.1677103  42.8807831  33.0181932
  63.3027077  44.2239571  32.3336196  77.6627135  71.6570965  47.1562862
  78.6062168  71.5860330  47.0114231  77.5355458  71.3589296  48.0569267
  50.9554950  50.6375299   7.7696516  50.0693480  50.2895175   7.8689672
  51.3982765  50.0068103   7.2018768  30.5596257  38.1334972   5.5385830
  31.0193635  37.7945961   6.3067056  31.2572385  38.4172332   4.9477627
  62.3530626  10.5794704  38.1853747  62.5431824   9.8170233  37.6387835
  61.4577961  10.4367161  38.4925389  67.2277260  37.7429271  47.7954483
  66.8138838  37.8711748  46.9419193  67.7578783  38.5292792  47.9251575
  16.3783074  56.1656104  17.7823593  16.1781789  56.2099837  16.8473579
  15.7254554  55.5630897  18.1386997  75.7896683  21.8714595  60.9828043
  75.8518532  21.1239696  61.5774679  76.0101074  21.5126586  60.1232100
  77.7410523  45.0109111  41.3956882  77.5104157  44.5521008  40.5878879
  77.2922245  44.5219259  42.0853760  47.2579924  52.8314160   7.7969600
  47.9867140  53.2841037   8.2215454  47.2335497  53.1946348   6.9116880
   7.9982686  33.7661195  55.7430506   7.9574633  33.1839132  56.5017366
   7.3800373  34.4680595  55.9462786  40.2837658  11.8388343  60.6456661
  39.6997952  11.5599740  61.3509655  40.0696373  11.2596130  59.9143076
   2.7165692   2.7519436  11.1931421   3.0318801   3.1085248  12.0236017
   2.0459144   2.1168656  11.4444019  61.7127887  20.0039815  53.0665638
  61.3143531  20.6954537  52.5380279  61.6328565  19.2157696  52.5293781
  41.5142421  65.1010023  27.9478313  42.2908620  65.6599294  27.9742004
  41.1396090  65.1699482  28.8259746  36.5909032  25.3911184   3.1574823
  37.1745304  24.6886061   2.8709795  36.0005019  24.9717103   3.7833883
  15.3202439  51.7480348  11.6809608  15.2542020  50.9463059  12.1997120
  15.1668883  52.4533831  12.3096086  75.7137171  28.3210705   8.9381506
  76.0934702  27.9749189   8.1305601  76.3801257  28.9171760   9.2798950
  48.2264471  12.6595366  61.3965034  48.9072084  12.3848772  60.7822132
  47.5483131  13.0486095  60.8442450  70.9533087  67.4761258  31.9854214
  71.0847584  66.9973122  32.8037693  70.0093762  67.4340473  31.8322708
  35.3793717  42.7020602   9.8727037  35.8458138  41.8662141   9.8676016
  35.4021931  42.9946421   8.9616014  55.0031988  59.1848432   2.2156908
  55.8608118  59.3645345   1.8304064  54.4896690  59.9721228   2.0348360
   2.0943833  50.7112692   9.2300941   2.3995543  50.1332794   8.5307886
   2.8948498  51.0863553   9.5972349  17.2231698  33.2590485  45.4921484
  17.0197451  32.3701000  45.2012491  16.3693047  33.6562753  45.6634903
  64.3934528  46.0843627   0.5747797  64.4207994  45.1376610   0.7134868
  63.8768212  46.4190082   1.3078119  52.2780887  15.4673277   8.1654169
  52.4073616  15.7731520   9.0631868  51.3358799  15.5491649   8.0178453
  74.6640921  45.0291014  56.4321947  75.0100279  44.4451427  57.1071434
  75.4349470  45.3055811  55.9366417  12.3086914  70.6620482  61.6873646
  12.4155148  69.7568634  61.3950300  12.7284511  70.6871540  62.5472546
  33.0667131  13.2180209  32.7333786  32.5582950  13.6492963  32.0465423
  32.4632375  13.1538768  33.4736111  39.5863295  16.6990674  29.6336222
  40.2202368  16.1696374  29.1497850  38.7488747  16.2570381  29.4939351
   2.1130706  48.4457813  13.8967182   2.1746016  47.6165758  13.4225179
   2.9672576  48.8585256  13.7692787  32.1910684  37.0075173   1.6137506
  31.7032830  37.7997346   1.3885929  32.9418056  37.0116038   1.0199453
  33.0044556  30.1032589  37.6271393  33.9513589  30.2378552  37.6659061
  32.8775693  29.5046400  36.8910744   9.7563792  39.5957153   6.0228016
   8.9730550  39.4732173   5.4864885  10.3209925  40.1616626   5.4963590
  76.9881518  34.0266891   6.2552502  77.2803266  34.1435714   7.1592476
  76.5815122  34.8620839   6.0250570  47.2243977  49.8062468  52.3928261
  46.9939375  50.5910254  51.8955898  48.0428696  50.0339031  52.8338575
  64.3033496  55.1363336  38.5948135  64.3636338  54.9268077  39.5268490
  64.0323941  54.3163239  38.1820156  56.9227123  19.4743657  38.8403988
  56.3595629  19.7229731  39.5733953  56.3723660  18.9117110  38.2956338
  59.3079424  10.1463580  53.5271502  60.0981712   9.6676576  53.2769156
  58.6200047   9.7801650  52.9713821   3.3450032  52.3445927  18.4837009
   2.9780055  51.4664696  18.3815052   3.7420798  52.3383568  19.3546345
  21.7205127  64.2313263  60.2140379  20.8294138  63.9131764  60.3587914
  22.1582159  64.1093114  61.0565090  50.9982363  72.6637398  12.5518658
  51.4013211  72.9196940  13.3814718  50.1595537  73.1249534  12.5407173
  70.3511254  43.9577864   5.7088711  69.7587315  44.1064404   4.9718477
  70.3290812  43.0108105   5.8466484  19.6912789  36.9321275  54.9635077
  19.8899913  37.5273275  55.6863403  19.0203619  36.3459301  55.3134727
  41.3110165  47.7680491  17.8264190  41.9740168  48.3960782  17.5396396
  40.5228034  48.2950424  17.9576828  51.0391188   9.9393356  61.2870979
  50.8478117  10.0903440  62.2127485  51.9941616   9.9715710  61.2315416
  61.8996254  58.8666473  28.9843513  61.2670056  58.8863646  29.7024299
  61.7894379  59.7098146  28.5448505  75.2807029   3.5573382   1.9151928
  76.1100800   3.4292502   2.3755838  75.5330212   3.7046952   1.0036804
  58.5318700  34.4970851   2.4308397  58.2896391  33.6065944   2.6849701
  57.7281372  35.0049041   2.5420381  15.4917368  73.4683514  60.4152250
  15.9428343  73.7287807  61.2182951  16.0186323  73.8464165  59.7111797
  75.0634304  30.0344424  25.0505974  74.3242947  30.4239480  24.5834781
  75.5857197  29.6161316  24.3661548  40.3321997  42.6833151  14.9512340
  41.0844437  42.7677719  15.5370905  39.6152321  42.4042688  15.5207254
   8.9828778  54.2386089   0.7593109   9.2835761  53.3513855   0.9559061
   9.1255952  54.3367814  -0.1820849  60.3131882  45.7138376  -0.2828072
  60.0982825  46.6027670  -0.0002287  60.1787559  45.1754902   0.4971554
  13.0512492   8.2003017  30.2338936  13.8301413   8.1607623  30.7888748
  13.3920138   8.1657310  29.3400719   1.2518247  65.5490002  56.4496517
   1.6777953  64.7807703  56.8299198   0.4256519  65.2159205  56.0993290
  67.9277340  15.6700979  18.8528587  67.9815642  15.1831256  19.6751644
  67.7893797  16.5784799  19.1210605  15.3405225  22.1891022  39.1897011
  15.2381241  22.8132629  39.9081516  14.5664680  21.6289282  39.2469287
  50.4291431  53.6320303  21.1035969  50.7603971  54.4890569  21.3719417
  50.8202783  53.0185782  21.7256309   1.1068059  61.1158834  46.2659218
   0.9100486  60.5634199  45.5094196   0.2513791  61.3129293  46.6475632
   2.5140954  69.7544395  17.5382377   1.5853406  69.9839126  17.5069000
   2.6976920  69.3807493  16.6763260  56.4905214  42.9183578  59.1225338
  57.1688986  42.2450447  59.1743946  56.0952568  42.9277611  59.9942636
  50.2236795   6.3944089  55.1395655  49.9442959   5.8791196  54.3828249
  50.0203848   5.8415413  55.8940458   0.6727108  16.2530446  51.4823103
   0.1182350  15.6590319  50.9764099   1.5651354  16.0347009  51.2137413
  33.8518970   0.6885810  12.0752670  34.5688646   1.1121888  12.5472309
  33.3740966   1.4106865  11.6672184  51.0040236  23.4024882  43.7909937
  51.5285826  22.6051831  43.7176991  50.9730434  23.5832858  44.7304535
  71.3364907   6.6455026  12.6106026  70.6786461   6.0649343  12.9932405
  71.3653226   6.3985105  11.6862680  69.9105612  41.3669796   5.3341343
  70.2116696  40.6814437   4.7378065  69.3093506  40.9194313   5.9295132
  65.1531378  62.2630368   7.0615913  65.2194539  63.2179295   7.0581915
  64.2514340  62.0865236   7.3299314  23.7468577  68.4475504  33.0418159
  23.4387923  69.1446005  32.4626304  24.6467448  68.6939822  33.2555916
  21.6109420  36.0931641   3.3593799  22.3083783  36.6526476   3.0176308
  21.0089970  36.6983545   3.7925484  64.6855680  51.4469491  18.1133701
  65.3826252  51.3874208  17.4600651  65.1255528  51.2871967  18.9483024
  58.2709042  36.4315840  36.6307689  58.0441204  37.2627563  36.2136890
  58.1500665  35.7774209  35.9425117  63.2213466  10.3033300  21.8643143
  63.2495944  10.4096074  20.9134533  62.6494090   9.5486207  22.0040848
  14.4107104  34.0754153   7.4227335  14.3123961  34.3976604   6.5267851
  14.1554929  34.8159194   7.9729606  38.1278611  22.6985978  10.9083273
  38.9587403  23.0242549  10.5621673  38.3261777  22.4475919  11.8104889
  58.7502948  40.4502837  20.1415302  58.8285939  39.6837859  19.5735695
  59.2400948  41.1359201  19.6874000   0.2601137  16.0733950  58.0806255
   0.9026896  16.4890850  58.6555433  -0.5431320  16.0446203  58.6004353
  49.1309158  50.3466080  17.6179268  48.8288967  50.4392062  16.7143585
  48.7963501  51.1250542  18.0632641  15.1129437  58.1298386  24.8454048
  15.6521321  58.2468663  24.0632202  14.4297744  58.7957178  24.7672035
  31.6406171   1.4949627  22.3141720  31.3192241   1.1775847  21.4702465
  32.2017591   0.7899995  22.6372482  57.7867786  38.2321559  16.3431694
  56.9327394  38.5342376  16.0339786  58.3250181  39.0232100  16.3708069
  35.7057667  67.2203694  11.7883446  36.5993405  67.1477448  11.4529468
  35.2574349  66.4475881  11.4447738   4.4578553  64.3358193  19.5774891
   3.8278533  64.9418579  19.9674179   4.9573374  63.9983498  20.3210308
   7.3399354  51.2102960  26.8649055   6.6323710  51.8390761  26.7227032
   7.2075177  50.5441366  26.1904194  46.9815159  14.6416390  59.5167017
  47.6117754  15.1381397  60.0387096  46.1690331  15.1435983  59.5810413
  63.7922875  60.3981696  17.0442631  64.2101661  60.7906996  17.8107693
  63.4358827  59.5693027  17.3639347   8.5419059   6.8516654  59.4655514
   9.1049087   7.5817764  59.2082644   8.1727040   7.1189719  60.3072596
  17.4437416  16.3064218  35.3761578  16.5374672  16.4765167  35.6329989
  17.3746848  15.8817673  34.5210958  60.4863898  49.0345536  11.8022920
  60.4245964  49.9884723  11.8518116  61.3126508  48.8251351  12.2378017
  58.0633831   6.5935832  57.0519352  57.1831703   6.8524927  56.7791271
  58.6458492   7.1813989  56.5708590  77.6410675  19.4517004  42.1673727
  76.9454622  20.0468993  41.8879032  78.4455013  19.8513544  41.8366241
  45.0442437  31.4668660   3.6220934  44.2505638  31.9826733   3.4798004
  44.8082904  30.8506154   4.3154861  71.1622047  18.6713600  48.6039877
  70.4220057  19.2674398  48.7181091  71.5311623  18.9078379  47.7529955
  76.9324875   9.7671223  44.6326876  77.0635986  10.3810501  43.9100981
  77.5062275  10.0893414  45.3278351  66.3095347  33.3877130  42.3001148
  66.9902150  33.9035516  41.8678810  66.3053767  32.5542940  41.8293335
  24.0620160   9.5271552  56.2121058  24.5978022   9.2486542  55.4694080
  23.3702779   8.8679886  56.2689495  60.3819148  69.5559131  51.7631580
  60.5160490  68.7320457  52.2316505  59.8454873  70.0833856  52.3549797
   3.5948086  37.1039271  64.0741253   2.8349251  37.0541120  64.6540594
   3.3055913  37.6554680  63.3472204  52.7321100  26.4448690  62.8848982
  53.1288242  27.0703220  63.4912491  53.1995296  26.5808415  62.0607233
  74.1669241  46.4499043  23.3233120  73.3860747  47.0015667  23.2766582
  73.8453356  45.6059514  23.6404182  59.3588200  51.6329575  47.8064156
  60.2622059  51.6094494  47.4908638  59.4282928  51.9452238  48.7085772
  68.6099625  26.9024706  44.7088289  68.4810352  27.3232841  43.8588190
  69.3573475  26.3192677  44.5764589  31.1951034  13.9121862  21.9058182
  31.3754289  13.8378854  22.8429367  30.4155175  14.4652696  21.8550350
  44.3744961  68.9075123   3.5940935  43.7116710  69.4728337   3.1974699
  44.0404979  68.0198108   3.4650184  69.1729990  44.8000316  11.1555960
  69.5879237  45.6101762  11.4517929  69.6805970  44.1043179  11.5733911
  31.6881657  70.1246463  15.3807546  31.8339825  70.9679662  15.8094551
  31.6756917  70.3301464  14.4459583   5.6232667   6.8131256  51.1270666
   6.4724004   7.2073752  51.3264942   5.1856202   6.7449832  51.9756269
  48.4492032  12.6123185   1.1288931  47.6914804  12.6736827   0.5472376
  49.0884225  13.2183595   0.7542755  51.8184900  21.9601369  54.6309137
  51.6442442  21.9423747  55.5719519  51.1338043  22.5240612  54.2711544
  16.6487027  62.7057301  22.4128105  16.5964747  61.9274221  22.9675533
  16.2307406  62.4436770  21.5925171  60.5203819  37.3145056  60.9637260
  60.3413963  36.4179277  60.6802750  60.7889414  37.7690268  60.1652813
  67.1819162  46.9498682  52.8080797  67.6919889  46.1598063  52.6295710
  67.5867367  47.3246670  53.5903072  14.9022071  57.0844693   9.9410440
  15.7903163  57.2325845  10.2659323  14.9932496  57.0808072   8.9881899
  19.0531842  10.3658767  29.2347576  19.3838708  11.1817784  29.6104862
  19.1680972   9.7181172  29.9300529  24.6205998  71.3338123  10.8022072
  24.9786473  71.6249643  11.6408159  24.1517068  70.5255161  11.0096456
  39.0128327  44.8998706  11.4898445  38.8978482  44.8586868  12.4392177
  39.3044091  45.7961010  11.3225509  10.8392367  42.6176453  46.6715431
  11.5527853  43.0377150  47.1517658  10.0847182  42.6845312  47.2567463
  71.2837029  58.9290667  33.6203384  72.2064829  59.1728401  33.6930680
  70.8139849  59.7629976  33.6326575  42.2265546  12.4334188   7.0342352
  42.7524345  11.7827220   7.4992897  41.4136665  11.9756599   6.8199779
   6.3139678  44.6270989  14.4848682   5.9898997  45.4086535  14.9325086
   6.7281438  44.9612109  13.6892177   8.6564860   5.2908611  49.5072317
   7.9350218   4.8784855  49.9822712   8.8125834   4.7131363  48.7601709
  52.3064201   6.3944717   8.8025810  52.0377652   5.6058259   8.3313085
  52.6548068   6.9722409   8.1235792  22.5564973   1.0077686  30.7090046
  22.0561998   1.5007467  30.0586941  23.4606569   1.2963553  30.5847313
  59.8342960  15.3915162   0.5143549  59.3929641  16.0452886  -0.0279043
  60.7347266  15.3795095   0.1898386  22.4207879  68.9429627   7.6498796
  21.6086245  68.8721190   7.1482755  22.4540187  69.8595677   7.9236700
  55.9515381  70.8829165  55.9213018  55.2355814  70.9086466  56.5561056
  56.4958906  71.6382647  56.1434746  44.8464490  11.4681896  54.8164606
  45.5625535  11.9311890  55.2512646  44.4804192  10.9014687  55.4954910
  12.4731478  25.3407025  40.5243158  12.5475439  26.2949085  40.5380154
  12.6406893  25.1004577  39.6130276  30.6274955  42.7752347   2.5974705
  29.9892823  42.4652953   1.9549324  30.4264466  42.2811933   3.3922865
  40.6187026  11.2202830  13.7428142  39.8780887  10.7228799  13.3959486
  40.9537904  10.6821437  14.4599964  56.5653419  58.7356567  52.9225588
  57.5197697  58.7111330  52.8540277  56.3146973  59.5497179  52.4858475
   5.5739626  33.5630250  52.4587250   6.0126814  34.0358186  51.7514563
   4.9504694  32.9896975  52.0128727  28.5735290  14.8520656  33.9104225
  28.6609571  15.6885858  34.3673946  29.3800037  14.7719474  33.4010937
  26.2810548  68.4495816  44.6521187  26.0751089  68.9569268  45.4372454
  25.8052953  68.8922093  43.9492941  54.9472778   6.1028762   1.2423517
  55.4523532   5.2942891   1.3279011  54.8891608   6.2502236   0.2983476
  78.1121016  19.5142233  44.8785496  78.0319595  19.1840255  43.9836884
  77.2213316  19.7669017  45.1212835  17.1305753  49.0379308  27.5662853
  17.6180650  48.2478462  27.3331501  17.2124577  49.0977620  28.5181000
  63.6336152  68.1698237  32.4960853  63.6428801  69.0543996  32.1304752
  63.9670412  67.6155363  31.7905189   0.9918977  46.1388104   4.1861154
   0.2337886  45.5573462   4.1278126   0.6343938  47.0141469   4.0370848
   6.3555575  69.6711217  17.1058132   6.2930203  69.7534762  16.1542179
   5.5439807  69.2331015  17.3621609  54.5445681  66.7002344  46.3105011
  53.9241600  67.4137068  46.1612320  55.2882957  67.1167278  46.7459679
  49.7629373   4.0905233  15.2299358  49.8238914   4.7337575  15.9361698
  49.5638768   4.6089597  14.4503023  16.9702674  53.4042667   9.6587326
  16.3881732  52.9644464  10.2783777  17.6128007  52.7366816   9.4184925
  18.9961482  72.3224507  23.1745388  19.0025759  71.9358789  24.0501835
  19.8362733  72.0667802  22.7936794  34.0858817  23.0755639  62.3348188
  34.4300056  22.2732234  61.9423151  33.7718678  22.8046012  63.1974936
  73.7186384   3.4015396  19.7266114  74.0196896   3.6983684  18.8678372
  74.4743681   3.5245925  20.3010345  60.8903186  20.6880326  36.6234447
  60.6057326  19.9344392  36.1064007  61.1476390  21.3413901  35.9729530
   7.3127747  30.5175285  20.3380729   8.1304408  30.2436112  19.9225952
   7.3985005  30.2311365  21.2473919  31.9270802  72.6655398  32.4837353
  31.3232899  71.9290911  32.5801994  32.6071549  72.5049625  33.1379082
   8.5030398  48.8479996  50.3791142   8.4214911  48.4115458  49.5311260
   7.9586539  48.3274078  50.9697676  61.7060662  56.2059389  12.2771074
  62.4268056  56.4898752  12.8393747  62.1259118  55.6785904  11.5974953
  73.6427323  17.8471623  10.2635576  74.0114752  16.9682585  10.3518011
  74.3629185  18.4334575  10.4955484  77.2877327  60.4572474  22.6774170
  76.9050709  60.7811461  23.4928276  78.1784312  60.2005945  22.9161979
  12.9333743  67.0991591  46.2648439  12.4860843  66.6336212  45.5581331
  12.4751767  67.9372546  46.3271618  71.5571944  10.8790631  10.4134514
  70.7771175  11.3354154  10.0980903  71.4924113  10.0030799  10.0330784
  10.9426626  49.9783373  47.3364830  10.4488215  49.1818905  47.1414566
  11.4408716  49.7641325  48.1252384  75.1969194  35.2300858  48.3568335
  75.1824141  34.3617105  48.7592554  75.3611088  35.8289361  49.0852880
  12.4292327  72.9518162   8.5892298  13.2575179  73.0475961   8.1191208
  11.8743516  72.4453555   7.9960729  69.3576336  25.2137733  49.3934011
  68.9993811  25.4170823  50.2574348  70.0307655  25.8791542  49.2505980
  66.4796829  41.6071653  35.8274150  67.3107862  41.7993212  36.2616634
  66.4394712  40.6512165  35.7994437  10.5858836  41.5921497  54.5056820
  11.4716276  41.2331247  54.5586109  10.6405482  42.4326134  54.9605036
  20.4405022  50.4148720   6.9313576  21.2826873  50.8651029   6.9965221
  20.3719807  50.1673029   6.0092689  15.0884359  13.5507388  13.1439401
  15.9404390  13.9032550  12.8869345  15.2485339  13.1288905  13.9881231
  27.2775523   0.8288784  19.4269707  26.5001886   1.1789913  19.8621322
  27.1492450  -0.1196556  19.4340755  14.4429144  15.6338620  41.3947630
  14.4708666  14.7264636  41.6982079  13.6044630  15.9674597  41.7140388
  70.3886271  33.2919097  34.7539091  71.1225224  33.5941768  35.2889419
  69.6776009  33.8995790  34.9574137  29.7780180  35.3298569  63.5129452
  28.9780664  35.5364203  63.0295849  29.4942570  35.2525973  64.4238472
  21.7930190   4.2995687   4.2688562  20.9600131   3.8809724   4.4859077
  22.3281066   4.1900392   5.0549318  28.9084308  36.5475841  21.7708732
  29.0260284  36.2240453  20.8777096  29.4124572  35.9412236  22.3135616
  63.3396474  56.9608222  27.7992203  62.5877348  56.4028858  27.6003219
  62.9749958  57.6785790  28.3169891   8.5264540  57.5726043   7.5513985
   8.8999034  56.9028519   8.1242849   9.1801167  58.2718049   7.5425388
  43.9799134  19.0572639  20.6343414  43.5292833  18.7343402  19.8540356
  44.7254102  19.5513005  20.2931740  22.2764429  38.6601424  63.5135889
  22.1248469  38.9454770  64.4146109  21.7237315  37.8853321  63.4115219
  44.7134495  15.5479097  56.9410324  44.6352053  14.6945190  57.3674536
  44.0399122  16.0861003  57.3568773  64.7161293  48.5265112  27.4801683
  64.5988417  48.7413025  26.5547824  64.4844294  49.3311024  27.9440355
   6.2187148  71.3058578   9.3704655   6.9270945  71.4124714  10.0053407
   6.6293574  71.4756499   8.5226585  21.5871494  21.1604877  27.8585007
  20.8133475  20.8565898  27.3840381  21.9976251  21.7919822  27.2677662
  16.0718442  72.3468267  11.8785955  15.3515816  72.9658280  11.7590334
  16.3121081  72.4341951  12.8010227  75.8754873  52.2913551  55.4253387
  75.4845285  53.0120134  55.9193325  75.8103895  51.5367270  56.0106039
  62.0602083  71.3298035  44.8671007  61.9660568  70.7994413  45.6583548
  61.2447405  71.1890984  44.3860102  54.2969370  46.0459900  63.5182858
  54.6118736  45.4858589  64.2277241  53.3547926  46.1188459  63.6708927
  60.0267641  62.6039897  32.4579861  60.6832138  61.9597136  32.1930076
  59.5153538  62.1604358  33.1347038  46.9954872  58.8797808  52.6489496
  46.8818808  59.2355108  53.5303020  46.9592571  59.6451426  52.0752430
  49.2734449   7.8391929  45.1565506  49.6484105   8.6090226  44.7287800
  48.3316247   7.9150338  45.0034191  16.1107970  42.0506273  27.3237850
  17.0399762  41.9320460  27.1268322  15.7905818  42.6271598  26.6300251
  56.4057493  45.4207850  61.6746759  56.6454411  44.6123743  62.1277237
  55.6945276  45.7877684  62.1997643  46.8792439  59.1261244  48.4749985
  46.1453533  58.8214731  49.0086889  47.5568724  59.3584633  49.1098738
  10.8775394  15.3446431  23.7604000  10.2029388  15.9971376  23.5722496
  11.4371841  15.7609124  24.4159462  17.8088824  32.3286004  33.0384971
  17.8362291  32.9132981  32.2811176  16.8769042  32.2363753  33.2363464
  33.2048194   3.9365096  20.2010300  32.4258582   4.1369100  20.7199623
  33.9249198   4.3429370  20.6832172  22.8381841  23.2714887  28.9645435
  22.1508090  23.8387294  28.6152794  22.5486056  22.3846097  28.7504818
  72.7862215  39.7011137  36.5644932  72.2363138  39.0595841  37.0142412
  73.6669922  39.5411086  36.9034243  65.3776169  17.8700256  49.8896074
  64.4741201  17.5651717  49.8060179  65.4518604  18.5776031  49.2492533
   1.8951926  50.2681112  41.1317778   1.5458426  49.9881840  41.9778395
   1.1434349  50.6460905  40.6754541  19.6816493  65.7209669   2.6890709
  20.0921775  65.0373565   2.1595623  18.7434436  65.5422507   2.6253702
  75.2593470  28.8485193  61.4924479  75.9297037  28.5109496  62.0865011
  74.7969103  28.0687618  61.1852598  50.8234660  19.5236535  25.0147297
  50.6171338  18.7209363  25.4935886  51.7062251  19.7547813  25.3037788
  23.5078447   3.4494300  27.7380993  23.7628333   3.8000197  26.8846943
  24.3244998   3.1246085  28.1173088  69.9551010  25.9356356  57.5102568
  70.0254631  25.0842953  57.9421139  70.8111954  26.0693574  57.1035051
  19.7512961  61.8262564  17.0572330  19.3756200  61.6629754  17.9223587
  20.4952718  61.2265121  17.0021011  33.6664407   9.8726840  32.0724632
  34.4550960  10.3065152  31.7468311  33.1093375  10.5877633  32.3799278
  10.5813552   0.3909573  58.3462095  10.4558516  -0.4144779  58.8479614
  10.1443196   0.2235397  57.5112247  36.4543407  11.1498399  32.3727180
  36.2057368  10.2359147  32.2342827  35.9259193  11.4313026  33.1195690
  32.5812499  28.9105411   3.1377079  33.1596868  28.3539338   3.6590769
  33.0240695  28.9913459   2.2929479  44.9277036   1.0275431  15.6388189
  45.5437152   0.4969854  15.1335766  44.3070285   1.3576479  14.9891855
  46.3282490  61.7759895  42.7822065  46.7422533  61.3424253  42.0359802
  46.9957638  62.3789692  43.1094313  23.6149423  11.1854215  23.8688900
  24.2859618  10.5038257  23.9061500  23.8366191  11.7792268  24.5861675
  62.3431198  53.9381729   2.8022434  63.0623309  53.4374069   3.1872083
  62.6298586  54.1197740   1.9072391  69.6383778  57.4726664  35.5412723
  70.3593031  58.0446230  35.2779056  69.9222866  57.0978938  36.3750412
  22.1428649  19.7461553   9.4325926  21.2329070  19.5698924   9.6716501
  22.6528279  19.1346593   9.9638559  35.3003478   7.8786242  29.0228009
  34.7799516   7.1487099  28.6871743  35.2357507   7.8010881  29.9746680
  55.5715275  35.9807777  55.4702663  54.8127174  35.4004931  55.5311298
  55.9456396  35.7962894  54.6087313   2.6882697  38.2863471  15.3453399
   3.4789134  38.2468683  15.8834459   2.1407128  37.5721460  15.6714203
  21.8847609  70.5228792  16.7929508  21.2973691  69.7952663  16.5885403
  22.7087212  70.2935396  16.3631489  62.3337928  52.1273242  26.4030601
  62.7216879  51.7553030  27.1951248  62.9043261  52.8627096  26.1796047
  51.4510997  68.0409983  64.0071344  51.8574508  67.9450211  63.1457996
  50.6415161  68.5227624  63.8376808  20.9059668  58.1527434  25.1753666
  20.7979871  57.3745190  24.6286156  21.4906264  57.8717052  25.8792259
  36.9064546  20.9451437  51.8664217  37.4215508  21.3178968  51.1509037
  36.0941863  21.4515591  51.8659067  76.8497229  17.5710058  39.4801664
  76.3132095  18.2511544  39.8873353  76.6043282  16.7666566  39.9373746
  45.8546257  34.5840192  63.0526114  45.0385571  34.1460800  63.2944155
  46.3861847  34.5562625  63.8481665  63.5923147  29.4777656  61.0774183
  63.6828089  29.2305589  60.1571274  63.0445433  30.2625847  61.0618496
  16.5501086   5.6724973  32.7105762  16.3238208   4.8769326  32.2287990
  16.0284154   6.3598914  32.2963859  64.6007299  36.5145707  61.9551039
  64.2711735  37.3308754  62.3309612  63.8465595  35.9251809  61.9639254
  64.4310371  73.2443796  15.2018692  65.1548997  73.8417827  15.3899195
  64.7043697  72.7781044  14.4118645  75.5246878  37.0581627  61.0243225
  74.6895599  37.2321439  61.4585209  75.7851839  36.1941767  61.3435411
  70.8828513  72.0339953   5.7194568  70.8018938  71.6001760   4.8700620
  71.4850060  71.4792262   6.2153150  48.8168622  11.6514191  14.5729315
  48.1902219  11.4222225  13.8866198  48.9460755  10.8379921  15.0606525
   1.1659226  19.6968198  40.1690292   1.8218931  19.6870792  39.4720101
   0.7730994  18.8244069  40.1404476  61.9336510  25.9994531  59.5823002
  62.8766537  25.8726192  59.6866655  61.5387630  25.3471446  60.1609039
  59.2176485  29.9195671  50.5894613  60.0762081  29.6635556  50.2524710
  58.5930920  29.4737935  50.0172281  22.4464719  18.3842988   3.3602287
  22.8834884  19.1666646   3.6966087  22.9032676  17.6555104   3.7802698
  61.6415598  15.8085961  15.3432133  61.3748731  16.7146106  15.4989340
  61.2208994  15.3111930  16.0445453  48.7354088  26.2863183  56.5989780
  47.8502035  26.5137029  56.3144779  48.6344814  26.0332608  57.5165892
  68.0002499  21.9704747  50.5249453  68.0495262  21.0373974  50.7327127
  67.1297503  22.0853353  50.1437998  25.1771022  70.7791148   2.9645683
  25.2138329  71.7034613   2.7186634  25.9171916  70.6600390   3.5598184
   2.8986216  72.1256553  18.5501053   3.0294514  71.3929306  17.9482414
   2.2347069  71.8145524  19.1654541   2.8101397  59.7662984   2.3923065
   2.4322558  59.4338785   3.2065155   2.9081536  58.9909254   1.8396570
  72.6238982  63.8998972  27.3777820  72.8546730  64.7267185  27.8012707
  72.9122034  63.2265388  27.9939796  13.8339750  16.0745330  14.7771742
  14.3814962  15.4878850  14.2553570  13.9126985  15.7431216  15.6717159
  68.0566120  31.8615413  54.8077345  67.1861458  31.7332411  54.4308281
  68.6518002  31.4488268  54.1819143  67.6736991  20.9566541  10.6504061
  67.3747794  20.9071870  11.5583898  67.0157401  21.4951034  10.2106382
  52.3279285  10.6769061  58.1774759  52.2864199  11.1166823  57.3282957
  52.2380638   9.7467619  57.9701424  70.5879593  26.5396094  19.3879354
  70.8046627  26.3883114  20.3079247  70.3335953  25.6782126  19.0569878
  58.7732315  47.0681763  61.0611677  58.0553484  46.5872717  61.4730024
  58.5961246  47.9859495  61.2674618  25.0031615  68.9108835  27.5853302
  24.2554475  68.4056793  27.2660877  24.6291972  69.7517286  27.8487064
  21.3285956  37.0157766  17.6305997  20.4861483  36.6359854  17.3810649
  21.4315256  37.7712965  17.0519590  12.9280123  61.3652325  45.7494497
  12.0450529  61.6608810  45.5276251  13.3509383  61.2180996  44.9034452
   8.4061178  43.0547333  47.9715729   7.8493914  43.5060310  48.6061001
   7.8259596  42.4180698  47.5540638   1.3572535  41.6830969  56.0699558
   1.1787113  42.6069403  55.8942842   0.8129296  41.2100554  55.4405308
  71.0928965  27.3201990  48.9654970  70.4083347  27.6946735  48.4110832
  71.6484499  28.0648208  49.1959953  54.3835990  13.0196662   1.5008022
  54.6870200  13.4644885   2.2921945  53.4317844  13.1192107   1.5200855
  30.2373982  73.4414779  25.2941467  30.5861951  74.0015875  25.9875824
  29.3667603  73.7964855  25.1147129  44.9318044   8.4637685  11.6970159
  45.6980817   7.8964467  11.6122104  44.5139091   8.4320779  10.8364393
   4.8841573   3.9849181  16.1840107   5.5028059   4.2473884  16.8656303
   4.4993688   3.1714149  16.5101578   0.1126195  63.5187231  18.7462284
  -0.1790571  62.7255188  19.1956474   0.4326487  64.0870296  19.4468262
   6.7508063  37.8246355  41.0617638   6.7960581  37.1408463  41.7300606
   6.8566355  38.6422491  41.5481138   5.8211518  62.3448287  32.5283577
   5.6009341  61.4660584  32.2193386   6.2840462  62.1995507  33.3535053
  39.5118046  27.9179406  35.2942848  39.4534254  28.8309789  35.0128865
  40.3153801  27.5930548  34.8881459  22.3528211   5.4268355  39.7959377
  23.1690900   5.9087939  39.9288036  22.5821130   4.5143123  39.9718906
   1.9329199  48.2185555  54.6644163   2.4950632  48.8550711  55.1060867
   2.0345434  48.4148645  53.7330914  23.8820410  67.7860652   5.7204964
  23.2999564  67.0413648   5.8716060  23.5086919  68.4926473   6.2473585
   1.1510834  11.5777671  40.8327913   1.8919977  12.1609354  40.9976864
   1.4702257  10.7095623  41.0789633  39.3093876  54.9590598   2.8144457
  38.7919382  54.1737567   2.6361849  38.6696760  55.6710707   2.8208067
  20.2398364   8.7988849  11.4397957  20.7676570   8.5374303  10.6852915
  20.3165261   9.7526212  11.4668085  29.3618838  11.8471475  11.9955160
  28.6144321  12.1445460  12.5142671  29.0742128  11.9378419  11.0870792
  70.9103394  67.6646328  56.9485378  70.1571417  68.0594730  56.5091896
  71.5087461  67.4345922  56.2377453  53.1562853  66.9618130  54.0888596
  52.7026367  67.3967409  53.3668709  54.0150356  67.3834324  54.1208029
  41.0491753  69.0092073   3.7289192  41.4379597  69.0331827   2.8545572
  40.7988549  68.0939232   3.8547184   1.2280783  26.4204407  56.3798761
   0.3657040  26.6750813  56.7080545   1.3976702  25.5705857  56.7863464
  15.4158339  53.6776733  51.1895418  15.8219466  53.5816193  52.0509863
  14.6232638  54.1885662  51.3540125  38.4454362   4.7649760  10.0252439
  38.7420623   5.5465932   9.5590689  38.9397256   4.7729440  10.8449079
  38.4683633  17.2507548  34.4211650  38.6093020  17.7341866  35.2352047
  37.7003813  17.6642799  34.0269160  24.0258090   7.9957290  11.2508108
  23.4312837   8.4036775  11.8803741  24.8988216   8.2644410  11.5369512
  65.9830443  68.9725696  18.7560226  65.3044573  68.4436236  18.3365394
  66.8062750  68.5766064  18.4701301  46.4361477  30.0793839  63.9050961
  47.1464109  29.5833635  63.4980011  45.6546402  29.8254132  63.4142017
  16.4926307  17.1471353   8.1962253  16.8009298  17.9994292   7.8883602
  17.1920745  16.5388722   7.9574301  46.3949394  45.5753374  59.7139692
  46.4166355  44.6344233  59.8884487  47.1221733  45.9305334  60.2250433
  39.4731045  29.8313640   3.2125665  39.5779801  29.1731577   3.8995840
  39.8399735  29.4208448   2.4295523  74.6524636  70.1271306  29.8548366
  73.9948288  70.8174430  29.7698929  74.1872326  69.4034396  30.2744343
  58.4059048  67.6819754  36.7336178  58.7367868  68.5210800  36.4132285
  58.8657331  67.5435972  37.5616527  31.8472783  47.3497720   4.1559269
  31.3695924  47.9417081   4.7370197  31.8103282  46.5005727   4.5960666
  52.5531960  19.9743542  61.0123205  51.7117310  19.9900993  61.4683104
  52.9998875  20.7682022  61.3064241  50.7721250  29.2439647   8.4881975
  51.6479699  29.4183726   8.1436493  50.2088229  29.8760076   8.0416061
  54.7749138  47.6512432  54.1450977  55.1413822  47.2487783  54.9324703
  53.9708281  48.0752611  54.4449043  66.4348125  20.4580879  37.4308825
  66.9674969  19.8437428  36.9258451  65.8937788  20.9000707  36.7765403
  32.0528857   5.6240459  29.8572304  32.5940864   6.0533090  29.1946079
  31.5902774   6.3415284  30.2901890  21.5054528  30.6062503   9.5271255
  22.1194141  29.9724574   9.1561939  20.8827369  30.0745959  10.0229074
  75.9358566  18.0882115   7.5810053  75.5825488  17.1988626   7.6026823
  75.1985042  18.6321635   7.3041155  52.7871180  44.2931795  57.6781034
  53.6621380  44.0823126  57.3523569  52.8988028  44.3816519  58.6246395
  32.9441993  17.9011197   8.1880142  32.7358071  18.8220735   8.0310203
  33.7933986  17.9195685   8.6293270  66.6345596  58.5300350  52.3236132
  67.4200726  58.0209875  52.1234131  66.3531876  58.2092428  53.1804419
  67.2175360  24.6136999  55.1104546  66.4294529  24.1740990  55.4296780
  67.9396486  24.0726757  55.4299450  25.7553101  54.2516206   3.8366272
  25.4391433  54.2919527   4.7392036  25.9973241  55.1537047   3.6270859
  10.1192507  39.5052409  63.7549543   9.4523653  38.8645315  64.0018940
  10.9096369  38.9848709  63.6109114  38.0947304   3.3318266  53.4657812
  37.9094220   2.5341591  53.9613771  38.9991284   3.5493931  53.6915255
   9.9032339  39.0770745  58.4999895  10.1683363  38.2963562  58.0137539
   9.7128996  39.7272515  57.8237677  26.8368658  74.1504622  27.7854896
  27.4059901  73.3878183  27.8889513  26.4408335  74.0383005  26.9213057
  21.1769740  23.9156385  17.8202011  20.6980006  23.3589263  17.2062828
  21.1379306  24.7895475  17.4316170  31.5167110  10.7906385   5.1793815
  31.8460147   9.9256463   4.9352886  31.0086457  10.6374593   5.9760238
  45.3857518  59.2046462  12.0677521  46.1725522  58.8545571  12.4856283
  45.2851010  58.6829411  11.2715580  20.0428121  17.5577970  10.5688335
  20.5970351  17.1293826  11.2211611  19.2759006  16.9896884  10.4958488
  62.9129878  67.4827682  10.5395891  63.0362979  68.1563889   9.8708107
  62.2699729  66.8836390  10.1603653  15.7702288  35.1259327  63.5275888
  15.4483065  34.5030093  64.1791773  15.0234732  35.6993389  63.3549833
  40.2519624  14.3242211  11.6321995  41.0399692  13.9587874  12.0343639
  39.8475187  13.5831113  11.1811878  15.4016797  17.9129644  18.2515575
  14.6643798  18.2437415  17.7385284  15.0935809  17.9381604  19.1574718
  51.4138651  57.8132772  52.2389555  52.1465206  57.4611998  52.7444124
  51.2730980  57.1717978  51.5425920  59.3796444  20.5994773  60.9587908
  58.5160017  20.5456018  60.5495882  59.9590874  20.1312566  60.3577518
  62.4460173  63.2894659  60.8640957  62.4628115  64.1735268  61.2306881
  62.9413986  62.7611876  61.4899969   9.7813559  68.9175902  11.3180019
   9.5483256  69.7624718  10.9331562   9.1445351  68.3038460  10.9519293
   9.7208691  21.4486202  51.0262108  10.3281022  22.1140656  51.3497639
   9.0527106  21.3821110  51.7083931  62.6097146  31.3070187  48.5892487
  62.0710579  30.5644878  48.8626337  63.4525672  31.1626991  49.0193701
  44.2186420  23.9697023   9.0787508  43.8174598  24.7756238   8.7535192
  44.7909991  24.2572064   9.7900726  17.6077796  50.6320523   1.5254309
  17.5177956  51.0588275   0.6733753  17.0590068  49.8504387   1.4609577
  51.9278638  26.9447656   3.6352875  52.1435754  26.1177774   3.2042505
  52.0256774  27.6050754   2.9492475  15.2626261  68.1207418  47.6807356
  15.4676756  67.3226070  48.1677294  14.5716032  67.8591585  47.0722151
  57.7115536  36.6714764  61.3295603  57.4483013  37.2786307  60.6379700
  58.6248541  36.8946266  61.5093136  28.6475961  15.7098479  14.7017338
  28.2687919  16.5562482  14.9391033  29.5640962  15.7738204  14.9703695
   6.2611899  58.7784004  33.5530591   6.0159144  58.2532072  34.3147945
   6.5668902  59.6071005  33.9218855  72.2648573  58.3316994  44.3865824
  71.9248390  59.1016817  43.9307928  72.1604300  58.5377121  45.3154993
  78.7160063  63.6307621  63.9717674  78.0197859  64.2765522  64.0920591
  78.4249687  63.1001234  63.2301807  74.2725722  61.2100254  14.0456154
  74.4514862  62.0891772  14.3792488  74.3831889  61.2863933  13.0978967
  60.3024006  27.0683980  47.7021694  59.6542406  26.7628932  47.0675087
  60.3355980  26.3763523  48.3626270  35.6941192  17.9204745   9.2651750
  35.9141795  18.1780429  10.1604225  36.5355079  17.6995034   8.8658430
  18.5272376  10.5750413   3.6778261  19.3059747  10.5864425   3.1213428
  18.8480584  10.2883906   4.5328905  65.1975346  37.1085310  52.3330593
  66.0801792  37.0179510  52.6921797  64.9683046  38.0246758  52.4891424
  52.5275946  46.1597824  51.9140053  52.3752213  46.3703203  52.8352451
  51.8682051  45.4973793  51.7074633   4.5604516  73.8275848   0.5022575
   5.4985333  73.9406954   0.3491356   4.5049000  73.0998908   1.1216165
  13.7358753  27.4105878   5.6683924  13.3680050  27.2724481   4.7955705
  14.5913474  26.9822307   5.6382992  73.8569975  42.1906805  40.6720448
  73.5479641  43.0614376  40.4220104  73.5329008  42.0686054  41.5643978
  56.4353228  34.1743183  62.9762936  56.8822289  35.0147867  62.8756905
  55.6017447  34.2901969  62.5202799  48.0339687  18.8399882  13.5271360
  47.4204938  18.7631412  14.2578699  47.8638236  18.0667157  12.9892351
  65.4107475  39.8474026  43.6736631  64.8618221  39.7285604  42.8985596
  65.5736542  38.9589024  43.9903021  57.5014400  41.7249632  51.9131088
  57.4823713  41.7959929  50.9587383  56.6752338  42.1147966  52.1988487
   0.1094326  50.3944016  28.9540839   0.4488787  51.0096550  29.6040630
  -0.0157657  49.5786333  29.4389343  75.0965277  71.5825425   4.6925833
  75.8442799  71.9045077   5.1960089  75.4632536  70.9027253   4.1272594
  52.3906517  23.3788800  49.6484756  51.6490793  23.9119482  49.9350691
  53.1462955  23.7592268  50.0963259  14.8457623  73.2244192  35.1746513
  15.4135943  73.1586062  34.4068863  13.9968968  73.4920941  34.8224975
  31.0915200   1.6194697  17.9782440  30.1354806   1.6605539  17.9551460
  31.2909620   0.6832953  17.9836609  15.8515549  15.5194458  38.8062716
  16.7669631  15.6810364  39.0346289  15.3846741  15.5665382  39.6405578
  44.5090120   0.6333895  12.3384048  44.7300117   0.6825109  11.4083626
  43.5520045   0.6306024  12.3573543   3.9508280  27.1910238  50.5728292
   4.1468367  26.8836522  51.4578915   3.0022654  27.3192310  50.5683994
  25.9458606   9.5297761   1.1476566  26.1487071   9.5156188   2.0830108
  25.5305116   8.6838765   0.9798195  69.3695927  65.4693699  57.7609968
  69.3392181  64.7865629  57.0908642  70.0879860  66.0403585  57.4887562
  71.4263836  72.5470434  25.5736973  72.1618430  71.9963656  25.8421852
  71.7377488  73.4427558  25.7040359  21.9738007   4.1104778  36.7020202
  21.3935090   4.6622643  37.2264528  22.5773860   3.7257418  37.3375463
  40.0188796  16.6739078   9.6315529  40.2668922  15.7692952   9.4407703
  40.7073085  16.9930263  10.2150442  51.8425941  55.0890636  48.8196039
  51.1223030  55.7082176  48.9381790  52.3447752  55.4435205  48.0858421
  53.5906649  64.1607141  47.7472734  54.0467501  64.9759197  47.5383425
  53.3271599  63.8089705  46.8969345  40.6549661   0.0611920   7.3756887
  41.0475890   0.2570243   8.2264139  39.9601762   0.7121606   7.2770073
  46.3268948  57.5916290  46.3299561  46.2560940  58.1831169  45.5807209
  46.6151905  58.1515837  47.0507669   8.1672327  22.7526994  15.8931066
   7.9733364  23.0403276  16.7852451   7.7455370  21.8964667  15.8205272
  22.0938604  26.7164559  18.1895687  22.2963969  26.7834897  17.2564461
  22.7509372  27.2655482  18.6173298  49.6462218  38.5167928  13.6362459
  49.5266502  37.5707431  13.7194540  48.8176315  38.8902707  13.9365579
  66.4565086  53.0506372  44.1775560  65.6919003  52.5100708  44.3760395
  67.0138502  52.9706478  44.9516392  54.5079391  14.1374345  51.5691234
  54.7568290  13.2263656  51.7248203  55.0388210  14.6397348  52.1872570
  66.0500447  52.0039557  41.7026665  66.2841002  52.2722302  42.5911857
  66.8887774  51.9194375  41.2492134  72.7774906  59.6618843  55.5199671
  72.7292538  59.6655893  54.5639896  73.6433363  60.0190020  55.7174826
  57.6103370   4.3324180  15.8707477  56.8759601   4.7927804  16.2769462
  57.5310485   4.5311542  14.9377682  12.5879527  69.9267374  16.8009331
  12.5876046  69.4530092  15.9691860  13.3933593  70.4436384  16.7818310
  59.4952171  23.9756007   3.7650396  60.0295989  23.1842656   3.6983253
  58.7447040  23.7135501   4.2982246  33.8603990  18.6076684  12.3711731
  33.0068223  19.0138145  12.5217869  34.1417854  18.3133216  13.2374336
   9.6273423   6.3089737  63.2061434  10.4410935   6.7647728  62.9909849
   9.5403243   6.4088425  64.1541338  22.2805564  16.3287730  36.6097881
  23.1755750  15.9997602  36.5266086  21.8241613  15.6562228  37.1153690
  15.4430629  14.1051563  28.0659556  14.7808934  13.4303650  28.2156777
  15.9760857  14.0982613  28.8609862  10.2268633  72.2631264  61.1378288
  11.0792193  71.8304777  61.0876274   9.7866663  71.8402481  61.8751431
   4.8954710  47.6032114  47.7250528   4.8666128  47.0290184  46.9597387
   5.1397070  48.4592247  47.3731661  19.6884553   5.2551980  19.7158577
  20.5403344   5.5651088  19.4084598  19.6655290   4.3312879  19.4666530
  20.4223506  37.8405423   7.0092775  20.1837985  38.2352872   7.8480293
  20.0594108  36.9557138   7.0491459  66.6619746  55.2461480  26.3609936
  66.1922518  56.0768245  26.2863495  67.5647370  55.4594193  26.1248447
  17.6559226   0.0848003  11.5096523  17.3801057   0.8342381  12.0373823
  16.8750255  -0.4653673  11.4483930  38.2234956   9.4588074  46.8067408
  38.2739831   8.7622913  46.1521006  37.8536511  10.2048477  46.3346624
  33.6378352  13.1206555   3.8890697  34.2611854  12.9367490   4.5918133
  34.0611665  12.7841611   3.0992653  67.6852226  47.1176100  44.9265814
  68.2597494  46.5508032  44.4119120  67.1092463  46.5131903  45.3947210
  58.4846640  60.1006746  39.0301013  57.9396963  59.5876789  39.6268225
  58.9330530  59.4470549  38.4934855  45.3176753  32.7069039   6.5392639
  44.6602409  32.1816440   6.0830738  45.5910699  32.1609540   7.2764351
  17.8136079  36.2293382  18.9838840  17.9471986  35.4323096  19.4968464
  17.1053664  36.0088916  18.3788826  48.7484694  47.2336483  59.7254276
  49.5690727  46.7411613  59.7426891  48.7872934  47.7910900  60.5025911
  45.5971305  16.0435767  20.5651142  46.2772720  16.5906377  20.1722290
  46.0651462  15.4942794  21.1939861  45.7949877  64.7009373  56.2180424
  45.5854082  64.1809320  56.9938707  45.0622654  65.3110266  56.1335230
  35.0236432  18.9181323  24.1438724  35.7999770  18.4631438  24.4702484
  34.7720830  19.5045753  24.8573448  30.0991838  33.0647178   5.0362541
  29.9243371  32.9545064   4.1016342  30.9821765  32.7156444   5.1575281
  53.8075542  58.2994223  62.2326469  54.3427944  59.0903997  62.2967291
  53.1351089  58.5169077  61.5870857  55.7384539  67.6158619  35.5647492
  55.4890013  68.5393476  35.5990505  56.5533257  67.5691462  36.0647893
   8.7574896  52.7536392  56.3873339   9.0728697  52.3042631  57.1714449
   9.3408903  52.4555588  55.6894636  16.3554987  54.9431229  48.4482241
  16.6634306  54.9638939  47.5421429  16.2920412  54.0114260  48.6583233
  32.2872846   8.1052585   5.4908850  33.1925695   7.9700036   5.2108957
  31.8412893   7.2899575   5.2615263  69.6539879  36.8584180  49.9014425
  69.0477705  37.3988867  49.3948603  69.5563459  35.9800696  49.5337486
  16.4293878  30.0812097   7.9317285  16.3365619  30.1523967   6.9817020
  17.3693435  29.9679370   8.0727197  69.4526625  28.1583214  62.3693705
  70.4017067  28.0628419  62.4495316  69.2912102  28.1625748  61.4258957
  19.5040163  73.0754151  51.8070364  19.2248090  73.2757386  50.9136486
  20.1395401  72.3667823  51.7061424  46.1054134  61.4936590  47.3158360
  46.3664627  60.5996895  47.5369692  45.2015162  61.5622091  47.6232386
  66.9789457  58.7249422  61.9323921  66.3386488  59.1667461  61.3746643
  66.8713379  57.7954435  61.7306948  43.9729325  15.1584954  18.5524132
  43.2890813  15.7206483  18.9165069  44.7429721  15.3379960  19.0919067
  69.1303253  72.5956249  62.2365522  68.3467722  72.8304863  62.7336645
  69.8422813  72.6444292  62.8744888  67.7819443   5.2583727  44.0186691
  67.9689885   5.6113943  44.8885059  67.9765702   5.9798273  43.4204531
  58.6189222  39.9196362  24.8753428  59.4201136  40.1602125  24.4101048
  58.7759018  40.1921654  25.7793975  31.0200183  13.6375709   5.7854702
  31.4562242  13.8789363   6.6026022  31.5202062  12.8896852   5.4588033
   6.7904505  57.1993923  54.2059088   7.1895727  57.9938889  54.5604515
   6.8637881  56.5584326  54.9130344  21.0514800  11.0252614   2.7479412
  21.5644138  11.7952676   2.9933407  21.6449182  10.5047555   2.2065164
  54.9311916  66.9904004  23.1691601  54.7132770  66.0586511  23.1934025
  55.4887406  67.1259938  23.9353134   6.7517790  66.5348721  45.4115534
   7.1732649  66.1711645  44.6328974   5.8181032  66.3732481  45.2760792
  53.2197571  49.0640068  62.7665997  53.3150673  48.6983490  63.6460543
  53.0116463  49.9868965  62.9121876   4.5509276  30.6026530  58.2840061
   3.9508757  30.0184202  58.7475157   4.3808970  30.4343820  57.3571777
   7.0843618  71.0591550  32.6926948   7.3843400  70.5753846  33.4622433
   6.3952129  71.6343732  33.0250122  58.0837886  30.9545655   8.4464504
  57.5737350  30.5100293   7.7693464  58.9779536  30.6373067   8.3197738
  48.1950760  46.0323763  63.9902258  48.2347870  45.3693628  63.3009720
  48.9485216  45.8422422  64.5491552   5.8598424  61.5063869   8.0199816
   5.6188584  61.0959230   7.1895124   5.7051182  60.8272968   8.6765863
  49.0447204  60.4445787  23.8540508  48.9644735  61.3553376  23.5706665
  48.1730287  60.2165933  24.1771938  25.8184926  33.2138057   3.4483291
  25.6454293  32.2731061   3.4853269  25.4949968  33.5499044   4.2841627
  75.1991749  69.6660852  39.6698666  75.4761028  70.2626133  40.3653526
  75.3087902  70.1706076  38.8638425  61.7734766  43.5012674  60.2246284
  62.5519896  43.9639378  60.5346060  61.1039782  43.6921453  60.8815670
  27.8657024  53.5023255  29.5492794  27.0825689  53.2665296  30.0466110
  27.5321881  53.7894578  28.6992504  54.2177153  65.0613928  35.6538701
  54.8500919  65.7761860  35.5803847  54.4445086  64.6244049  36.4747500
  29.8314667   4.2423376  37.4117279  29.0079022   3.9610418  37.0131636
  30.2785111   3.4269413  37.6386905  25.9816186  25.4643436   3.0761864
  26.0579841  24.6990151   3.6459829  26.8598191  25.8450313   3.0674555
  18.3239413  10.5199417  40.0604773  17.8977252   9.6963486  39.8232770
  17.7309800  11.1982712  39.7372198  76.9384623  36.8611002  26.8020248
  76.0678673  37.2551966  26.7473960  77.3402452  37.2729635  27.5669909
  70.4086781  38.9659429  27.2062469  70.4328012  39.0341258  28.1607103
  71.2671947  38.6151028  26.9694114  78.0465682  27.0228047   2.2787859
  78.8401230  27.1069379   2.8073932  77.3580964  27.4143596   2.8163053
  17.3040725  55.9803294  10.4511787  16.9872189  55.9139465  11.3519766
  17.1335269  55.1176547  10.0731088  69.6435881  56.7648554  38.2236767
  69.7878075  55.8198166  38.1753469  70.4296160  57.1055651  38.6506581
  50.3764009  50.5821228  48.1514597  49.9400663  50.1855850  48.9055204
  50.7522345  49.8415756  47.6754665  18.1857920   6.9580158  47.8761339
  17.9077292   6.4731010  48.6531639  18.3386279   7.8487095  48.1916237
  78.2305384  50.9391832  50.9563732  77.8448820  50.3662300  50.2936316
  78.0449581  51.8249321  50.6445408  26.6399432   8.0687508  35.0218320
  27.0812321   7.7355560  34.2404985  27.0388222   7.5865730  35.7461500
   4.8443843  16.7610821  54.5345736   4.4510127  16.7733559  53.6620235
   4.2477751  17.2804531  55.0735950   5.1053557  72.8193665  24.6442747
   5.3573546  72.1523333  24.0056849   4.2770895  73.1668711  24.3134499
   9.4220385  26.0234332  47.7393675  10.0834688  26.1888599  48.4112167
   9.1353831  25.1246953  47.9016352   3.8321051  67.1384525  41.4471817
   3.6835131  68.0316448  41.7575979   4.6216234  67.1999836  40.9095001
  74.0614939  51.4168787  48.8458920  74.9291277  51.0221243  48.9331579
  73.6319542  51.2384939  49.6824980  39.5547931  17.4355168  19.0860416
  38.7563722  17.7087016  18.6342384  39.2517011  16.8313737  19.7638084
  38.5068528  13.5097451   7.0909216  38.5850541  12.5613542   6.9876386
  38.9956395  13.7047095   7.8904917  60.9683911  11.0369359  24.2966987
  61.8634931  11.1923419  23.9952423  60.4431287  11.0348807  23.4964897
  52.0085708  57.8074466  12.4983980  51.1987106  57.5346194  12.0672085
  52.2637240  58.6098634  12.0431473  63.2938822  57.6219206  60.5906094
  63.3455880  57.9429655  59.6903376  64.0705450  57.9824548  61.0184426
  49.7286177  20.6909490  44.0010786  49.2756271  21.1171675  43.2735014
  49.0684938  20.1183701  44.3917561  74.2353121  68.3914672   6.2736084
  74.4436089  68.3091436   5.3429796  75.0673787  68.6241685   6.6856100
  53.1060980  61.9332794  40.0614834  52.2029502  62.1922198  39.8784351
  53.5636395  62.7582839  40.2235174  35.8789158  12.4037111  40.6079721
  36.1310434  13.2713461  40.9239960  35.1919270  12.5738454  39.9635077
  20.5880022   5.5208647  53.6610365  21.5015984   5.7949501  53.7413502
  20.5832887   4.6120685  53.9615345  48.2310430  28.0167525  12.9747822
  48.6957756  27.9827021  12.1386625  48.1250516  28.9514135  13.1520035
  63.9353911  21.9543778   3.2489206  64.3047944  22.0849846   2.3755838
  64.4687954  21.2585281   3.6329891  13.7619146  49.1888562  43.4108734
  14.4263729  49.6922556  42.9404306  13.0289038  49.1284672  42.7982712
  70.8880328  66.8903789  17.9757380  71.5978407  66.8514988  18.6167490
  71.0574948  67.6908484  17.4789858   8.7551874  37.3098254  61.7716885
   9.6048403  37.7356911  61.6578436   8.9636266  36.3800907  61.8632126
   3.3438333  69.5686004  42.2176266   3.3032211  69.9571082  43.0914927
   2.5546368  69.8849592  41.7779493  51.9339943  29.1328549  63.4962034
  52.7024603  29.5965648  63.1635380  51.5533972  29.7307324  64.1395712
  13.5314830  47.3623029  34.0473056  12.6085313  47.2632686  34.2809439
  14.0058836  47.1561352  34.8527050  20.7811046  13.3679664  36.5015554
  21.4153361  12.6526153  36.4540672  20.3482509  13.2485652  37.3469019
  21.3890505   4.7120035  56.9705629  20.9935737   4.8810554  57.8256941
  21.4610219   5.5760181  56.5649366  30.9476089  21.9067311  25.1328301
  30.5793834  21.1269307  25.5482268  31.8356276  21.6493821  24.8849916
  27.7793122  56.8831407  13.5025980  27.1991969  56.4180110  14.1053821
  27.4565411  56.6503976  12.6320316  22.6239618  60.2558700  48.4631348
  22.3805173  59.4049087  48.0986786  23.3003410  60.0547794  49.1099024
   6.8669034  50.2140473   7.6623537   6.7934800  51.0469388   8.1283285
   7.7758885  50.1859997   7.3637058  70.3168058  57.0393327  42.5972891
  71.0605406  57.4206236  43.0638790  69.5728325  57.5895825  42.8421545
  14.6129640  60.9443382  37.3443913  15.1684745  60.2530054  36.9842553
  14.6476492  61.6437689  36.6918373   7.8452492  39.3019891  10.9410002
   8.7600947  39.4603375  10.7081463   7.3778296  39.3268360  10.1060535
  51.6005993   8.3022922  48.2394791  51.3944292   9.2273247  48.1051683
  51.1024761   7.8450537  47.5619602  63.3431593  55.7200287   0.7402565
  62.9590575  56.5834783   0.8924152  64.2788688  55.8899127   0.6315519
  44.6262244  19.3176542   9.6805431  44.5064250  20.0398134   9.0638067
  44.5478455  19.7242187  10.5435564   3.8126994  47.9780315  29.8850776
   3.7826062  47.4984060  29.0572597   4.6621943  47.7504777  30.2629902
  11.5824306  21.0958076  36.0798573  10.7684577  21.3936830  36.4859962
  11.3845181  21.0613775  35.1439738  13.6446261  10.9422565  62.0919275
  12.8891623  11.5175843  61.9714928  13.4071648  10.1360571  61.6337967
  38.4922600   2.3073786  27.4111509  38.1715679   3.2031900  27.5156021
  39.3745232   2.3240489  27.7820539  14.1512521  65.5409238  39.1570520
  13.2089003  65.3751293  39.1302752  14.4895919  64.8997149  39.7820377
  11.8515682  61.9685914   2.7142002  11.2681592  62.7267291   2.7472688
  12.6135421  62.2300031   3.2312061  18.5607450   0.4000659  44.5175030
  18.4659021  -0.3040509  43.8760616  18.1118934   0.0751062  45.2979996
  39.4527507   5.0822198  62.7582550  38.7077761   4.5535401  63.0441618
  39.0827250   5.6921315  62.1200371  35.0310072  16.4292860  52.2338104
  34.9543032  15.6687415  51.6576862  34.9614748  16.0682666  53.1175900
  11.5309557  69.5078364  49.7361040  11.8113884  69.9129474  48.9154530
  11.5052398  68.5704729  49.5439577  51.9853703  12.8653871  30.1736976
  51.2056319  12.3288499  30.3164055  52.6909224  12.2321688  30.0415470
  43.2867002  14.5437872  51.9417953  43.0395508  15.1117945  52.6715326
  44.2327833  14.6615362  51.8563986  53.4760618  17.6994026   7.4006236
  52.9145288  17.0017779   7.7386063  54.2039919  17.7425170   8.0206954
  48.0540800   2.7139500  61.3087463  47.7247906   2.4930461  62.1799517
  47.3376656   3.1974548  60.8974075  69.9477135  28.5394636  30.4057908
  70.7515454  28.9986053  30.6492615  69.7495913  27.9863039  31.1614323
  67.6865101   3.5544911  47.4818993  68.0605936   2.7809632  47.0600653
  68.3178139   3.7843722  48.1636906  43.9086771  16.9279301  32.1495724
  43.9958858  16.0469401  31.7855883  44.5347500  16.9511414  32.8732586
  59.3512090  59.0945974  45.0216722  60.0597795  59.1211656  45.6646681
  59.5090898  59.8532740  44.4597864  74.8844384  63.1675056  25.3897500
  74.2341851  63.4373442  26.0382795  74.5622253  63.5274592  24.5634055
  12.7077628  55.7679473   1.8150999  12.2580004  56.2436865   2.5133945
  12.4052859  54.8645054   1.9074632  68.3423486  22.0915651  23.6857319
  69.2770055  22.2314477  23.8376617  68.3038810  21.3130093  23.1302118
  64.6050707  57.0129429  16.0374500  63.6823813  57.2642242  15.9957840
  64.6405546  56.3442956  16.7214634  66.2933413  41.5631996  21.5768768
  66.6727225  41.0637026  20.8538296  66.9625250  42.2110759  21.7975094
  28.3413720   0.1526626  48.0507851  28.4034872  -0.5185142  48.7304163
  29.1091609   0.7068980  48.1906271  23.2112694  31.7272197  30.6628563
  23.9882613  31.2741201  30.9902813  22.4784518  31.2896936  31.0961963
  52.0567743  37.9851829   2.6960851  52.7012793  38.3418004   3.3073713
  51.5230576  37.3949686   3.2280876  27.6625299   6.1953837  54.5080471
  28.0086875   5.6433779  55.2092600  28.3842015   6.7847514  54.2888021
  38.6102962   7.3351157   8.6846429  38.4641480   7.3524296   7.7388245
  37.9373074   7.9146600   9.0416378  30.0754818  56.8521241  61.3446569
  29.6265157  57.4097351  61.9800520  29.9486764  57.2949866  60.5055952
   4.6130546  61.4722208  42.9414368   5.0583466  60.6567195  42.7114248
   5.3219255  62.0944241  43.1045103  45.3615570  12.1536958  46.5478802
  45.3942251  12.3125684  47.4912405  44.8921919  11.3240278  46.4608335
  62.1744728  16.8545651  35.8863020  63.0152845  16.4117622  35.7714367
  62.4069548  17.7502418  36.1311460  22.2309669  73.9384082  44.7961473
  22.6989921  73.1553843  44.5062208  22.9097589  74.6090988  44.8712921
  18.3520206  60.5946580  44.9104071  18.7203439  59.9711481  44.2844629
  19.1117557  60.9420029  45.3777266  26.3177252   3.9526612   6.4192140
  27.0689487   3.3863419   6.5957850  26.6720772   4.8408321   6.4618534
  41.0950518  27.5751185  38.8236713  41.3553619  28.2362080  38.1822419
  40.4071999  27.9979753  39.3377566  42.3150158  18.4867597  24.9011016
  42.9935122  17.8492415  24.6787333  42.1516514  18.9575672  24.0838599
  44.3498993   3.8334656  51.7628336  45.2056742   4.0096775  51.3718987
  43.9246845   3.2349348  51.1486769  56.9447041  20.4535007  24.1205668
  56.2610245  21.1023664  23.9538765  56.8988085  19.8593771  23.3714747
  39.8637581  16.0699534  37.1318173  39.4085598  16.8988025  36.9833684
  40.5236006  16.0317278  36.4394474  66.5230528  53.5984789  10.1735451
  65.5808035  53.6931680  10.3129484  66.6949765  54.0797030   9.3641617
  14.0935358  63.6322370  51.1955309  13.6894973  62.8156880  50.9018803
  14.0805467  64.1972551  50.4229879  77.8748862  48.7381910   4.2609407
  77.0933739  49.2871545   4.1968443  78.3186022  48.8541542   3.4207632
  27.4955511   0.1929137  26.8468881  27.8858376   0.2870008  27.7158284
  28.2401299   0.2181326  26.2458897  47.4147415  15.0484312  53.5968781
  48.0970669  15.5458903  53.1461096  47.6840639  15.0504708  54.5154047
  64.6622483  16.7846237  19.6050979  65.3639404  16.3205491  20.0617172
  65.0516764  17.6229714  19.3566086  11.9260033  64.5284513  28.8861418
  12.4271473  65.2554545  28.5166097  12.1311887  64.5468018  29.8209119
  70.5288092  39.1785149   3.6002209  69.8295037  38.7514217   4.0949871
  70.7589976  38.5479292   2.9178669  70.0639121  61.8563591  15.5222036
  70.7598130  61.2057363  15.6151439  70.2247826  62.4817334  16.2287857
  52.9527441  43.3969329  11.9009020  53.7672941  43.8800769  12.0398762
  53.1489674  42.7990793  11.1795809  29.7737122  26.5892124  39.1206741
  30.2225137  27.4142337  38.9358854  29.1389084  26.8093538  39.8024321
  52.5436163   8.1413537  50.7812738  52.5061750   8.0802524  49.8267603
  52.1299219   7.3350006  51.0893059  67.5404835  13.3950329  29.8616624
  67.1948814  14.0431142  29.2478371  67.9690504  12.7437937  29.3062782
   1.8375207   5.9683786  10.2340795   2.4179602   5.3096853   9.8527004
   2.2704793   6.2268816  11.0476829  18.3914626  26.4314246  61.6634941
  19.2067039  26.9064069  61.8247604  18.2395804  25.9361553  62.4684000
  30.4408240   6.6175044  50.6832886  30.2729106   6.6877323  51.6230249
  31.2013316   6.0398823  50.6183815  55.9479380  32.1438408  34.0352511
  55.4083347  31.8729043  33.2925224  56.7394686  31.6103983  33.9634562
  27.2213316  26.7955422  22.9555130  27.2368956  26.4180398  23.8349915
  27.7409101  27.5960612  23.0292487  51.5062205  22.7656148   9.6298029
  51.9287149  22.1223579  10.1989700  51.3581506  22.2976457   8.8080313
  42.0309929  56.9831644  12.0435907  42.5321857  56.9707631  11.2281849
  42.5110928  56.3972376  12.6287605  68.1519715  12.3273407   3.9740373
  67.9680745  12.4524699   4.9050333  67.6264206  11.5666781   3.7262108
  27.5620302  73.0519547  33.8199496  26.9426569  72.4581836  33.3956337
  27.0128997  73.6416310  34.3366456   4.0249213  60.8251790  34.3887544
   3.8178285  61.1527041  33.5134983   4.5395502  60.0333396  34.2326117
  19.7662211  52.7655767  18.0908729  19.4324923  52.3199593  17.3122360
  19.1803790  52.4881421  18.7951805  73.6905018  41.6750954   8.1047966
  73.4477822  41.0799266   7.3955061  72.8553597  42.0006631   8.4406235
  68.4040224  62.7919820  61.6963005  68.4855782  62.8977791  62.6441336
  69.0994310  63.3405343  61.3333559  43.7080908  17.9110420  35.7614493
  43.3962870  18.2822013  36.5868282  42.9666758  17.4030972  35.4320145
   8.5497142  52.8241502  11.1513569   8.0780793  52.5327991  11.9316818
   9.4603968  52.5802647  11.3169147   9.6940645  55.4169646  55.4099226
   9.1274079  55.3663174  54.6401405   9.3855151  54.7135988  55.9811544
  68.5690276  51.1809944   9.2007829  69.0605370  50.7341801   8.5115721
  67.6863924  51.2755488   8.8426782  77.1755330  63.9190804  55.4606773
  76.8747059  64.2437492  56.3093998  77.5654665  63.0667339  55.6548263
  54.6115128  24.3580340   3.2252886  55.0975481  24.9537121   2.6550533
  53.6955873  24.4824551   2.9766275  14.4204140  18.9329301  13.8291170
  13.7584306  19.1044973  13.1593563  14.3047906  18.0085050  14.0488960
  40.0870800  23.5861444  43.9329863  39.3835497  24.1826463  44.1888428
  40.8906126  24.0422344  44.1830826   9.1047574  40.6221105  28.3799888
   8.7747956  41.3228838  28.9423706   9.0590335  40.9837248  27.4949028
  51.2071434  35.4558718  14.1293814  50.8703724  34.9174492  13.4132006
  50.6394926  35.2491315  14.8718502  21.2632211  70.3947738  59.3222570
  20.4222616  69.9643439  59.1681385  21.4631733  70.2082929  60.2395773
  11.2024140  17.2057855  32.2922492  12.0387733  17.6015353  32.5374365
  10.5986500  17.4730957  32.9852462  24.0500578   5.1736891  35.1567006
  23.3515677   4.6278465  35.5178165  24.8238119   4.9439925  35.6712651
  40.8731274   8.0230008  13.0634500  40.7483796   7.3099719  12.4371435
  40.2276997   7.8544675  13.7499286  35.8868106  57.6067725  63.0870485
  35.3549751  56.8109241  63.0901957  35.2578291  58.3156947  63.2213879
   5.9220219  66.3403808   8.9485266   5.9829427  65.8081852   8.1552507
   5.1721478  65.9798990   9.4217827  13.4983572  51.7353431  45.5715561
  12.6057442  51.3906470  45.5972195  14.0524562  50.9803072  45.7693720
  70.0808716  25.7636237  39.5211887  70.6582880  25.5784059  38.7805700
  69.2320490  25.4080892  39.2578816   9.3152340  71.6328727  41.4172029
   9.3683561  71.2859464  40.5266666   9.9560674  72.3436547  41.4359713
  18.8582405  53.4580532  26.0773587  18.7717136  52.5085274  26.1619043
  19.1644701  53.7481013  26.9366193  71.3790766  47.4643765   4.9371816
  70.5391613  47.3420452   4.4946768  72.0236556  47.4723862   4.2295934
  17.2816993  46.8404131  20.8082153  17.2540713  47.7244102  20.4421379
  17.6188803  46.2967442  20.0962021  35.0973129  21.8917823  57.4597931
  35.4937530  21.0554457  57.2156525  35.6957841  22.2598219  58.1098795
  12.2636366  18.0809212   9.3035257  11.6344905  17.3629892   9.3740952
  12.8800809  17.7938294   8.6298740  75.3352093  37.1233550  16.3323629
  74.6344303  37.7195111  16.0682845  75.5557012  37.3929277  17.2239602
  77.0000473  23.5510706  10.7307245  76.7189852  24.2535316  11.3170530
  77.0159117  23.9551900   9.8631574  71.7212979  42.1077226   0.2773191
  70.8502213  41.7233749   0.3759863  71.6699377  42.6122098  -0.5345200
  66.0419694  50.4572736   8.3825590  65.3692905  50.7412659   9.0014936
  66.0099880  51.1062013   7.6796343  51.8909311  25.3111029  39.2343068
  51.8397141  24.3664098  39.0888309  51.6065931  25.4296422  40.1405811
  64.3660021  20.8155012  35.3659487  63.5767317  20.8605027  34.8262668
  64.1966057  20.1000261  35.9788370  20.3933787   1.4113015  61.6816711
  20.9042120   1.0282090  60.9685659  19.5087147   1.0690764  61.5532875
  21.8897836   1.6342254   6.8168880  22.6695554   2.1853705   6.7503740
  22.1941011   0.8408804   7.2576000  37.0289755  22.9537034  59.1224909
  37.0936108  22.3645329  59.8741102  37.8704357  22.8643513  58.6750603
  63.4604494  38.8708292  14.6874096  63.3853427  37.9314165  14.8550274
  62.5590578  39.1917609  14.7144224   6.5934309  11.6464722  51.4541817
   6.8637881  10.7726026  51.1722422   7.0201716  11.7671764  52.3024416
  65.6085173  46.3473432  35.3212406  66.0039917  45.6878989  34.7511818
  65.9291521  47.1822213  34.9800636   2.0643426  26.2669538  19.1826202
   1.8623877  26.9064997  19.8655750   2.9821301  26.0394298  19.3313839
  12.5167330  49.0352741  50.3791142  12.1054920  48.1895939  50.5578279
  12.6850422  49.4074646  51.2447786  37.2565428  21.4602910  13.3634712
  36.9178823  20.5828844  13.5415079  37.6660780  21.7303000  14.1854240
  71.0444736   9.5603979  25.3267574  71.8795681   9.6195322  25.7908154
  71.2816143   9.6040195  24.4004226  50.4655218  12.5136065  40.2304363
  50.9963942  12.6221859  39.4413733  49.5638084  12.6268315  39.9299002
  20.3780778  72.1892685  30.7003498  20.9301408  72.5609982  30.0123978
  20.0148614  72.9502647  31.1533284  20.1407290  12.8227985  43.3294964
  19.3402994  12.3148489  43.1970882  19.9682200  13.6588538  42.8965044
  16.2574943  59.7720531  62.9938507  15.6769689  60.5318550  62.9500055
  16.1143049  59.4114104  63.8688755   9.5159753  27.1931616  59.1860914
   9.1873892  28.0363098  58.8740683  10.3683623  27.0963016  58.7614822
  77.4826502  63.9088443  28.3916187  77.1411943  63.1178347  28.8086820
  77.7633142  63.6197272  27.5233603  52.2704554   0.8106971  45.3608561
  52.9514360   1.2798586  44.8787880  51.4756012   1.3228390  45.2120352
  73.3502881  63.2690679  22.9962780  73.5852448  64.1969644  22.9902126
  72.5426260  63.2298504  23.5084965  11.6690453  69.3711174  46.8505955
  10.8149537  69.1750473  46.4654732  12.0206603  70.0762567  46.3071060
  19.9170399  73.4924279  18.8480427  20.8172894  73.1790148  18.7611248
  19.4133950  72.7125751  19.0812828  40.5035973  25.3432298  40.3155422
  40.6259489  26.1990166  39.9045753  41.3701248  25.1121163  40.6501150
  62.0336278  69.7677154  47.2496223  62.0554098  68.8387409  47.0199203
  62.2371706  69.7880653  48.1847095  67.4088112  31.6069059  22.6251365
  67.3080746  32.0878969  23.4465553  68.1858221  31.9893198  22.2174026
   4.2914137  19.2855048  33.0216050   3.5569891  19.0286541  32.4640346
   5.0625262  18.9268684  32.5822949  33.7897992   1.7240137  50.2168703
  34.2101717   0.9190004  49.9144268  34.5096827   2.2592722  50.5507851
   9.4965991  69.3142104  22.1858358  10.2862390  69.4780943  21.6702366
   9.7885498  68.7425509  22.8959060  57.8443575  23.8464403  27.4870968
  58.7693834  23.8429856  27.2410274  57.5607729  22.9403424  27.3654509
  73.5094325  49.0701233  12.5734379  74.4591109  49.1133891  12.4617674
  73.2668272  48.2101952  12.2300722  64.1390642  60.3781405  52.8545952
  63.7111982  61.2114135  52.6575613  64.1098531  59.8930136  52.0299530
   3.2430983  63.2170354  27.1240284   2.7968264  62.3735558  27.0490791
   2.6499797  63.8399707  26.7040397  15.7554448  20.6791234  56.5166998
  15.4982483  19.7582710  56.5626669  15.2462876  21.1047292  57.2065210
  52.4654341  50.0336933  44.7142696  51.8084383  50.4549074  44.1600418
  52.5299454  50.6009531  45.4825687  12.7351603  23.8301778  60.4633856
  13.1631884  23.3365393  61.1629200  13.4569773  24.1976428  59.9533033
   6.2145186  54.8201059   3.9829590   5.7238055  54.7188054   3.1673767
   7.0603657  55.1761399   3.7109186   6.8068560  61.7720762  50.1720524
   6.9894727  61.0803524  50.8079767   5.8734973  61.9554583  50.2790356
  70.7841635  59.5025969  49.4099760  71.1469650  59.8982763  48.6174870
  70.6641245  60.2376032  50.0112963  33.4647624   6.6995759   2.3844196
  33.8703124   7.4981971   2.0468332  32.8261678   6.4538426   1.7150642
   7.8568984  29.8351722  10.4265882   8.1388427  30.3211652  11.2015392
   8.5666323  29.2143868  10.2618505  21.6745520  50.3438841  11.1500742
  21.2160063  51.0954915  11.5256502  22.0925999  50.6882678  10.3608562
   5.0854874  36.7949016   4.5417692   5.4843522  37.0028100   3.6968376
   4.1496468  36.9453567   4.4083549  55.6898785  20.9331584  63.1372738
  55.7258987  20.0919318  62.6819992  55.8356190  20.7138777  64.0575504
  56.5772009  46.4260197  59.0872097  56.3770580  45.6473160  59.6066236
  57.3473263  46.8050718  59.5108414  19.2870475  55.1865207  13.3826734
  19.0971471  54.7640096  14.2203237  18.7802411  55.9982728  13.4035303
  37.3130846  26.5910888  33.5690951  38.0310154  26.9321251  34.1024828
  36.7115426  26.1970758  34.2008662  62.4014997  29.8373961  18.6100090
  63.0048513  29.4038558  19.2135358  62.7016115  29.5731783  17.7403212
  59.0354824  20.9682131   9.5678914  59.6617651  21.2410951   8.8974166
  59.1679716  20.0237179   9.6491772  75.1208544  20.8873367  37.8999662
  74.3511438  20.3392982  38.0530381  75.7393265  20.6277728  38.5828662
  67.6258612  21.6837621  26.2214041  67.7771664  21.7826343  25.2814245
  68.1048107  20.8897591  26.4588809   5.7150587  10.6789804  63.3721304
   5.7289442   9.7264069  63.2791567   6.2173399  11.0000718  62.6232290
  64.4548607  43.9897442  44.5150089  64.8763657  44.5465422  45.1696348
  64.7486734  44.3428802  43.6752462  65.9825850  40.1521540  39.7157931
  66.7063999  39.7660303  40.2089787  66.1559439  41.0933590  39.7333884
  46.1669397  16.9763708  44.0781832  45.8840084  16.1760092  43.6359119
  45.4707909  17.1604061  44.7088528  70.3473330  22.2578073  32.7272010
  71.0590744  21.9888949  33.3080077  69.9957037  23.0513501  33.1307840
  35.4814164   5.9649892  13.5569097  35.6638782   6.8340297  13.9142706
  35.2424400   6.1266608  12.6442339  25.6045390  61.5291606  17.7977802
  25.3067208  62.0319091  17.0396377  26.1201382  62.1516930  18.3104564
  59.8039500  11.6664214  31.3730289  59.4920509  10.8283992  31.7145969
  59.4761150  12.3156495  31.9953396  51.0070896  28.8858318  43.8776064
  50.8670044  28.1409740  43.2929754  51.0737705  28.4966731  44.7495842
   9.0706953  23.3550525  44.7308064   8.2265314  23.1413078  44.3334103
   9.4662794  23.9851284  44.1285181  70.5031601  63.9965759  31.3896705
  70.0753275  64.0668188  30.5362846  69.7963778  64.1216527  32.0229484
  73.8483477   8.2761484  55.8643007  73.8997173   7.5914723  56.5312433
  73.0843306   8.0408585  55.3378487  58.8984299   1.5357924  29.5494127
  58.8878107   1.6176516  30.5030465  58.4417343   0.7129402  29.3745518
  42.0871687  12.8821242  47.4319792  41.8789721  12.3375773  48.1911612
  41.6896486  12.4233365  46.6918993   1.0179663  58.0732094  51.0451748
   0.2074433  57.7272616  50.6715347   1.4530516  58.5083996  50.3119995
   8.1278643  36.8624187  34.8867369   7.5427946  36.6800857  34.1514206
   7.7841315  37.6683474  35.2721739  52.4806023   4.1035622  54.1626787
  53.0084181   4.0275022  53.3677816  53.0325842   3.7357569  54.8528004
  67.5826216   9.8442620  39.1618037  68.5254145   9.7781140  39.3134308
  67.3460197  10.7086682  39.4980383  63.7039089  22.9312611  53.6043310
  64.3361568  23.4157157  53.0734873  64.2383957  22.3344564  54.1281462
  45.9114631  69.2130956  55.1518488  45.4671606  68.6056725  54.5603609
  45.2766450  69.3753973  55.8496284  57.7307081   9.2007887  19.0929449
  57.1274424   8.8809335  18.4221244  58.3235025   8.4662324  19.2518568
  21.7463732  18.2037950  52.2522640  22.2734404  17.8245151  52.9555225
  20.9019065  17.7580523  52.3187637  38.2288615  25.1205487  20.1420547
  38.1010215  25.9240718  20.6462623  38.8022344  24.5833774  20.6887867
   6.3584233  63.1287347  10.6101896   6.3893891  62.4561988   9.9297764
   7.2202826  63.0898200  11.0248186  59.5889664  20.9831333  48.6623383
  60.4891539  21.0666394  48.9768600  59.3816519  20.0552440  48.7731171
  16.0516628  52.2196570  63.7252665  16.8768724  51.7524758  63.8556385
  15.8537134  52.1014849  62.7962446  66.5402460   4.8357832  59.3459320
  65.7405138   5.1125532  58.8986540  66.5820932   3.8908586  59.1989708
  42.0857580  56.1205583  58.3418308  41.5146251  55.5302088  58.8332854
  41.4855869  56.6685848  57.8361682  72.1488348  59.9700748  15.7949735
  71.9894997  59.1711198  15.2924635  72.8673903  60.4034077  15.3343870
  25.5394014  73.3079695  36.4772010  25.0409111  72.6070366  36.0571647
  24.9639162  73.6280118  37.1719146  71.5814114  35.4205060  43.9094543
  71.7205954  36.3507795  43.7321043  71.0463333  35.4054022  44.7029877
  48.2543532  42.0091568   2.3132898  48.6607639  41.1478196   2.2175791
  47.3839609  41.8253757   2.6666643  11.1288460  66.0753402  61.3155937
  10.2595051  66.4684216  61.2383366  10.9921845  65.1499567  61.1125612
   3.4745853   6.8150516  12.5350763   4.1611616   6.7371173  13.1974747
   3.9222662   7.1689172  11.7665817  62.2805738  63.2902479  24.0515327
  61.3834238  63.5684681  23.8672805  62.6966619  63.2381010  23.1910753
  55.8008480  22.9637170  39.0445018  55.1484728  23.5659647  38.6868262
  55.3450441  22.5105524  39.7538090  46.8816805  43.0592775  56.7228794
  46.7906618  42.1195507  56.5652132  46.0162401  43.3366489  57.0234013
  44.6440220   3.2016844  48.9488029  44.3859720   3.5857707  48.1108761
  45.4808569   2.7734378  48.7683964  71.4492893  32.4068379  56.1000729
  70.8784962  31.6819167  55.8452940  71.0328770  32.7775073  56.8781710
  75.7827902   7.0636940  33.7779665  75.9382439   7.8417552  33.2425356
  75.4682541   6.4054418  33.1582880  78.0954520  56.5407263  11.7543461
  78.0939928  55.5917893  11.8798401  77.8192727  56.8945538  12.5997831
  31.9525052  48.9409326  14.8819782  31.1413098  49.4395088  14.7839596
  31.7688657  48.3210908  15.5878832  61.3032436   6.6669297  49.6305037
  61.6656971   5.8440763  49.3022156  61.1977911   7.2105807  48.8497639
  32.6524687   8.7847173  34.3802023  33.1565785   7.9971111  34.5846105
  33.0981469   9.1645479  33.6230159  52.4141439  66.9013933  56.7228937
  52.8584798  66.8505672  55.8765984  51.9304737  67.7267602  56.6902781
  63.5039894  70.2296387   6.6509344  63.0063430  69.8599707   7.3802664
  63.7161747  69.4764696   6.0996200  74.0391207  43.2640886  61.7240858
  74.3859529  42.4841499  61.2909222  73.6441374  42.9341602  62.5311613
  48.8028399  23.1808029  15.4422428  48.0769197  23.7304758  15.1470663
  48.9929358  22.6135229  14.6950580   8.6073447  63.7706910   5.1364185
   8.4222556  62.8923594   4.8039963   7.7566672  64.2095123   5.1402761
  42.2421026  10.1829410   8.5554630  42.8722763   9.5387983   8.2326752
  42.2680473  10.0871563   9.5075053   2.2743353  12.5000417  51.0013580
   2.5674948  13.0711806  51.7113495   1.6018900  11.9478619  51.4002943
  22.9297781   1.5340959  40.1837492  23.3526778   1.6827568  41.0294962
  21.9979239   1.6708092  40.3546000  49.1270208  43.1894684  47.4522686
  48.8576651  43.6031961  48.2723331  49.5173883  42.3576832  47.7205658
  77.4254672  57.7383719   3.6178877  77.1533171  58.6544643   3.6721184
  78.2816140  57.7171455   4.0454294  75.1369619  17.4281836  45.1955032
  75.2281475  17.7518821  46.0916853  74.4049597  16.8127775  45.2364445
  38.3507299   2.4823973  48.1835985  39.1065526   2.5272265  47.5979757
  38.7148476   2.6305264  49.0563583  37.3063946   2.5246984  57.4651814
  36.4025211   2.7939066  57.3015547  37.5682306   3.0228284  58.2394791
  14.9157365  62.0065311  20.3014588  14.5204719  62.8715840  20.1933908
  14.1708263  61.4131192  20.3973913   2.7258492  30.8591376   8.8570358
   2.0906640  30.1623701   8.6918546   2.2983838  31.6536604   8.5372879
  64.4407209  58.7571827  31.1884618  64.5518240  59.0656939  30.2891779
  64.4020303  57.8038612  31.1115694  60.0985718  21.2834001  55.0525093
  60.6090784  21.9453740  55.5187750  60.7278013  20.8663440  54.4639826
  44.7045469  23.2961178  62.4673796  45.3999186  23.9537692  62.4537468
  44.0069914  23.6739755  61.9317722  48.4828091   9.7027677  59.4815493
  48.6574507   9.8307198  60.4139423  48.8277197   8.8304889  59.2907619
  46.6957664  23.7928820  41.2190199  46.1678600  23.6926150  40.4268742
  46.1179066  24.2407703  41.8368483  13.3371306  26.1265849  13.7274315
  12.5889302  26.1377011  14.3243410  13.2953263  25.2677034  13.3069469
  74.0194067  59.2654041  34.1579056  74.1649946  59.5185688  35.0694656
  74.3212637  58.3583024  34.1101193   3.5923609  17.2289777  39.0511703
   3.8382754  18.1502438  39.1349816   2.6399836  17.2429907  38.9561749
  51.2989950  14.5039773  58.0590200  50.8396435  15.1414216  58.6057329
  51.3696480  13.7236512  58.6088657  36.4817239  63.9126860   5.1466991
  36.6271020  64.8481809   5.2879288  35.5530740  63.8454615   4.9246027
  41.2534857  17.7194262  50.1879549  41.5324211  16.8038356  50.1769066
  40.3134203  17.6813042  50.3641891  26.7607546  12.1070063  23.5992432
  27.5886917  12.2120357  24.0679884  26.5658545  11.1720896  23.6638761
  66.1751954  56.6936599   2.0465996  66.1066858  57.4380957   2.6443912
  66.4469401  55.9638129   2.6031162  32.1767640  31.3770366   5.0589746
  32.0602846  30.7959437   4.3073118  32.2213411  30.7881832   5.8122987
  53.9036274  29.2820764  58.9535761  53.0199051  29.6337199  58.8458204
  54.4770908  29.9642467  58.6042690  50.8975887  18.1179106  44.8835659
  51.1375713  17.6995611  45.7103825  50.9107637  19.0553176  45.0767660
  74.0003920  25.8503604  52.8057766  73.5959053  24.9956322  52.6572418
  74.9350023  25.6616402  52.8901339  55.2560759   2.8072712  55.7081985
  55.2535343   2.3135811  54.8881388  54.6212578   2.3537397  56.2627649
  65.2646303  24.4907022  51.9351482  64.8057556  25.3015876  52.1545362
  65.6671858  24.6659088  51.0845661  69.2503166   2.1393591  52.7489948
  70.0238895   1.5805860  52.6742172  69.1369867   2.5098878  51.8737221
  45.6692266  17.1141815  37.7901888  46.5737772  17.4143839  37.7012897
  45.2451897  17.3872697  36.9766498   7.1783353  27.0151357   6.3442566
   6.5108443  26.4193235   6.0041239   6.7326689  27.8593801   6.4140179
  13.7296328  42.4805450  58.0577326  14.0704855  43.3530951  58.2544756
  13.4393725  42.1403551  58.9040470   1.5710768  37.1067309  20.5037498
   1.9747481  37.1349335  21.3712096   1.1432204  36.2512946  20.4663730
  76.0897763   6.6884847  10.4119827  75.7322653   6.0173268  10.9933283
  75.6573637   6.5330739   9.5722772  33.6541875  73.1145282  50.5942249
  33.7187561  72.2717196  50.1450729  34.4367584  73.1534976  51.1440372
   6.2225152  54.2322587   1.3963701   5.9805156  53.3170460   1.2547590
   7.1410323  54.2808794   1.1314203  47.0090294  20.1371670  34.4687963
  47.6778746  19.7649574  35.0435448  46.9748259  21.0630298  34.7093034
  68.1571102   7.1562052  46.0477829  68.6189270   6.6850090  46.7412758
  67.8067207   7.9351836  46.4798117   2.8149899  66.2094549  20.3582597
   2.7584275  66.7598507  21.1393452   2.0286926  66.4242676  19.8564363
  71.3639545  10.1157439  63.9022112  71.3577890  10.9036767  63.3587456
  70.6988668  10.2805781  64.5705843  53.6310339  13.6393416  54.6632433
  54.0946579  12.8203332  54.4885826  52.7043486  13.4085655  54.5981693
  59.1934490  13.6269021  38.1613111  59.5930243  13.3059847  37.3528647
  59.9076986  13.6252737  38.7985539  75.5621179  69.5157793  47.3654795
  74.6795782  69.5823792  47.7300739  76.1412366  69.7025422  48.1043768
   6.2179582   4.5649190  22.5187637   6.1594240   5.4142041  22.0811321
   7.1574156   4.3938346  22.5849582  37.2294760   9.4916266  51.9860601
  36.9895601  10.1348352  52.6531124  37.9917860   9.8720491  51.5497208
  50.2843714  29.3755603  49.7890091  50.3118515  29.7003841  48.8890314
  49.6838808  29.9692941  50.2397060   1.9703548  64.6439311  47.7376556
   2.6880806  65.0329981  48.2373762   1.5964859  63.9882556  48.3263350
  69.2820930  20.0510478  14.1351891  69.3364525  20.4587746  14.9995029
  70.1086235  20.2798128  13.7100399  44.3774971  71.5885592  32.8609371
  44.3054231  72.5014970  33.1394720  44.7980627  71.1457566  33.5980153
  73.9761734  18.7557495  43.2407570  74.5574188  18.2470596  43.8061094
  73.4372425  18.0995798  42.7989101  61.4726385  57.9024807  41.2314796
  61.4764722  57.9528371  40.2756119  60.5837759  57.6249782  41.4531469
  77.0841408  21.9470477  50.1872873  77.6113462  21.8427587  50.9793806
  77.6862526  22.3261786  49.5470142  12.3174906  51.1163543   2.0378067
  11.4645959  51.1074661   1.6033747  12.3776341  51.9876121   2.4296238
  62.6957885  42.9624973  46.4593651  63.0349175  42.0714097  46.5441372
  62.8287021  43.1826542  45.5373623  16.8933519  49.0265337  54.0472031
  16.7102130  48.7687150  53.1437540  17.7314457  48.6108199  54.2497110
  56.7654705  17.1579361  47.9375553  56.1088657  16.5533710  48.2833958
  57.1981192  16.6674554  47.2386456  45.6217098  27.8822088  46.4071465
  45.0986814  28.6563945  46.6152573  46.5228367  28.1441522  46.5958071
  66.9666640  43.9825486  20.1091816  66.6132323  44.1559886  20.9816696
  67.8982846  44.1897307  20.1826145   5.4115614  14.6664262  56.6303253
   4.8535761  14.9597526  55.9100199   5.5406222  15.4483986  57.1670723
  12.7985526  47.7611421  15.9805061  12.5204135  48.4771966  15.4094221
  12.9529954  47.0269154  15.3861238  13.8266461   1.7077465  50.6350281
  12.9888742   1.8663473  51.0700085  14.2034023   0.9637470  51.1048652
  33.5259231  64.4819179  49.1638899  32.7447733  63.9298073  49.1290665
  33.7974342  64.5706347  48.2503033   8.8630709  38.5392404  49.6832705
   8.5686716  38.1683993  48.8513851   9.5085749  39.2011356  49.4353628
  21.1909819  41.9621404   6.8241360  20.6629658  41.4812039   6.1868526
  21.7670584  42.5111835   6.2922384   0.7862862  63.8385538  39.4142962
   1.1295970  63.0153945  39.7618270   1.5652426  64.3423584  39.1784191
  36.1724377   4.5002642  30.3443408  37.0189023   4.3040854  30.7458901
  36.0686493   5.4454839  30.4539752  43.3442863  61.3157752  58.8011646
  43.9833768  60.6274143  58.6168957  43.0449709  61.1325482  59.6917105
  62.6677036  19.3485749  46.8711758  63.1773281  20.0727105  46.5076637
  62.0780563  19.7631276  47.5010109   3.2244492  39.9810280  33.0998184
   3.7451411  39.1834568  33.1946613   2.6896907  39.8267569  32.3210575
  26.0662890  38.3507833   4.9230244  26.6294623  37.5878874   4.7924234
  25.7550765  38.2672577   5.8243610  71.2272215  24.4919896  54.1078043
  72.0456457  24.9458742  54.3087912  71.4407921  23.9324117  53.3611488
  75.0983445  51.0188912   9.5097639  75.7719294  51.5825830   9.1292860
  74.2713515  51.4198636   9.2423012  50.0248909   1.3016021  19.1389644
  50.3649998   0.4072829  19.1663504  49.2084408   1.2323063  18.6441505
  26.4682516  65.2197913  40.7709122  26.2834819  65.8190528  41.4940834
  27.1877273  64.6746871  41.0894203  60.0239698  37.1581260  27.0649673
  60.9797899  37.1453786  27.1147491  59.7508565  37.6610135  27.8322651
   3.9049658  50.5339670  30.6508374   3.7333235  49.7489357  30.1307511
   4.8265585  50.4602575  30.8987570  55.6125402   0.8932430   7.4975681
  56.4414787   0.7993464   7.0282394  55.0405693   0.2318547   7.1081471
  43.7674522   6.0274214  23.0903649  44.0345049   6.7140824  23.7014413
  43.8523722   6.4297509  22.2259855  42.1542788  69.3228436  58.8807583
  42.0287657  68.4160805  59.1604996  41.4250898  69.7991133  59.2778492
  55.4499388  21.0552120  50.3553343  55.0222206  21.1473465  51.2066841
  56.2070084  20.4952049  50.5270004  33.6386204  65.2685677   6.5135719
  34.1658307  65.4773317   5.7424070  34.1613770  65.5798684   7.2525217
  77.4930731  72.7674328   5.4178573  78.1960360  72.1226059   5.4970648
  77.6763550  73.4072791   6.1057760  57.7600050  64.6267128  46.6273785
  57.6939726  65.5682564  46.4680767  57.1430922  64.4605494  47.3401499
  11.6839346  66.6863916  32.3553467  12.1694501  65.8754805  32.2039199
  10.8302005  66.5335843  31.9503546   3.2001925  14.5229207  38.6027004
   3.1712914  13.9425264  37.8420879   3.4010554  15.3850804  38.2386066
  40.0780443  72.5133191   7.3992922  40.0042979  72.1524035   6.5158130
  39.9423043  71.7622410   7.9769470  30.3280513   8.8404317  18.9310505
  29.4768922   9.0385099  18.5405113  30.7762067   8.3099361  18.2722904
   4.8254014   7.8498302  10.1720716   4.3166877   7.8638850   9.3613674
   5.5357266   7.2321569   9.9984314  18.5007986  70.3234339  54.7470284
  18.1503805  71.1186776  54.3457508  18.5594066  69.6969757  54.0256786
  15.3180154  70.4091865  53.1845045  15.7478269  70.1109258  52.3829222
  15.7704099  71.2218377  53.4107113   1.3556815  53.6040233   9.5624830
   1.6053963  52.6823352   9.6285488   0.4014827  53.5889219   9.4882776
   5.1389632  57.6410675  59.2051840   5.4036078  58.2301807  59.9116850
   5.0107416  56.7950392  59.6341658  12.4207307  66.2358295  17.2458698
  11.5942860  66.5674315  16.8947841  13.0949546  66.7182766  16.7674400
  67.5009871  40.6035900  53.3683252  67.7061510  41.1522722  52.6113033
  67.9119396  41.0519123  54.1074848   9.1814478  71.1452148  38.4547520
   8.5193237  70.4556376  38.4067130   9.8419245  70.8883226  37.8113198
  27.4967242  54.6753799  18.0891945  27.0389987  54.2359398  17.3725273
  26.9841815  55.4674851  18.2507564  58.2542372   7.2436762  63.2426643
  57.9065657   7.0760363  64.1185904  58.2416153   6.3887721  62.8122997
  17.2840930  66.9613396  14.0238144  16.7119122  66.9948803  14.7904398
  17.0931006  67.7689825  13.5468818  42.3753405   9.6234840  33.8770485
  42.3221016   8.8321155  34.4128966  42.7612686  10.2799320  34.4570208
  49.0393575  59.8220876  50.5712175  48.3678230  60.3949598  50.9414721
  49.6117767  59.6153882  51.3100338   4.9458218  17.9437123   4.4490005
   4.7468472  17.7690981   5.3688671   4.0913106  17.9597519   4.0179731
  70.8515978  47.2169542  50.7839775  71.8056250  47.2930145  50.7674551
  70.6635809  46.4450455  50.2500868  62.7170944  38.7071967  48.8746023
  62.5466871  38.3103275  48.0203867  63.6506701  38.9179492  48.8588381
  74.6461789  67.8950916   3.7049677  73.7878577  68.0504356   3.3107807
  75.2574126  68.3720647   3.1436111  75.6915379  30.0711799  34.1528177
  76.2065697  29.3592095  34.5323920  75.0218916  29.6300888  33.6300874
  75.5636692  46.7100000  63.0501318  74.8068190  47.0978928  62.6108694
  76.2219238  47.4049330  63.0515385   7.2753367  11.5027523  34.1085696
   7.2880682  12.2163033  33.4706688   6.9925913  11.9158626  34.9244261
  20.9833432   3.1475863  51.5590572  21.4528895   2.6295027  52.2127771
  21.4978934   3.9503273  51.4749527  72.3660612  19.3484604  46.0794544
  72.3523855  18.5540569  45.5456305  72.9527569  19.9419713  45.6106710
   2.5867844  66.5117775  16.6260101   1.9911814  66.7977677  17.3186065
   3.4608794  66.6895734  16.9732525  38.6509967  14.0542996  38.4518266
  39.0813422  13.2699251  38.1115460  39.1495466  14.7816467  38.0794764
  64.4880581  20.7743359  60.4150915  64.0538168  20.1603103  61.0072374
  64.5465612  21.5884876  60.9150553  57.0012315  63.8592711  61.8618965
  56.3571294  64.4539324  62.2462654  56.5180143  63.3898679  61.1819077
  75.6752729  32.6214051  49.1931868  76.3152647  32.3014379  49.8290014
  75.9772110  32.2740602  48.3538914  58.1458330  16.8955588  52.5333738
  57.7499390  16.5554166  51.7309999  59.0402699  16.5548456  52.5222158
   3.2186080  70.8149277   7.0860054   3.5715056  71.5445744   6.5767767
   3.1504393  70.0955616   6.4582350  65.7532135  17.8506647  30.0314571
  65.2312485  18.6053096  30.3040268  66.5052430  18.2309757  29.5775368
  73.4582567   9.3255991  51.3412952  72.5619459   9.4580710  51.0325718
  73.4767962   9.7356230  52.2060299  13.1831622   8.6448729  60.4251385
  12.3864043   8.7072009  59.8983335  13.8294172   8.2545376  59.8367310
  65.2099919  70.4295656  24.0625978  65.1135718  69.9165774  23.2602406
  66.0551214  70.1577798  24.4205379  41.7539358  20.9766841  56.7781544
  40.8148766  21.0465097  56.9499683  41.8834066  20.0633621  56.5225887
  68.7300301  23.9640856  27.6070070  68.0752039  24.4781733  28.0793881
  68.2457256  23.2098436  27.2711515  10.5387068  41.2909149  13.0656816
   9.6630431  41.5051486  13.3874704  10.9346104  40.7792883  13.7711860
  13.3709081  72.3566003  58.8905573  13.2820686  73.1789454  58.4088039
  13.8275679  72.5990595  59.6961069  34.8397756   3.3194110  56.9425535
  34.1943741   3.3477172  56.2362337  34.6821260   4.1198260  57.4432659
  54.3797445  18.2731140  22.1098685  55.3297186  18.1639564  22.0667434
  54.2006159  18.4496212  23.0334425   2.4419150  39.0015268  58.9948988
   2.4024233  39.9310470  59.2199850   3.0326971  38.6224031  59.6456480
  20.0094605  48.3779608  11.8353369  20.5706931  49.0580319  11.4628364
  19.6069766  47.9569434  11.0757448  54.9192238  29.0328526  47.9954863
  54.2756462  29.7402930  47.9559278  54.4341230  28.2872391  48.3489990
  76.6043711  31.0682607  38.9601564  76.8422985  30.2064443  38.6182570
  75.6811237  31.1709857  38.7292886  66.2800646  21.4095831  29.6622705
  66.6359472  22.2957635  29.7275639  65.7455111  21.3075304  30.4497147
  31.7107948  63.6614576  53.0052662  31.8113216  63.3029190  53.8870716
  32.5859483  63.9705494  52.7711821  70.6636445  26.5324234   3.5397436
  70.0491539  27.2583722   3.4319069  70.9623543  26.3375174   2.6514770
  34.0591908  11.7306006  45.8442974  34.5233917  12.0757365  46.6069412
  34.7446465  11.3364005  45.3048611  11.2315305  66.1378482  40.0210238
  11.1948403  66.9125858  39.4600725  12.0664843  66.2156591  40.4825783
  71.5386248  49.3464136  53.2228565  70.6503248  49.1520500  52.9238939
  71.9418144  48.4876394  53.3500338  26.7643674  71.7238351  57.3786736
  25.8412155  71.6344917  57.6153994  27.2254451  71.7474683  58.2171726
  16.3615310   6.3218725  63.8966703  16.7496371   6.6696322  63.0937576
  16.3961208   7.0517087  64.5150328  77.4379746  72.4819122   1.7884685
  76.6140524  71.9989263   1.7243292  77.2015015  73.3025824   2.2206880
  71.1138344  36.4451623  56.1727238  70.3398800  35.8906007  56.0742903
  71.7068100  36.1539555  55.4800415  62.7488518  40.2065659  39.4146013
  62.1474600  39.6397281  38.9316344  62.8274107  40.9906530  38.8712192
  22.1588549  26.6876650  45.4786015  23.0173716  26.2694216  45.5437899
  21.7298445  26.2413955  44.7485161  41.6986275  62.9275370  26.4206338
  41.7349577  63.2066727  25.5057597  41.5703154  63.7380457  26.9134259
  61.3938236  45.6481552  37.9643559  62.2939301  45.5489635  37.6541829
  61.4502144  46.3070107  38.6564279  78.5926867  24.2679667  39.3330956
  78.5383844  23.9508462  38.4315872  77.6999044  24.5401549  39.5454335
  48.2863092   7.9818529  35.9998536  49.0701580   8.4499639  35.7123041
  47.7184629   7.9696697  35.2293777  68.3909559  50.2371979  42.6837206
  68.5439587  50.9569216  42.0714951  69.1500807  50.2530766  43.2665730
  61.0003757  36.1101198  35.5548024  60.4863310  35.7660532  34.8243165
  60.3528547  36.3063502  36.2318850   7.2952891  68.1962286   4.5996000
   8.1992198  68.4331547   4.3922045   7.3535920  67.7418910   5.4400827
  58.2533360  11.9440651  56.7701101  58.7013292  11.4942169  57.4864721
  57.3222828  11.8324852  56.9622612  71.0318851  37.1262169  38.0165911
  70.6359863  36.2596846  37.9237485  71.5309143  37.0754504  38.8318348
  11.8821336  70.4947792   0.3026630  12.1236659  70.0063954  -0.4843424
  12.7054549  70.8721291   0.6124784  72.1034559  65.4211101  41.6151953
  72.7961763  64.8517093  41.2803030  72.5350030  65.9576956  42.2800875
  66.9203997  66.5362501  59.5860720  67.6269865  67.0771122  59.2333078
  67.1186829  65.6520987  59.2775393  15.1675320  65.0648032  19.1385319
  15.1151705  64.5187579  18.3541061  16.1054803  65.1471578  19.3108608
   3.9930090  50.3779459  38.3883309   4.8624834  50.0516701  38.6202455
   4.1608080  51.0846806  37.7649498  23.8241164   3.5340734   7.1447803
  23.9356916   3.4929366   8.0945637  24.7088973   3.6687799   6.8052961
   2.8195223  41.2480545  17.5210321   2.5703463  40.3573275  17.7675033
   2.4568781  41.3638783  16.6427946  78.2308499  18.3176216  61.2210894
  78.0306260  17.5642571  61.7765808  78.1700484  19.0710815  61.8083143
   9.1972288  39.9549937  42.0372486   8.2474741  39.9968863  42.1487617
   9.5454249  40.5018997  42.7414417  75.0215816  41.0468912  51.9395638
  75.6896019  41.3356733  52.5613260  74.8901176  40.1206827  52.1422625
   8.1069979  11.8468833  44.4364929   7.5076613  11.1009145  44.4128561
   8.5107645  11.8573141  43.5686779  48.9695883  41.2572241  61.2649727
  48.7734890  41.0994101  62.1884823  49.9107647  41.4306211  61.2462091
  78.1326580   6.3304365  50.4500389  78.9686918   6.1107731  50.0389051
  77.6832771   6.8744147  49.8032236  35.3800202  43.7709968   7.0459940
  34.4245339  43.8232236   7.0224287  35.6708623  44.6818303   7.0009662
  15.1934911  55.2277885   4.6366836  15.6554127  55.3016864   5.4717876
  15.2187157  54.2933129   4.4308903  15.7271799   5.9347796  26.4979911
  15.1786169   6.3385135  25.8254480  16.6228518   6.0648966  26.1864305
  31.7215666   8.9613849  52.8581715  31.5384993   9.3144709  51.9875097
  32.5245604   8.4525460  52.7463007  60.5900478  34.1889572  51.5415478
  60.2687979  35.0271678  51.8738651  61.1435699  33.8488770  52.2445345
  14.0754160  57.4412918  35.6841159  14.6254954  58.1540871  36.0090184
  14.4388232  56.6542244  36.0899377  10.6471062  56.5453182   4.3565561
   9.7718764  56.1812173   4.2237522  10.5648089  57.4649225   4.1039945
  61.2209320  22.9757953  45.5683136  60.8738422  22.1463943  45.2399015
  62.1636534  22.9194760  45.4123020  24.3438658   0.9980991  24.4950128
  23.8387713   1.0082055  25.3080368  24.6431097   0.0928417  24.4101858
  74.4514847   1.3214560  32.4360752  74.1423607   0.4989277  32.8157091
  75.0298786   1.0532752  31.7220926   7.5440916  43.8959646  61.4540434
   7.6661906  44.6301317  62.0559740   7.7453455  43.1206131  61.9780350
  45.0842015  40.8551164   0.4343368  45.5805461  41.5273423   0.9012224
  44.2004554  40.9145446   0.7972290  59.7694397  32.9612160  14.5372164
  60.2621937  33.2275128  15.3134346  58.9787579  33.5002732  14.5588613
  63.1158972   0.7398936  60.1267195  63.8733721   1.0508893  60.6224442
  62.6273489   1.5345848  59.9122047  16.8059540  66.7633782  23.1734993
  16.5296174  67.6763712  23.0940296  15.9899235  66.2745749  23.2802631
  27.7381103  17.3061223   0.8592464  27.8228538  18.2498832   0.9947731
  28.1902044  16.9152351   1.6069414  36.6080777   8.3028407  48.5381843
  36.0099713   7.8716464  47.9277946  37.3450772   8.5815806  47.9947044
  66.3594214   1.8260130  50.9625292  66.5487544   2.7043184  51.2926340
  65.6234518   1.9489655  50.3629827  76.1944056  65.4344654  36.8155336
  76.2287855  65.2007008  37.7431130  77.0739317  65.7556105  36.6167092
   7.7075419  52.3116064  19.4056439   8.1191954  52.8719187  18.7477505
   7.1377501  52.9011106  19.8996580  58.8110590  36.5481257  45.7881594
  58.2870865  37.3360777  45.9324408  58.1912661  35.9095931  45.4355049
  15.7893309  33.1477308  20.5465937  15.3749403  32.2913933  20.6524301
  15.0597224  33.7511110  20.4057479  52.7594455  68.4528187  39.4179797
  53.7023958  68.4394643  39.2539644  52.3668464  68.5516659  38.5506105
  14.9061235  71.0843429  16.0448396  15.2982315  71.0648105  15.1718557
  15.0679859  71.9734660  16.3602650  37.5264899  18.7038608  28.6133053
  37.8269832  17.7952142  28.5961677  37.8839605  19.0590377  29.4271232
   3.1562456  54.9217367  23.7624502   4.0198740  54.5145035  23.8298249
   3.2325682  55.7303667  24.2689300  39.3302934  28.0386014   5.1059009
  39.6850078  27.9987235   5.9940578  39.7124688  27.2820420   4.6611645
  64.9549993  61.3459125  55.2327013  64.8466238  61.0529486  54.3279028
  64.1021856  61.7098311  55.4703999  72.4534416  69.2727518  52.7424908
  72.7350855  68.4127140  52.4306631  73.2362080  69.8196745  52.6762629
  72.3988771  34.6107125  63.8738394  71.4816284  34.8386621  63.7224293
  72.6131487  33.9992023  63.1692982  31.8561443  66.7592493  51.9182348
  32.8079876  66.6583798  51.9258308  31.5988859  66.5371558  51.0234022
  14.9157894  24.0697575  41.1775732  14.2992687  24.5179200  40.5985355
  14.3812883  23.4291577  41.6468000  21.8962670  57.4827562  15.7206394
  21.3478471  56.7082332  15.8454754  22.0191909  57.5389825  14.7730305
  49.6717834  21.0758209  35.0422049  50.4928446  21.5677357  35.0527930
  48.9926481  21.7451262  34.9583364  27.6623202  52.9129754  13.5504963
  27.3049498  52.0934354  13.2086326  27.0039368  53.2197569  14.1739179
  53.8328409  10.0953329  43.3816147  53.8746166  10.3812611  42.4690723
  54.1251135  10.8555818  43.8844347  77.4431562  11.5350115  34.8873043
  77.4155188  11.6103959  33.9334774  78.0953264  12.1805048  35.1597810
  64.8455238  28.7853312  33.2487416  63.8958073  28.8267517  33.1366849
  65.1731062  29.5694041  32.8081203  63.5767460  42.3143148  50.2177620
  64.1946554  41.9331074  49.5939827  63.3297491  43.1529903  49.8280811
  60.4806376   8.8585341  41.8462086  60.1793480   9.5671833  42.4147797
  61.1106205   8.3744913  42.3801136  65.5149031  60.0270796  38.0872631
  66.0006952  60.3524256  37.3293805  66.0975313  59.3804979  38.4856510
  74.9915218  18.2998061  47.6236916  75.5294228  18.3828688  48.4110880
  74.3932581  19.0460014  47.6625061  61.3934390  12.3383756   2.2295906
  60.9769790  11.6855855   2.7923157  60.7288806  12.5477929   1.5732862
  42.6853037  25.4082060  37.9165125  42.0420933  24.7259569  37.7240300
  42.1733665  26.1169434  38.3061886  70.7608461  19.0317321  25.0608778
  71.6458559  18.7240374  24.8651409  70.7159376  19.9009931  24.6626306
  14.3633684  61.9075632  47.9379225  15.2301153  62.2061396  47.6625538
  13.8910708  61.7557812  47.1193075  21.4971702  20.7774539  33.5928203
  21.1056249  19.9170442  33.7432148  22.4288432  20.6513543  33.7725784
  31.7495156  67.4619804  14.1055633  32.6827908  67.6673876  14.0504743
  31.3670445  68.2076393  14.5681049  66.3999081  35.8494091  49.4717979
  65.5015373  36.0327601  49.7466660  66.6511250  36.6117382  48.9502859
  34.0437587  67.4573985  54.3347311  33.3175834  67.0052162  54.7641850
  34.7649177  66.8284163  54.3580484  33.0303971   7.9742379  10.5461981
  32.8622501   7.7697129   9.6263458  32.5487868   8.7864776  10.7028772
  76.6128683  62.6193905  43.6873913  76.3234997  63.5004807  43.4503555
  77.5686121  62.6668596  43.6642885  50.7620001  20.2157903  62.9310226
  51.4815664  20.2848077  63.5584688  49.9892855  20.0475168  63.4703064
   6.6984686  23.6329460  47.6872873   6.3581023  24.1690922  46.9710970
   6.3228354  22.7655292  47.5365639  -0.0515667  49.2152405  58.4731531
   0.3125128  49.6355820  57.6940536   0.5278858  48.4711218  58.6367321
  21.4996243  71.5434466   2.2191240  20.8916426  71.3988744   1.4940836
  22.2590113  71.0008036   2.0067550  63.3473253  18.0108678  32.2464395
  62.6717472  17.5335979  31.7647338  64.0647364  17.3837698  32.3375511
  23.7374227   3.1778092  13.1886102  22.9979913   2.6822324  12.8366520
  23.7241571   4.0037150  12.7049448  59.4347906  44.0772581  12.7244949
  60.1487160  44.1895390  13.3521378  59.1565561  44.9691200  12.5161636
  73.8664865  70.6073523  49.7063398  73.3327627  69.9335480  49.2852020
  74.2215776  71.1201382  48.9802599  59.9060535  44.6301031  62.2278261
  59.5164013  45.3586674  61.7445087  60.4375553  45.0488281  62.9048777
  62.9975367  53.7560034  49.5798254  62.8731871  52.8073215  49.5520115
  63.1087399  54.0099525  48.6636496  58.4372330  51.3363504  31.6840458
  58.3563471  52.1260023  32.2189665  59.1668987  51.5213013  31.0927653
  64.8668623  31.6018629  62.4679804  64.3896770  31.0656428  61.8347359
  65.3057814  30.9683919  63.0356884  34.2598916  44.4258963  15.0403072
  34.3974877  43.5083281  14.8050024  33.6429692  44.7513460  14.3847753
  74.0112114  34.3386960  40.1557398  73.1547308  34.1596937  40.5438566
  74.2895317  35.1611900  40.5585718  63.3374214  14.0954721  22.7668333
  63.5271788  13.9446390  21.8408346  63.9143848  14.8178017  23.0149913
   9.6630034  43.6279106  39.5652056   9.4748816  44.2612505  40.2578259
  10.4828390  43.9337826  39.1771841   6.8749047  36.1114013  15.2302934
   6.7928458  35.8293595  14.3192770   7.4497510  35.4598577  15.6318809
   0.7065377  73.1349564  58.2399178   1.6473040  72.9655552  58.2898140
   0.3328261  72.3166227  57.9129744  70.6356684  55.6142770   5.0690033
  70.6551281  54.8357831   4.5124056  71.2580458  56.2161623   4.6608211
  19.4956049  57.6990906  51.1758947  19.1169151  57.0993737  50.5331135
  19.6588739  57.1536008  51.9453192  20.5118880  32.6110673  36.6358662
  20.0177321  32.3613238  37.4166799  21.3535723  32.1655774  36.7324400
  52.5125980  42.9263592  55.0088501  52.7454472  42.0174313  55.1982021
  53.0699444  43.4426737  55.5910969  54.1349506  32.6954651  35.9546351
  54.9462700  32.6348662  35.4503322  54.1787720  31.9618273  36.5678954
  65.2100277  44.8118305  51.4055157  65.4279423  43.9038944  51.6162157
  65.1908159  45.2564001  52.2529936  58.4009139   0.8021660   6.9079210
  58.6944263   1.6619034   7.2094776  58.5907142   0.2142544   7.6390602
  18.5608292  41.5944894  26.0240127  18.2653571  41.3124727  25.1583435
  19.5150519  41.5305756  25.9839775  77.8652191   9.2078191  12.8283119
  77.1385241   8.6736953  13.1490326  77.4623537  10.0434029  12.5922358
  48.4255251  56.8546239  43.9490128  47.6140054  57.3384932  43.7955809
  48.1642850  55.9341553  43.9221287  78.1409550  34.3270612  43.8175154
  77.6907301  34.8411560  43.1472635  77.7473307  33.4566855  43.7563801
  52.3903084  39.8070288  37.4170589  52.6449776  38.9595985  37.7820802
  52.2049522  39.6250343  36.4957809   4.5250083   5.5291828  39.3173170
   5.2734757   5.8592876  38.8202691   4.4063855   6.1654648  40.0225115
  37.9398124  24.4330306  41.0506298  37.2574346  24.9922843  40.6793739
  38.6730735  24.5127959  40.4405453  53.0938101  20.3994513  37.7794528
  53.7759829  19.7578573  37.9775190  52.6383114  20.5292606  38.6112595
  68.0367184  60.6130171  30.6355047  68.1551743  59.7112751  30.3370714
  67.1154308  60.8043623  30.4598570  40.0482465  63.7813149   5.4846765
  39.4451619  63.0944119   5.7687189  40.5204297  64.0292035   6.2795498
  59.7141600  42.6606226  53.8079929  58.9613056  42.5647640  53.2246876
  60.0338173  43.5476017  53.6427021  29.9086095  63.8654433  17.2030594
  30.2043343  64.7486149  16.9821693  30.0155640  63.3673631  16.3926746
  31.9077111  60.8424698  17.2951843  32.5751973  60.9488069  17.9729606
  31.1215115  60.5777322  17.7727272  55.2062194  17.6244540  37.6212265
  54.6240298  17.1838756  37.0022060  55.8516090  16.9585748  37.8585293
   2.4028143  39.1839886  47.1526909   3.0135474  39.7845793  47.5799274
   1.8587622  39.7471380  46.6021442  57.4973583  61.7030716  63.3018112
  57.3401880  62.5909948  62.9806852  58.3226204  61.4429331  62.8925323
  34.2147987  17.2824187  14.9586632  34.7874181  16.7962880  15.5519773
  33.4192149  16.7527814  14.9061395  15.7275996  25.8391333  39.0560460
  15.5260500  25.7101417  38.1292391  16.4571604  25.2437043  39.2276263
  69.9452209   0.8041861  17.7319658  69.5356369   1.6660070  17.8077269
  70.5887604   0.7817531  18.4401882  45.4005258  16.8222947   6.5653230
  45.4359262  17.7647967   6.4020254  44.6172874  16.7014737   7.1021416
  52.8811073   6.7938632  46.1268282  52.4534559   7.6442784  46.2275457
  53.0841064   6.7369384  45.1931334   4.9712118  43.9614296  60.4103756
   5.2182707  44.3905401  59.5911932   5.7729182  43.9639330  60.9333420
  55.3108263  57.1762180  30.6603551  54.4854593  57.6608229  30.6479216
  55.8288336  57.5673342  29.9568439  10.7624579  53.2485138   6.6236688
  11.6293765  53.5938738   6.4105846  10.9163285  52.6488803   7.3537351
  53.6681890  51.9602823  46.9561052  54.4285965  51.3837385  47.0310354
  53.3596659  52.0679426  47.8558016   4.5150694  24.0774298  40.5355978
   3.8829169  23.8820815  39.8438978   4.7459540  23.2219481  40.8976412
  65.4897881  29.8493004  56.6526699  65.9408998  30.5547404  57.1164465
  65.4964209  30.1230550  55.7354784  58.7699986   4.1388446  22.1730924
  58.7251425   4.0729862  23.1269717  59.6464252   3.8236919  21.9522023
  59.2979050  16.8545651  56.4870453  58.9720201  15.9579253  56.4091635
  58.5476637  17.4028766  56.2574244   3.7121519  51.0242271  49.9778605
   3.5385927  51.8774557  50.3754902   4.6232638  51.0755205  49.6889210
  77.3535395  50.1977396  60.9758186  76.4322567  49.9384880  60.9595108
  77.6775265  49.9857950  60.1004076  31.1555847  68.6323074  56.7697144
  31.6542944  69.3917719  57.0709324  30.7378372  68.9258769  55.9600592
  75.4002094  23.7056088  46.8312788  76.0565901  24.0665054  47.4272203
  75.5193853  24.1963410  46.0181284  26.7498335  34.8696780  32.7607250
  27.0187125  34.0462255  33.1679893  27.5513109  35.2155805  32.3680282
  65.5661265  54.9753915   5.7082750  65.9188429  54.6823977   4.8680498
  64.8224942  55.5311786   5.4751541  14.5998320  33.7118483  47.5741529
  13.9584860  33.2374406  47.0451498  14.3973002  34.6353865  47.4248505
   3.1850561  12.8575337  36.2366581   3.3140024  11.9133103  36.1469603
   2.3259672  13.0200279  35.8470511  55.5698919  62.2516394  55.3286743
  54.8988819  62.8910589  55.0896740  55.1383924  61.4030409  55.2290440
  44.2786233   4.9975486  10.2244713  44.6985643   4.6132417   9.4549324
  44.5521705   4.4378324  10.9511902  11.9776663  19.7580242  49.6482086
  12.5596747  19.9044335  50.3939056  11.1125502  20.0177598  49.9649811
  44.4762087  41.6292858  57.7989435  43.7416983  42.2007704  57.5750494
  44.2428732  41.2622833  58.6516428  63.5528469  39.0658712  62.0290518
  62.9291439  39.6890521  61.6563940  63.9986897  39.5569181  62.7192163
  13.5077421  28.3428712   0.4603864  13.0977313  29.1085954   0.0581552
  14.3103234  28.2084603  -0.0436209  59.1661835  26.1928749  55.1917028
  58.7620544  27.0495057  55.3298903  59.0543938  25.7378626  56.0263920
  37.9514043  23.1406970   4.7741606  38.2299297  23.3365007   5.6687643
  37.0311181  22.8914638   4.8589613  28.4904735   7.1147580   8.8541557
  28.1398790   6.4988704   9.4975807  29.3333594   7.3865933   9.2173149
  75.7391040   3.0554719  29.3107654  75.2404372   3.8665862  29.4090225
  75.1061122   2.4253769  28.9664699  41.5331984  14.8409915  28.7977338
  42.4340916  14.7521806  28.4867215  41.3414764  14.0030348  29.2188072
  75.1872063  35.5214405  57.0987892  75.1034164  34.7105932  56.5970564
  74.5197296  35.4508734  57.7812338  77.1372366  26.4094305  46.8451405
  77.7454424  27.0886374  47.1366787  77.6768208  25.8099914  46.3296223
  50.3724495  35.4641295   2.6868202  49.6140925  35.6606503   2.1368124
  50.9782211  35.0055970   2.1045639  57.4345350  28.8728523  59.6529388
  58.1727600  29.1066504  59.0902710  56.8169212  28.4342098  59.0678120
   1.3918099  42.7173662   7.6249880   2.0265707  42.5673342   8.3255601
   1.4434943  43.6574268   7.4522275   8.7196303   0.4336914  53.0637693
   9.5526458   0.1869759  53.4655762   8.3960486   1.1532053  53.6058235
  25.7937464  41.9425631  10.3548503  25.4913077  41.1445856   9.9212617
  26.7271647  41.9885683  10.1478636  44.4335366  12.5253662  60.4519653
  44.3428231  13.2041916  61.1207008  44.3835641  12.9989609  59.6216345
  19.9503836  23.7516379  63.1256294  20.8371863  23.7272739  62.7661562
  20.0683436  24.0227318  64.0360260  60.5966425  35.0087357  54.9679852
  61.3121700  35.4673409  54.5276022  59.9443436  34.8676515  54.2818069
  57.6782894  39.4483662  56.2030983  57.1994305  40.2593231  56.0320091
  58.5790491  39.6429372  55.9442377  57.2448874  40.2546930  11.4520633
  56.4268398  39.9589920  11.8515623  57.0362568  40.3519011  10.5229473
  21.6157755  25.3303409  55.7568502  20.9323630  25.1531410  56.4032030
  22.1891722  24.5650268  55.7986116  76.6599242  17.1350379   3.5068895
  75.7988898  17.0694537   3.0939152  77.2100417  17.5584216   2.8478386
  60.8690739  32.2060132  37.9974961  60.4306459  33.0532217  38.0765629
  60.4835367  31.6711330  38.6913943  47.4036455  27.4999785  44.3679237
  47.4425030  28.4487104  44.4888783  46.4802170  27.2803855  44.4915724
  12.4920798  71.6380178  11.1030580  12.6705218  71.9539653  10.2172996
  11.5391350  71.6776405  11.1840393  73.0638377  25.0023694  17.2072079
  73.6626689  25.5377717  17.7277614  73.2483928  25.2489038  16.3009025
  55.3396448   6.4519691  39.6937275  55.4677424   6.8820149  38.8482189
  54.5211825   6.8191713  40.0276470  13.1294156  57.7327024   5.0494911
  12.5974560  56.9374000   5.0768139  12.5098563  58.4413467   5.2232839
  47.4789016  19.7212167   2.5564148  48.3262651  20.1206107   2.3597004
  47.5603549  18.8202758   2.2435190  72.7497339  36.7064071  18.7696242
  73.2670832  35.9015799  18.7407362  72.7153301  37.0018053  17.8597951
  51.7328930  33.9456344  62.3812675  50.8384085  33.7890100  62.0786190
  51.9302225  34.8371911  62.0941782  64.6052790  18.0637300  45.5577755
  63.7283087  18.0088520  45.9374380  64.4533396  18.2107067  44.6242142
  52.8601551   9.8128688  38.4060931  52.5702858  10.7093728  38.2373118
  53.6220026   9.6965891  37.8383756  60.2481031  56.0625410  48.2293892
  60.8555555  55.5430889  47.7027035  59.9843979  55.4763556  48.9386702
  23.1338979  63.5905658  14.1489841  22.3014689  63.6505114  13.6802627
  22.9430581  63.9356957  15.0211670  55.1148462  17.8227091  52.2053242
  55.7280827  18.4165549  51.7722893  55.6707096  17.2394919  52.7221441
  -0.0851598  41.2209368  59.3702412   0.3016791  41.7366505  60.0777912
   0.2467999  41.6263819  58.5692120  20.6600508  30.0079489  54.6288443
  20.6678232  29.0625882  54.4789505  20.5629858  30.3880978  53.7557459
   0.3395638  37.2496009  36.9362855   0.3607449  37.5825453  37.8334665
   1.1878952  36.8219161  36.8194366  17.9796983  44.1682123  14.5377590
  17.6281453  44.8406910  15.1212122  17.6975728  43.3410536  14.9282028
  44.9582879  71.9293033   1.6517498  44.2715315  72.3771082   1.1577179
  44.5623473  71.7512857   2.5048496  24.8980459  26.2181449  11.1183119
  25.3278384  25.4887247  11.5649199  25.1424727  26.1134648  10.1987851
   4.2606100  29.9658346  63.3037853   4.5642409  30.2785540  62.4515867
   4.2569956  29.0121770  63.2215691  56.1664057  69.3484449  11.1932611
  55.5023718  68.6592817  11.2118649  56.8751287  69.0130520  11.7423129
  12.6610471  40.7215841   8.3893968  11.9850732  41.2060572   8.8632919
  12.3366547  39.8214112   8.3631565   3.2087359  12.9742777  33.2995439
   3.1686434  12.0434606  33.0799890   3.3277354  12.9914641  34.2491627
  56.9605780  35.0039339  53.3030939  57.0038223  35.4743719  52.4705982
  56.9767809  34.0791249  53.0567217  48.1779623  29.3589544  61.8577528
  49.0030241  28.9534354  62.1243238  47.7936697  28.7365723  61.2403440
  45.3427442  60.1494411  35.9893632  45.6886896  59.8312131  35.1555252
  45.3469881  59.3805746  36.5595007  36.9027917  20.1971717  10.9591533
  37.2510163  20.7756896  11.6376020  36.0381190  20.5557866  10.7592441
  22.4087207   4.8783393  16.2210514  22.4085633   5.1109691  15.2925541
  22.8779714   4.0449233  16.2590839  69.6613503  39.8574090  46.6740990
  70.4393196  40.3188658  46.3609600  69.9602747  38.9612436  46.8282557
  47.1157646  66.6529989   8.9016473  46.4546347  67.3255920   8.7380683
  47.7623272  66.7787647   8.2071185   2.0320559  46.3778953   0.7401945
   1.9481564  45.6534593   1.3601829   2.8568936  46.2091033   0.2848055
  50.4409075  49.4204521  58.3984613  51.2684727  49.6851921  57.9968643
  50.6775379  48.6990356  58.9813852  27.1030776  20.3605456   0.6288101
  27.5690429  20.9617276   1.2099172  27.0909564  20.8069511  -0.2178333
  63.7867451  55.3713131  44.5307112  64.5362568  55.3679752  45.1260710
  64.0694237  55.9114981  43.7927914  12.2264100   5.3084930  60.7100296
  11.7720223   5.5433258  59.9009466  13.1106902   5.0737556  60.4286385
  37.8760815   7.9260143  41.1164093  38.1863499   8.7527451  40.7469797
  36.9962979   8.1226715  41.4381886  31.5419993  70.8666945  59.0953875
  30.8919081  71.5685225  59.0630007  31.2549815  70.3074789  59.8172808
  73.7704372  44.5969963  34.6624851  74.4822693  44.0661764  34.3050647
  73.7869024  44.4179344  35.6026435  76.4780855  51.1758327  43.3748436
  76.9221687  51.2918472  44.2148209  76.0164976  52.0020962  43.2318211
  59.9060011  65.8304310  55.1460695  60.0528002  66.1267090  56.0443449
  60.0896215  64.8913240  55.1705885  66.4730740  20.6836605  33.8002777
  65.7017374  20.6126833  34.3626213  66.4590216  21.5882015  33.4874821
   3.2814726  18.3268178  24.7446108   3.0880770  18.7316012  25.5901742
   2.5402102  17.7430654  24.5833850  70.0590134   9.2156076  48.5849905
  69.8345566  10.0961697  48.2842255  69.2986107   8.6823231  48.3534145
   5.1712164  56.4110041  50.8034515   4.5384249  56.5334368  50.0957632
   4.6385130  56.3781166  51.5980434  29.0831916   4.1899486  19.6602966
  28.9587276   3.4128757  19.1154148  28.3152072   4.7328372  19.4822456
  19.5534262  52.0963287  52.8244352  19.2447695  52.5568008  52.0440960
  18.7614855  51.9387150  53.3384609  26.1955993  29.0286775   2.7414324
  26.8462817  29.7281165   2.8016903  25.9570996  29.0026088   1.8147852
  63.5016775  34.4348955  16.9552565  62.7048635  34.7053552  17.4115109
  63.5886717  35.0590086  16.2347388  63.7887859  29.0518451  58.4134388
  64.3716383  29.3926835  57.7349567  63.0924940  28.6073351  57.9298925
  72.4705935  18.2844365  28.2342148  71.8798685  18.6627936  27.5829649
  73.0002737  19.0228868  28.5348105  75.5275774  70.8619833  36.8435335
  74.5886230  70.7863522  36.6736031  75.9142542  71.0255194  35.9833169
  19.5201048  27.6775718  52.0165825  20.2970156  27.3791361  52.4894190
  18.9596113  26.9034171  51.9640541  72.5298722  50.0816266  63.0242268
  71.8567641  50.4340320  62.4420194  72.6285823  49.1693656  62.7517037
  17.1272501  32.7786112  50.3482962  17.3795161  32.1723485  49.6518517
  16.1862597  32.9050016  50.2266121   1.2623247  51.9128418  60.9336233
   1.7594370  51.9840813  61.7485094   0.4470381  51.4802742  61.1874533
  32.0440404  12.8089137  10.1779177  31.2050788  12.9944463   9.7560741
  32.6981132  13.1689258   9.5789005  14.0269408  47.7072430  53.7172747
  14.0056071  48.2474375  54.5071936  14.5841154  48.1935120  53.1095505
  54.9784517  54.9696589  47.5879908  54.3292141  54.2746210  47.6958847
  55.8218908  54.5228243  47.6599407  77.0706272  45.4327774  35.7756186
  77.3802805  44.5638704  35.5199814  77.6284027  45.6782389  36.5137672
  14.5781550  65.7049704  49.2901134  13.7840971  66.1820173  49.0489817
  14.8946413  65.3346968  48.4661198  75.5822515  56.3156700  53.9021540
  75.9917593  55.8998537  54.6608591  75.5977440  55.6419468  53.2223845
  17.2056135  56.8663168  42.9116774  17.7394423  56.1656284  43.2862377
  16.4986357  56.4106369  42.4547625  33.1608487  65.7935248   0.6481363
  33.9376355  65.6149422   1.1781790  33.2746888  66.6970001   0.3531696
  64.1346645  30.5480528  44.5962477  64.4231701  30.3102875  43.7150764
  64.3734455  31.4706683  44.6856594  54.5031309  35.3812146  46.7335749
  54.8684978  36.2585568  46.8476486  55.2680302  34.8139644  46.6366482
  69.6046400  49.4965076  20.6252146  69.2343330  50.2905178  20.2396560
  69.8816681  48.9721298  19.8738718   2.2732291  65.0678825  44.9630928
   2.5203547  64.9044704  45.8732891   1.8210921  64.2694092  44.6906185
  10.5054697  50.1021147  60.9406137  10.5479368  50.4556274  61.8291283
  10.4167971  50.8729696  60.3801250  39.4351499  15.3136296   1.5653898
  40.1015632  15.7459874   1.0313560  39.8998849  14.5934911   1.9915916
  39.5773856  28.5933728  10.7912685  39.6998708  28.8359876  11.7090751
  38.8568990  27.9633231  10.8041813  67.0620219   6.0949416   8.4911396
  66.5062492   6.7789121   8.8646747  66.6965644   5.9383006   7.6204302
  61.4913511  49.6580076  60.1926470  61.2412405  49.6853399  59.2691040
  61.0024405  50.3761148  60.5945444   1.0862669  24.1715598  13.1278229
   1.7918810  23.5576177  13.3313143   0.3624996  23.6167479  12.8369927
  22.4480725  39.5082225   7.4452211  21.9295693  40.2959339   7.2812225
  21.8598748  38.7848617   7.2284223  52.6454894  16.9266744  32.2912838
  53.2684438  17.6105065  32.5373318  51.9590680  16.9773955  32.9564812
  56.4111137  26.7576146  51.9500351  57.3004055  26.4108181  51.8784523
  56.2743092  27.2365904  51.1326599  52.4264765  57.7008963  33.3776093
  51.5109110  57.6449776  33.6511922  52.8828430  57.0739126  33.9387250
  18.7025008  47.3754263  63.8071537  19.0190062  46.4720774  63.8024759
  19.4459662  47.8880548  64.1244841  11.9744238   6.4543700  52.3518801
  11.3865885   7.2031504  52.4519444  11.4455065   5.6987542  52.6078463
  42.2480249  30.3936625  34.4215679  42.1270895  29.5318532  34.0229559
  41.3697720  30.7738185  34.4412613  62.7300119  41.4610004  27.4697447
  62.6949024  41.7020655  28.3954287  62.6607275  42.2936058  27.0026255
   4.2966875  23.4373236  15.9139740   4.5191416  23.3582973  14.9863434
   3.6769995  24.1659403  15.9504390  51.3287640  71.0874176  44.7585535
  51.9981909  70.8051634  44.1353083  50.7369566  71.6350651  44.2427254
  13.5499796  36.6327167  55.0309181  13.9922652  36.7850637  54.1958094
  12.6226839  36.7739034  54.8400831  15.3537115  64.9472380  46.8669653
  15.7402262  64.1099262  46.6105509  14.6457705  65.0868511  46.2380314
  67.7207565  52.2586584  58.8053894  66.9338560  51.7278290  58.9288282
  68.0881310  51.9530964  57.9759932  13.7500700  32.6756644  45.2432537
  14.2145571  31.9762301  44.7836065  12.9421267  32.7949691  44.7440338
   7.1033701  40.8329391  51.8932295   7.0249304  40.2163076  52.6211357
   8.0298266  41.0732889  51.8817139  62.0265341  47.8874636  39.8531461
  62.4073935  47.7823734  40.7250023  62.7595282  47.7490854  39.2533088
  32.3749542  68.9069605  62.6061583  31.9763303  69.7759914  62.5601482
  32.4247742  68.7155867  63.5427094  72.2897053  40.5801916  61.7399263
  72.8260136  39.7965860  61.8606567  71.7214298  40.6024504  62.5098610
  68.5312176  63.7067938  33.2963657  67.7200603  64.0412807  32.9137802
  68.4030771  63.7913084  34.2411780   2.7850676   5.1668533  62.9241371
   2.7883149   5.7124409  62.1376562   3.0869628   4.3100485  62.6225138
  38.4942166  25.5973716  23.5430481  38.1174676  26.4627690  23.7023689
  37.7382772  25.0121160  23.4954597   0.5768777  13.9577622   5.4633667
  -0.3465365  13.9642377   5.2113582   1.0226442  13.5358281   4.7288610
  59.4019556  52.0191431  50.5055666  58.5363722  51.8557501  50.8801365
  59.5614481  52.9489374  50.6676626  27.6014710  70.6681500   3.8180067
  27.9442216  70.8440434   4.6942570  28.3485604  70.3148066   3.3350660
  31.4280097  28.8444467  28.2796051  32.1692197  29.1369815  27.7492668
  31.6898505  27.9821153  28.6021854  49.8887539  49.9477386  12.2594798
  50.0490427  49.0222263  12.0751834  49.7170067  50.3364944  11.4018059
  62.2273128  24.2253490  16.2596657  61.6817062  24.1980643  15.4736664
  61.6811530  24.6588655  16.9154121   9.5685801  44.0164995  59.3626261
   9.0676626  44.5077181  60.0137901   8.9897570  43.2982349  59.1071081
  60.4329920  28.5893989  39.5046854  60.5392265  27.9775763  38.7762499
  59.8241663  28.1508160  40.0989962  45.7907264  17.7759595  34.2391445
  45.1218097  17.8089614  34.9230244  46.3262908  18.5547967  34.3901684
  44.2898417  69.3522024  48.2898998  44.3143511  70.3060341  48.3663082
  45.2017641  69.0801573  48.3929873  17.4471888  64.5303535  31.5900803
  16.6101488  64.2125273  31.2515831  17.4770674  64.2120838  32.4923229
  59.7254896  42.2348928  28.5514760  60.5962324  42.2102308  28.9482570
  59.7905445  42.9066133  27.8726602  69.1377115  28.9408398  39.5299840
  68.4132719  29.5479202  39.3787622  68.8340664  28.1098413  39.1646433
  71.7155758  68.1281935   6.8665602  71.3709656  68.3761083   7.7244713
  72.6644818  68.2180534   6.9545271   6.1937238  29.2917056   2.3490145
   7.0367147  29.0809484   2.7505018   6.0187150  28.5576720   1.7601206
   2.4094996  42.5568581  50.3431177   2.5360903  43.5011959  50.2512693
   3.2955107  42.2027445  50.4194498  69.9958467  54.3961811  37.1814299
  69.1626120  54.2623329  36.7297244  70.4641247  53.5687733  37.0703411
  16.2470628  22.9989704  61.2426233  16.2185956  22.0781502  60.9828091
  16.1652232  22.9814323  62.1961594  75.8833376  71.8672954  10.2271797
  75.5831591  70.9762631  10.0477650  76.7765776  71.8927489   9.8841049
  54.1102695  57.3569345  50.0274611  53.8614559  58.2812309  50.0295591
  54.9546862  57.3372316  49.5771265   2.8654036  59.7665739  55.2644444
   3.2355437  59.3597174  56.0478306   3.2535681  59.2813206  54.5363712
  63.1255976   2.5353464  43.8112259  62.8269855   3.0534967  43.0638409
  62.3748437   1.9862446  44.0372515  57.0927493   7.7331920  52.7519466
  57.7171199   7.6122136  52.0365764  57.1327178   6.9142051  53.2458069
  34.7319318  53.3078562  18.1464340  34.0035344  53.2972120  17.5254967
  35.4518224  52.8848325  17.6784183  15.4407248  63.7379551  44.1936684
  15.1952299  62.8229046  44.0571022  16.2100825  63.8649464  43.6385107
  59.3475676  55.8551693  29.8985219  58.7872839  55.0814629  29.9592447
  58.8192701  56.4967871  29.4236946  10.6961442  20.8546051  44.2509985
   9.9413157  21.3795074  44.5173550  11.0486222  20.5086502  45.0709391
   9.1243363  65.1859652   0.4431345   8.5244036  65.3597365  -0.2822016
   9.9852801  65.4345547   0.1066639  39.7180383  14.7671361  16.5339329
  40.5580966  14.3271012  16.4039184  39.5423047  14.6759505  17.4704315
   6.0839749  58.5343419   7.3284675   5.3692342  58.1038533   7.7975704
   6.8561269  58.0064474   7.5317861  57.4804306  49.3014050  29.5173812
  57.9879856  48.5919666  29.1232777  57.5970125  49.1842175  30.4602003
  71.8600193  62.6408516   5.5644848  72.3005549  63.4241854   5.8939506
  71.5222947  62.2082649   6.3487341   5.7369074  60.3671598  61.9318676
   6.1215720  60.7130957  62.7372217   6.4885363  60.0980234  61.4038038
   1.1976593  21.1031522  56.2853621   1.1328190  21.3480891  57.2084187
   1.8667572  21.6875304  55.9289227  13.2439709  65.0127493   2.4898340
  12.2915793  64.9302016   2.4411871  13.4287930  65.8759008   2.1196415
  62.9977179  53.1742811  13.3056724  63.7069416  52.5685596  13.0904078
  63.1906509  53.9602947  12.7946067   4.0306760  33.0048318  32.2901775
   4.7518159  32.8802724  31.6731979   3.3217432  33.3685250  31.7597248
   8.9881453  45.1306629  46.2660599   8.8340124  44.9149990  45.3462934
   8.9981303  44.2838526  46.7122030  77.6890182  43.4150743  39.0592194
  76.9248724  42.8765440  39.2648840  78.2901716  42.8177977  38.6141253
  42.6222007  50.8020539   6.4431001  42.4469535  50.3907819   5.5967094
  42.8266160  51.7124028   6.2292959  61.1549807  59.8657513  57.4098730
  60.8597851  59.8971128  56.4998674  62.0799017  59.6257925  57.3535061
  11.5985712  22.1813965   4.8033980  11.2119040  21.3206577   4.9641696
  12.2999510  22.2535872   5.4507697  13.7543441  69.8471461   7.7535393
  13.5335589  70.5212937   7.1108820  12.9209185  69.4174157   7.9458143
  52.8606956   8.1458039   6.4778044  53.4835736   8.8651223   6.3737108
  52.7978246   7.7553792   5.6061127  53.6882496  33.9233494  55.4116201
  52.8153515  33.9091778  55.8041477  53.8918686  33.0026388  55.2471161
  62.4219196  14.8957343   3.6787702  61.9751994  14.1185136   3.3432199
  63.2804649  14.5770116   3.9572622  41.9597721  14.1742206  63.2143307
  42.0152760  13.2194519  63.1747389  42.3838234  14.4723606  62.4096394
  66.9211054  29.9573588  37.8754234  66.3830566  29.2997599  37.4346280
  67.4328041  30.3582835  37.1728182  75.4103533  69.0993248  10.0028803
  76.0880677  68.4370624  10.1383259  74.7392336  68.8916884  10.6530477
  64.8194186  17.3673339   8.1410744  65.6651656  17.2311635   7.7139904
  65.0369041  17.5150151   9.0614654  16.6067251  71.7619324  49.5560694
  16.0447344  72.4020243  49.9927282  16.2343439  71.6754675  48.6785173
  40.1449490  13.6398757  51.7219734  39.5725250  14.3428361  51.4147091
  41.0283947  14.0008450  51.6481018  68.3238697  19.2783177  58.1584978
  69.0362835  18.6593378  57.9986048  68.0267715  19.0775037  59.0459871
  53.5080624  70.6511736  35.2099061  53.7699223  71.5412760  35.4452467
  54.1943789  70.3489828  34.6150231  78.1713104  51.2672234  53.5758162
  78.3241940  52.2120619  53.5637903  78.2139635  51.0059690  52.6559496
  74.5097876  21.4672017  33.4381080  74.7306252  20.9274101  32.6791048
  75.0653362  22.2417974  33.3509207  25.6038062   2.8369136   3.6869051
  25.1566522   1.9952269   3.5982992  25.3069608   3.1781907   4.5304920
  73.4669018  42.1055555  54.1704130  74.2909908  42.1970606  54.6486759
  73.7227345  41.7547846  53.3173370  37.5151349  70.8146392   3.5816433
  37.2562218  70.5832516   2.6896478  36.7955971  70.5002771   4.1290666
  14.6269736  44.1928720  60.6398630  13.8220534  44.2987490  60.1327944
  14.3957266  43.5701561  61.3290501  75.2182865  34.9912143  37.3336840
  75.8294153  34.6356010  36.6884780  75.0439739  34.2603612  37.9267263
  40.9856558  68.1858253  56.5241194  40.9177065  68.8045216  55.7969141
  41.3824511  68.6920547  57.2330046  16.7788649  65.1396261  12.0877983
  16.7728425  65.7606445  12.8161766  17.7057982  64.9506341  11.9418432
  10.6363965  68.6547862   2.2114946   9.9157382  68.1905018   1.7856695
  11.0280038  69.1804706   1.5139772  16.6069413  72.9985009   2.4658682
  17.0094014  72.2842728   2.9599668  17.2323800  73.7197982   2.5350763
  54.5054245  70.2823544  58.9513254  54.1329813  69.8772621  59.7345352
  54.8663950  71.1133766  59.2600775  78.2954550  54.0171289  18.5999274
  77.4781752  53.5189152  18.5912621  78.4130669  54.2684269  19.5160329
  46.6858006  47.1947193  51.2090588  46.8559647  48.0623722  51.5757370
  46.5392351  46.6365051  51.9726992  49.5672147  18.6671825  29.9181415
  49.6355979  19.3186755  30.6160785  50.0061242  17.8925891  30.2697136
  75.8068323  34.0653872  32.6359105  75.4716110  34.6736217  31.9771934
  75.9024906  33.2353616  32.1688581  17.4814940   6.3771709  57.5038815
  17.3084784   5.9400209  56.6700983  17.9764748   5.7351049  58.0127716
   0.6672797   9.8390520  56.9468117   0.6845316  10.6452906  56.4311409
   0.8348545  10.1253808  57.8446770  71.0330168  13.4644875  60.2316141
  71.9638983  13.3475098  60.4213524  71.0144583  14.0546307  59.4782114
  53.2940675   2.7635654  28.3849025  52.8494836   1.9805988  28.0600309
  53.5254002   3.2526573  27.5952792  67.7779627  11.0296702  46.2358570
  67.3202276  10.2192283  46.4592314  67.8465748  11.5024209  47.0653343
  14.2582703  46.7198370  22.0198299  15.0249148  47.2924994  21.9964268
  14.3910838  46.1119728  21.2924434  65.2064466  50.8935070  58.8565779
  65.3321743  50.6899309  57.9297638  64.4729662  51.5083838  58.8693857
  59.8687967  15.4567517  62.2384354  59.7181543  14.6332444  61.7743544
  59.4616922  15.3269280  63.0949663  77.2347069  38.8886404  49.1155720
  78.0539751  38.4301233  49.3021107  77.5071478  39.7657418  48.8459396
  36.0715167  15.0280709  13.2105114  35.2514188  15.4086013  12.8960707
  36.6417997  15.0194259  12.4417879  45.4929273   4.2346807   4.4120409
  45.4467933   4.7982259   5.1843883  44.9674623   4.6881909   3.7529136
  73.3274174  62.7380466  49.7318697  72.4146509  62.7432299  50.0200844
  73.7670183  63.3544683  50.3175354  61.9561578   4.2067989  48.6528397
  61.9187737   4.0387711  47.7112436  61.3859559   3.5412487  49.0377283
  21.6163827   9.0754589  48.1294250  21.5702344   8.7814316  49.0391731
  22.0407248   9.9322018  48.1758404  77.3761988  58.0829430  63.2586384
  78.1808472  57.6304293  63.0056620  76.7788935  57.9376507  62.5249195
  77.6927900  51.5458012  41.0605860  78.3317995  52.1692944  41.4057779
  77.0416307  51.4599562  41.7569017  17.7722868  68.6016178  47.1812057
  17.6785406  69.1050673  46.3725138  16.9102225  68.6494970  47.5944471
  33.3315564   2.9460320  10.9583282  34.2721558   3.1202444  10.9924364
  32.9244424   3.7889656  11.1582088  11.8297037  69.4074392  52.3101854
  11.7090449  69.3888569  51.3608027  12.4371466  68.6894941  52.4885225
  76.5232325  11.7279208  13.6239696  77.2698450  11.7866921  14.2200840
  75.7572460  11.8318260  14.1885042   6.0350451  51.4750862   0.5586534
   6.6410574  50.7423496   0.6685722   5.4126295  51.1739063  -0.1032538
  49.0962983   4.9897942  53.0389309  48.4006024   5.6265959  53.2024193
  48.6557770   4.2605289  52.6026344  78.1275749  42.5142050  62.5758362
  77.4182558  43.1477022  62.4672842  77.7322960  41.7938519  63.0668306
  52.1173891  59.0304783  47.1073103  52.4138912  58.1500033  46.8769217
  51.4191612  59.2197469  46.4805031  62.3815060   6.7675281  39.4481945
  62.0574665   5.8782470  39.3053317  61.7615318   7.3264939  38.9797759
  70.5168914  68.7963251  36.8300319  70.5574333  69.1947443  37.6994276
  69.9604594  68.0260423  36.9452786  57.3363113   1.3114430  62.9444790
  56.5414524   0.9313276  63.3185768  57.0249653   2.0483474  62.4188709
  76.3024012  18.4938346  11.0926964  76.8176905  18.0634819  10.4104139
  76.5145794  19.4228982  11.0029461  52.6416484  20.7489990  11.2321712
  52.8298227  20.9435140  12.1503164  53.1797949  19.9824582  11.0345747
  13.3469328   3.8357675  54.9233770  12.5159869   3.5061255  54.5811749
  13.0948195   4.4758040  55.5889750  12.2629309  34.8627053  13.6803057
  12.8781701  34.8842558  12.9473354  12.2490359  33.9457114  13.9544632
  52.5876220  68.2758662  45.4930115  51.8770393  67.6434419  45.3865051
  52.5570615  68.8067451  44.6971035  15.8392747  68.9927620  31.7274189
  16.4197811  69.7537244  31.7409325  15.8309825  68.7140707  30.8117247
  52.7248224  69.3456018  61.0837841  52.5185617  70.0845597  61.6561747
  51.8749603  69.0533063  60.7543564  11.1205197  23.7305866   8.9217521
  11.4044762  24.4453298   9.4916155  11.1472560  24.1021954   8.0400326
  74.5569102  48.4565745   6.6533043  74.2058293  48.2539748   7.5204422
  75.5068079  48.4444271   6.7706682  18.3356317  68.1289092  52.8135824
  17.7635845  68.7015853  52.3026609  18.6836465  67.5065205  52.1750307
  18.5915598  13.3939981  25.7757092  18.1560931  12.5450826  25.6985712
  19.2274126  13.4029019  25.0602794  15.6949187  45.8195965   2.8009083
  16.1636735  45.0710623   3.1699611  14.9657250  45.4309951   2.3177006
  37.5916799  59.8242167  25.4465675  37.3346265  60.2820435  24.6462250
  36.9561323  59.1134027  25.5305362  66.9547558  28.2596755  53.4938622
  67.3903513  28.0656576  54.3238306  66.3138342  27.5564098  53.3896112
  35.3561473  18.9821017  37.1320987  35.6870794  19.7577870  36.6792989
  35.2464938  19.2635334  38.0403948  74.7768816  63.9308873  51.7703962
  75.2456411  64.5535997  52.3260260  74.4789060  63.2494167  52.3729229
  77.6268815  68.2900217  60.6716871  77.8226280  68.8346592  61.4341068
  76.8404459  67.8041289  60.9199953  59.2372799  12.7705812   0.2778306
  59.2525053  13.7263465   0.3279572  58.3129358  12.5516129   0.1600498
   5.4838864  46.5878903  56.9158105   4.7628753  46.3141106  56.3488726
   5.9880082  45.7880526  57.0653198   6.2109980  20.2779698  24.2735696
   6.8333945  21.0050869  24.2607903   6.7244276  19.5183575  23.9985943
  40.1520189  69.5119429  50.3679085  39.5038160  68.8082233  50.3389120
  39.8260053  70.1103255  51.0401344   5.9964022  11.2676060  38.4851599
   5.2200636  10.9405601  38.9396644   6.5925154  10.5190957  38.4603477
  11.2355138  46.9831292  12.7507116  10.4339648  46.6010068  12.3933126
  11.7926980  46.2301390  12.9476406   0.0488028  10.1304567  16.9278586
   0.5811104  10.2752984  16.1456168  -0.1650873   9.1977990  16.9026983
  37.9166397  72.4924811  33.3250475  38.6298736  73.1308516  33.3218169
  37.8922590  72.1651376  34.2242050  73.8368893   9.3998480  25.6541157
  74.0907192  10.3213573  25.6029081  74.5480299   8.9309138  25.2175236
  59.2617226  13.1809628  60.9771872  58.4063721  12.7609515  60.8866358
  59.4596004  13.5126364  60.1013613  58.0332994  21.7212749  17.0636249
  57.8490973  20.7846856  16.9921732  58.8963175  21.7649150  17.4753594
  12.1873698  14.5724046  30.0088573  11.5346464  14.0125859  30.4293156
  12.0000586  14.4975507  29.0731525  28.2237340  46.4357357  22.6216175
  28.2464600  47.1536420  21.9889023  29.0952588  46.0432921  22.5699760
  49.7346576  64.8981741  32.4759150  49.0372833  64.8755655  33.1311941
  49.6789583  64.0491137  32.0374799  67.2801224  42.6336114   1.6711761
  66.9152371  41.7996086   1.3753177  67.9200999  42.8670476   0.9987404
   7.8842291  24.3907428  61.3810158   7.4658808  24.4567680  60.5226135
   7.1556982  24.3691802  62.0015001  63.7499809   0.3130047  39.3606782
  64.6751022   0.5508173  39.4226122  63.5100889   0.5175464  38.4568834
   6.1253747  54.6674446  35.2273536   6.9025739  54.8309997  34.6930861
   5.3969964  54.7012058  34.6072268  71.0410690  18.6238313  37.0593381
  71.3744783  17.7951944  36.7152047  70.3013277  18.8388157  36.4911866
  57.5428518  69.5480118  15.0004113  57.7477106  70.4202506  15.3372586
  57.6564439  69.6243507  14.0530467  39.2725738  70.4675693  54.5373678
  39.2701133  70.8962912  53.6815500  38.4291156  70.7014197  54.9248266
  38.8052496  68.7603417  27.7801847  39.4437536  68.4382603  27.1439409
  39.3355688  69.0938610  28.5038924  40.3366948  48.4514330   7.3070432
  40.0506020  48.6024152   6.4061643  41.0443974  47.8115974   7.2295477
  35.0755914  72.6836384  36.0758400  34.7067293  72.3028696  35.2788520
  35.9833988  72.3803810  36.0882330  13.1427527  71.3146220   5.0620128
  12.5144816  71.5782677   4.3897058  12.7374554  70.5575596   5.4848863
  33.8944316  18.3105278  56.0887671  33.1745076  17.8963256  55.6129694
  34.0229940  19.1493118  55.6458855   9.1424212  28.2292628  46.4505100
   9.1364130  28.0949903  45.5027914   8.9664873  27.3624039  46.8163490
  53.7596607   4.2974207  60.8688784  54.1441345   3.4261882  60.7721090
  54.4721985   4.8369521  61.2115479  38.2813954  17.6916921  47.3725080
  38.6434436  18.2129300  46.6559410  38.7644887  16.8661475  47.3360252
  35.7698894   3.5184264  51.0560894  35.5800986   4.4176203  50.7883930
  36.7097211   3.4170127  50.9055376  39.7979641  23.8173676  33.0870152
  39.1019177  23.7175012  33.7364602  39.3523097  24.1485167  32.3072934
  43.0298122  71.4821510  30.4969931  43.7277492  71.8268818  29.9399686
  43.3931001  71.5117474  31.3820791  53.4353590   7.5792867  40.9259510
  53.8498116   8.2938665  41.4095163  52.4966288   7.7176523  41.0519361
  57.6480818  10.6019711  37.5380564  58.3949232  10.1406944  37.9197383
  57.4387217  11.2861454  38.1739068  11.7327850  62.0945601  63.3393084
  10.9578673  62.3193579  63.8542845  11.9759528  61.2196307  63.6419572
  58.3194399  35.3682065  16.9113672  57.8603935  36.1977673  16.7797005
  58.0632973  34.8311019  16.1616063  27.8914357  68.1153809   8.4025432
  27.4753857  67.4301253   8.9255716  28.8025475  68.1207071   8.6959459
  63.8149889  39.9041815  58.8375102  64.0030463  40.4874082  59.5728419
  64.6417458  39.8486765  58.3583168  68.6329683  66.7597726  37.5723410
  69.3251546  66.3797024  38.1133199  68.1594785  66.0044530  37.2237253
  46.4710236  62.9582845   3.9706804  46.6250993  62.7308594   4.8876144
  46.7676163  62.1914111   3.4806063  69.9492645  23.7474537  20.8701348
  70.4055643  22.9408336  21.1096954  69.9202633  23.7311602  19.9135137
  66.1053944   3.7000328  10.7488215  66.9703293   3.7660518  11.1534929
  65.4924679   3.8630134  11.4657533  74.2693901  17.3124850  56.5712547
  73.7498093  17.8277397  55.9541798  75.1606083  17.3504663  56.2240934
   0.9972557  33.6712313  38.5816813   1.2319168  34.4309425  39.1146040
   0.3599819  33.1937194  39.1128111  26.3083681  30.1236701  43.0793571
  27.1421274  29.8448277  42.7007818  25.9780344  29.3464208  43.5299063
  70.8216000  14.4617879   8.8165742  70.8312368  15.3322816   8.4186029
  71.3191223  14.5638454   9.6279240  55.2998304  15.2044880  48.8073635
  55.6451321  14.3830824  48.4576607  54.6123886  14.9352372  49.4165945
   9.3786272  24.2320395  13.7851524   8.9231047  23.6501241  14.3935215
   9.8333678  24.8585701  14.3480861  39.4363379  10.4738224  43.2585382
  39.4649148  11.3333559  42.8382826  38.6290336  10.0751102  42.9336977
  46.5565475  52.7444950  56.5146971  46.0752662  53.5071746  56.8355131
  47.4778398  52.9746285  56.6350746  42.8569031   2.4372233  29.2434740
  42.0208073   2.8408331  29.0105009  42.7127314   1.4990762  29.1196752
  57.6416159   1.5849407  12.4288476  58.2773161   1.8665737  11.7709732
  56.9822502   2.2787696  12.4372172   3.0829462  10.7346904  43.9427185
   2.7333483  11.5737736  44.2426300   4.0109286  10.9056067  43.7818384
  33.5402330  66.5777281  61.7557430  33.4200605  67.5265435  61.7949820
  32.6510795  66.2233058  61.7600346  58.1947374  25.2557445  12.3086238
  57.8668499  25.1082349  13.1957340  57.8657246  24.5113349  11.8048024
  37.9966737  50.0815164  15.2459099  38.5011101  49.4011770  14.7999050
  38.4625149  50.8938669  15.0476362  49.7414446   5.0992411  57.3624277
  48.9568329   4.8106620  56.8962288  50.0794983   4.3053070  57.7766991
  51.5629721   2.4623305  16.0501063  52.1435165   3.0636129  16.5166438
  50.8577776   3.0186298  15.7192516  60.9578546  62.4576071  50.1093769
  60.8846983  62.9415968  49.2867994  60.2234872  62.7706102  50.6375599
  14.1164239  73.2371307  55.1852036  14.1591962  72.4980663  55.7919884
  13.4715279  72.9717060  54.5295477  24.9312624  23.5039926  61.3142300
  25.5627665  23.7878299  61.9751930  24.7021994  22.6104736  61.5699291
  48.6340237  17.3768294   1.9386372  47.8537416  16.8239105   1.8977445
  49.0209246  17.1823311   2.7922812  68.9546633   4.6136943  35.4336405
  69.2108965   5.2491695  36.1020303  68.0349636   4.8106781  35.2559304
  36.6597208  59.1442827  12.8415060  36.7309173  58.8444391  13.7477386
  36.5390714  60.0912765  12.9113328  73.3823586  44.1003799   4.8777911
  72.6221228  44.2191553   5.4471403  73.8332319  44.9444199   4.9010810
   2.7502665   5.3955126  27.8259706   3.4350046   5.3232837  28.4909129
   2.2673830   4.5714420  27.8889346  35.2073892  71.5706833  55.4163742
  35.7150825  70.7740859  55.5710220  34.3052324  71.2651244  55.3216267
  28.2158931  69.1261351  50.2665377  27.6392349  69.2720536  49.5166016
  27.8508218  68.3565477  50.7032204  23.3749136   7.6521146  50.9459257
  22.5958285   7.0960039  50.9461927  23.3299765   8.1277341  51.7753792
  48.3023024   7.7798420  22.2064018  48.5248804   8.3786690  21.4935923
  48.8879299   7.0327711  22.0832872  62.9405499   9.6823734  47.6982880
  63.5803318   8.9709544  47.6700830  62.1152544   9.2727214  47.4388695
  72.0619360  35.5501695   5.9183504  72.2627179  35.7182588   6.8390371
  72.4222008  34.6795336   5.7497265  31.3132795  74.0170578  51.5343428
  30.9917387  74.3938559  50.7152796  32.0534166  73.4697423  51.2719059
  54.1570377   3.9527199  41.8665171  54.0947390   3.8986421  40.9128809
  55.0774908   4.1539329  42.0353842  49.9496508   8.1197459  19.8321033
  50.7634306   8.3037400  20.3012991  50.0577688   8.5536832  18.9857936
   9.0667662   8.0474418  42.4715376   8.6751017   8.6015826  41.7964315
   9.8199877   8.5480362  42.7850533   3.1147227  16.5564871  46.1233425
   3.7819704  16.0314643  46.5653467   3.6037669  17.2707641  45.7148361
  41.3619804   8.9064914  24.4397426  40.5242825   8.5222322  24.1812015
  41.8021822   8.2129014  24.9310541   1.5116867  47.1985388  59.2044306
   1.3462052  46.2971830  59.4808435   2.4126753  47.1884060  58.8813829
   0.5358538  25.1196671  34.4780707   0.7198128  25.4351687  33.5932827
  -0.1273409  25.7224822  34.8142529  76.4954996   3.3903942  40.9087610
  77.0691586   2.6604822  41.1419535  76.8191195   3.6870879  40.0581884
  45.9899616  10.5311608  43.6899996  46.5960073   9.8705065  43.3546209
  46.5556383  11.2168038  44.0451527  11.9112206  24.7891866   6.6386940
  11.4753533  25.3708409   6.0158541  12.7692462  24.6209239   6.2491895
  54.2109060  10.1922452  50.3734064  53.8624811  10.4429126  49.5178366
  53.8264132   9.3328553  50.5461645  76.4790932  73.4799181  18.3632805
  77.0559803  73.1820928  17.6599171  76.3939969  72.7212320  18.9406826
  53.4596205  31.7692018  50.3462362  53.1496143  31.0468912  50.8924913
  52.6801491  32.0659304  49.8765469   5.2578196  14.9712551  43.5569429
   5.1848826  14.2067111  44.1282415   4.3642554  15.1283681  43.2518196
  53.6280918  27.1762323  42.1262121  54.1327381  27.2071314  42.9389906
  52.8878546  26.6030431  42.3255396  66.1071301  12.9687572   6.0256255
  65.6863022  12.1693361   6.3419491  66.9309998  13.0138373   6.5108454
  77.1153163  60.8868912  63.9016628  76.9601487  59.9524525  64.0394258
  77.8363847  60.9198204  63.2730103  67.5356674  13.9762926  43.5313177
  66.7760849  13.3938301  43.5310841  68.2395983  13.4517550  43.9128590
  47.6948071  16.4601421  12.3882318  47.7236032  15.7552075  13.0351233
  46.9101238  16.2786388  11.8709671   1.4785466  29.0570068  58.9089441
   1.5596995  28.1595397  59.2317390   1.4931711  28.9709377  57.9557371
  59.0945466  69.1006379  61.1945866  58.7951691  68.3656244  60.6594608
  58.6986573  68.9489894  62.0527862  28.1171577  70.6833987  62.4159848
  27.8921954  70.1075702  61.6852019  28.2297580  70.0925546  63.1606032
  49.0472174   3.8328367  32.8893876  48.2181215   3.5154697  33.2473040
  48.8194656   4.1755483  32.0251489  71.4337301  27.4135017  33.4131527
  70.7292652  26.9363022  32.9747033  71.0331488  27.7480412  34.2155552
  26.0256768  29.8377358   9.1812183  26.2434626  29.0450464   8.6908676
  25.6100941  30.4111450   8.5372259  43.4431554  65.0356232   0.1740600
  43.4129143  64.8013483   1.1016514  43.5163308  64.1974579  -0.2824019
  38.2323631  70.8961526  63.4342051  37.3589643  70.5798376  63.2032204
  38.1931051  71.0387707  64.3799019  26.3790163  53.3512560  58.4451389
  26.8678983  53.1465617  59.2422104  25.4685052  53.4173647  58.7329483
  25.6147528  22.8692627  43.0033684  25.4534435  23.2235360  42.1288967
  25.7554865  21.9333220  42.8604031  10.0218615  27.4911022  43.8382435
   9.1521296  27.1383834  43.6501455  10.5135664  27.3610640  43.0273533
  37.3131180  33.0304837  33.1170249  37.9354024  33.6973643  33.4073114
  36.5228438  33.5217810  32.8926873  70.0642014  34.4832683  38.4899330
  69.3178988  33.9824605  38.1606126  70.3584766  33.9963388  39.2596984
  70.8845091  30.5873251  38.3735943  70.3462219  29.9057889  38.7760663
  71.4190865  30.1216912  37.7304435  47.4901533   7.0485485  48.1494093
  46.5842628   6.7639542  48.0285645  47.5546169   7.8616399  47.6484489
  10.5321154  15.7547438  15.2545547  10.7906279  16.1927581  16.0654449
  10.1533827  14.9237800  15.5414248  11.7361483  14.1573381  27.1725273
  10.9280237  13.8022494  26.8022895  11.9164690  14.9382591  26.6491938
  35.9853682  19.7072351  39.8406458  36.3410506  19.9948788  40.6814718
  35.7537016  18.7890232  39.9801016  77.3056825  70.8531480  63.2168452
  77.9418214  71.5134768  62.9420304  76.4543231  71.2667494  63.0741715
  39.2096456  73.0609325  41.7520046  39.5101961  72.6128735  42.5426626
  38.2546075  73.0213577  41.8026543   4.8131213  46.5739536  15.8581996
   5.2460989  47.2433901  16.3879311   4.0282759  47.0059013  15.5210388
  58.4363937  21.9805861  39.6215129  58.3004808  21.0366940  39.7041631
  57.5530434  22.3476458  39.5870066  70.4660034  51.0617542  31.6041613
  71.2166452  50.6191444  32.0002198  69.7640038  50.9649754  32.2476363
  24.2127832  56.9650761  44.8587513  24.8068365  57.4606136  45.4224682
  23.3854803  57.4445513  44.9023914   3.3077177  18.9924228  56.6156483
   2.5530752  19.5081282  56.8998861   3.7670073  19.5607424  55.9973431
  43.7823486  18.2685339  29.9216723  43.7791729  17.9103792  30.8093381
  43.1105852  18.9502621  29.9360585  31.4980030  14.3363631  51.1405277
  32.2154021  14.3413043  51.7742014  31.9088221  14.0774441  50.3156519
  62.0072031  32.9583716  58.5136747  61.4690876  33.7315464  58.3437872
  61.3841248  32.2319341  58.5306644  17.7897835  56.3120805   2.7981426
  17.0360232  56.6816019   3.2580711  18.2014514  55.7330142   3.4395792
  39.1592860  28.4778023  21.7240262  38.2110286  28.5783172  21.6407371
  39.4309354  29.2139387  22.2722411   4.4155360  52.4745737   3.6657574
   4.0647746  51.7532550   3.1433632   4.3092108  53.2466148   3.1099893
  37.5982285  10.2931190  22.1750307  37.8764725  10.9664059  22.7959156
  37.3555064   9.5471328  22.7235031   6.6573939  24.8638201  21.8724966
   6.2668356  25.3625965  22.5900745   5.9163698  24.6251011  21.3156080
  53.4061416  69.7102249   8.2186705  53.2843002  70.3892532   7.5551152
  54.1760381  69.9929938   8.7121648  78.4381914  34.7566795  33.3670211
  77.4897432  34.8242664  33.4770536  78.5688353  33.9178443  32.9248452
  33.1042767  17.4514461  36.6920233  33.3232999  16.5204680  36.6527581
  33.9328432  17.8839207  36.8986034  54.6595192  21.9227147  41.3987350
  55.0906181  21.0696387  41.4501810  53.7720156  21.7623043  41.7194128
  44.0895494  65.6912974  60.4349947  44.1352304  65.4667673  59.5056248
  44.3440231  64.8875943  60.8883572  66.7505375  35.9672558   6.9135095
  67.4135462  35.5932073   7.4938013  66.3687865  36.6857603   7.4177410
   3.5171923  10.1380920  35.8518887   3.9349112   9.3082458  36.0823107
   2.5806555   9.9733347  35.9613752  38.4953102  62.3775474  43.0462599
  38.9360508  63.0522493  43.5627460  37.7687820  62.8357283  42.6238203
  58.5104561  29.9281573  35.5648351  58.1291866  29.5622039  34.7667480
  58.3636427  29.2560792  36.2304091  76.0960627  31.7181444  43.4440088
  75.1469374  31.6061997  43.4974623  76.3956261  31.6595173  44.3512344
  51.4224895  58.1593648  26.8470621  50.6336292  58.6755970  26.6814208
  51.1284097  57.2498325  26.7970586  10.1176676  33.2897210  23.7467027
  10.3801951  34.2084575  23.8035655  10.4337534  32.8994274  24.5615602
   6.7589983   2.2040181  58.9071417   6.7114004   1.2792951  59.1497374
   5.8770212   2.5394857  59.0677929   2.1407446  10.0187099   6.2346447
   1.7917284  10.3282404   7.0704746   1.3815245   9.9947447   5.6522024
  19.2957481  21.3493146  40.3489326  18.5002025  21.8297185  40.1196955
  19.3836483  21.4688767  41.2945603  34.3857750  69.4718886  59.8841524
  33.4634145  69.4089306  59.6361256  34.8110517  69.8716465  59.1254902
  63.4277391  21.4255095  18.9415479  63.3854389  21.3375354  19.8937583
  64.1842747  21.9911003  18.7866426  19.7601192  41.7108424  63.2454464
  20.4997747  41.6942848  63.8527950  19.4150655  42.6011662  63.3124628
  68.2771301  12.5485277  27.5454879  67.8269720  12.9929852  26.8271232
  69.1413689  12.3372769  27.1923566  68.9382267  41.1667633  33.6720395
  68.6363888  40.8455706  34.5217204  69.3835497  40.4171562  33.2770538
  77.0539331   3.3183891  17.0981145  77.0860577   2.4221398  17.4326849
  77.5069952   3.2760650  16.2559891  53.6663612  58.8653019  28.7480545
  52.9005989  58.6840239  28.2031035  53.3434518  58.7937740  29.6463013
  74.8151493  22.4056673  52.4778652  74.6095276  22.3751283  51.5435123
  75.1010942  21.5169930  52.6893520  58.9453077  14.0581751  16.4221323
  58.5061312  13.2076836  16.4262938  58.3069992  14.6592307  16.8062210
  17.7733708  40.6347774   7.4223234  17.6514006  40.4836606   8.3596136
  17.3752928  39.8719649   7.0029356  16.8418249  11.0795486  46.3666487
  16.9980368  11.9128454  46.8109941  17.6636347  10.5985081  46.4638805
  57.2002649  51.2070847  51.8402338  56.5145779  51.8724871  51.7826796
  56.7363214  50.3758144  51.7403603  67.8798294  18.6601365  32.4025750
  67.2409058  19.3159115  32.6817989  67.6067495  17.8562450  32.8446364
  30.8002282  51.0481654  24.9992992  31.3564206  50.3923486  25.4197647
  31.2682915  51.2805162  24.1973163  49.7014046  40.8378480  -0.3073548
  49.7386266  41.7883228  -0.2003811  49.6989442  40.4961066   0.5867578
   8.9102206   4.1349933  59.7790337   8.1363615   3.5718492  59.7633839
   8.5585055   5.0251997  59.7868872  68.8171577  45.8872128  20.5482793
  68.9869547  46.6226578  19.9596143  69.6820831  45.6338310  20.8706570
   4.9305662  39.3367124  25.4172134   4.9639544  40.2883196  25.5149889
   5.6001410  39.0105224  26.0184646  72.1632195  18.8984764  39.5444417
  71.5582037  19.6226263  39.7050381  71.9763041  18.6248732  38.6464238
  37.8709953   0.3019543   1.1900951  38.0202501  -0.5808620   1.5286066
  36.9980066   0.5351515   1.5059139  76.2517309  53.2530737  47.3163128
  76.5926933  52.7726746  46.5618610  75.4543924  52.7825689  47.5594378
  13.6770154  67.1941505  22.3880722  14.1061211  66.3388072  22.4101688
  13.8287402  67.5153361  21.4992191  27.9556466  63.8888727   1.5946867
  27.9759885  64.0149222   0.6460430  27.5683547  63.0215322   1.7128088
  21.1436877  25.9300518   4.8281860  20.3168425  26.4097118   4.7782570
  20.9895071  25.1334572   4.3203461  72.4783564  16.5294003   0.6102733
  71.9979239  16.6822827   1.4239350  71.9554663  16.9659030  -0.0622487
  68.7993193  21.6460395  35.2372360  69.2416477  20.8274484  35.4619288
  67.9784775  21.3705444  34.8291349  62.5603867  22.7045798   5.7825577
  62.9803085  22.2103810   5.0785232  63.0627918  22.4797487   6.5656751
  52.4603542  61.8673137  52.5826454  52.6346286  62.7495662  52.9105043
  52.3219522  61.9840840  51.6427326  55.3968938  43.0751339  35.8774137
  55.9712061  43.8064209  35.6502199  54.5211633  43.4600416  35.9117460
  72.1022654  38.3630848  58.0916691  71.8032837  39.2136550  57.7701569
  71.9703150  37.7681446  57.3535204  10.3336844   4.2550871  29.2077875
   9.5133433   3.7632576  29.2448568  10.3718409   4.7205567  30.0433207
   8.3232363  73.0839884  30.8747339   9.1082939  72.5415768  30.7992077
   7.7660354  72.6138288  31.4949846  16.4847852  69.3600451  12.8071739
  16.9764996  70.1101862  12.4729063  15.5852319  69.5159017  12.5195314
  27.3885155  48.0619584  13.9029171  27.2268391  47.5986587  13.0810644
  27.4953032  47.3671256  14.5525600  35.9234270  65.2229891  54.8484468
  36.8107160  65.3298948  54.5056343  35.6541904  64.3544433  54.5494986
  71.8763828  37.1136832  40.8661842  71.4895105  37.3311448  41.7142820
  72.7967739  37.3621750  40.9519958  62.6793575  34.7363400  61.3564968
  62.0007420  34.7327757  60.6814432  62.1972084  34.6752429  62.1811342
   8.9976630   5.9020513  16.1451530   8.0488142   5.9010071  16.0189569
   9.2223295   6.8247652  16.2649608  57.5936937  39.1299534  45.4531050
  57.3801565  39.7270298  44.7360754  58.3639336  39.5189643  45.8673906
  40.0736618  10.5908906  48.2399464  39.5055199   9.9903178  47.7574921
  40.9572077  10.3783011  47.9393053  73.6731052  25.9404469   7.7993500
  74.2310333  25.8421397   7.0278037  73.4377003  26.8682075   7.8080547
  77.5660960  46.2252776  11.6531517  78.2619063  46.6306667  11.1357214
  78.0280987  45.6859653  12.2949697  56.4026420  46.8811892  56.1845885
  56.2526576  46.6858392  57.1095614  57.0598857  46.2424527  55.9084062
   6.6280112  43.0639172  43.6664057   5.9063086  43.5887051  43.3200312
   7.3983893  43.6240959  43.5718393  29.2590555  21.3492990  28.5742593
  29.2490324  20.7963920  27.7929640  29.3000063  22.2432494  28.2345390
  75.5777502  24.8041701  60.3076553  74.8383951  25.3450489  60.5852079
  75.4583263  23.9773107  60.7748508   9.6594652  32.4275160  10.2894211
   9.4717821  32.0711446  11.1577559   9.9537024  31.6729093   9.7792983
  52.5412226   4.9372110  48.1017971  51.6231537   4.7898570  48.3291054
  52.5115013   5.5663460  47.3810053  28.3466753  21.8769264  13.4616160
  28.8083967  22.5523257  12.9647434  28.8604578  21.7757130  14.2628765
  51.2475538   3.2359746  24.1237307  51.3963604   2.7098238  23.3380771
  51.0088015   4.1011193  23.7909365   1.8534502  43.2895803  19.7138619
   1.4000067  42.4480391  19.6645796   2.2815928  43.3811665  18.8626623
  65.7891035  41.0312986  47.6644087  65.0030470  40.8761263  47.1407080
  65.7530689  40.3673744  48.3529902  60.3769016  22.1057892  18.5075200
  61.2011194  21.6534734  18.3277655  60.6287527  23.0201507  18.6369157
  64.5168972  23.6534643  58.6132479  65.3642845  23.8038468  59.0322399
  64.1590452  22.8887773  59.0642786  41.0703230  11.6042423  45.3353214
  40.3814650  11.3589537  44.7176313  41.8691683  11.2293625  44.9644566
  47.9675452  44.4275610  54.4487224  47.1978633  44.9027412  54.1356389
  47.6934497  44.0525501  55.2856622  44.4716406   7.8273547  51.5405655
  44.7052193   8.7280184  51.3158941  45.2585220   7.3194337  51.3429165
  58.9112902   1.1969920  57.5769138  58.0487967   1.1872398  57.1618891
  58.7942648   0.6962800  58.3842707  10.8349229  35.0549984  10.1040031
  10.2581454  34.3016584   9.9773504  10.3334380  35.7992449   9.7710707
  76.4415121  52.3806095  36.1975455  77.1874142  52.3443842  35.5987549
  76.8321800  52.3316956  37.0700240  75.4973984  56.9763327  27.9969883
  75.6193113  56.5125513  28.8254070  74.5868921  56.8035364  27.7574968
  61.2333202  16.6278028  45.9035492  61.3458872  17.2467959  45.1821566
  60.8452368  15.8533621  45.4962826  72.0001411  21.6594291  55.1758575
  71.2269688  21.1174321  55.3329372  72.6812744  21.2695932  55.7238770
  67.2203112  35.0029302  44.8764992  67.1071959  34.3305588  44.2046690
  67.0431948  34.5499444  45.7009172  55.5800962  19.3427765  41.5190792
  56.2475491  18.6855078  41.7158842  54.7871304  19.0128732  41.9416857
  47.4390952   5.8980222   0.7154610  47.5038354   6.7213483   1.1993744
  48.1510560   5.3600450   1.0617639  27.0342764   2.5705850  60.4766369
  26.3025317   2.0486774  60.8058691  26.9166884   3.4300184  60.8813334
  68.6870718   6.6441798  16.9807625  67.8417778   6.7114586  16.5367055
  69.3040228   6.4104825  16.2872303  11.6329417  29.8737383  31.9972658
  11.8035063  29.9263954  31.0568571  11.7114291  28.9422393  32.2031307
  72.7439547  24.9928594  33.6039567  72.5017929  25.5420089  32.8582859
  71.9339848  24.5419359  33.8423777  15.3641860  20.4056830   4.1754534
  14.7313659  19.7382064   4.4404890  15.7262628  20.0788589   3.3518555
  38.8795409  65.5791807  60.5731440  38.8991293  64.8374081  61.1778069
  37.9491171  65.7223845  60.3998137  66.5453768  17.0667422  55.9049988
  66.4616728  18.0089998  56.0512114  65.8780384  16.6765583  56.4694881
  13.8328490  21.1620164  42.5899839  14.0970263  20.6513476  43.3552694
  13.4274515  21.9484854  42.9551554  15.1978239  26.8652654  42.1007681
  15.2985033  25.9666419  41.7868090  14.3868193  27.1713614  41.6947985
  35.6789319  23.3152909   0.6044866  35.1131551  23.1753011  -0.1548098
  36.3002507  23.9855142   0.3198911  65.8170462  26.7296052  18.8293648
  65.6164360  26.0796237  19.5027983  65.3770113  26.4044023  18.0439711
  20.0450739  28.3143449  21.2354803  19.6616968  28.0946183  20.3863740
  20.8201250  28.8335729  21.0211849  16.4074263  30.1055622  52.7700758
  17.2865233  30.2121282  52.4066830  15.8329520  30.0834990  52.0047474
  64.5275545   1.8888690  46.9938087  63.7565470   1.3222295  46.9674397
  65.1687193   1.4469618  46.4371538  48.9684772  10.8950019  50.7093763
  48.2655048  10.9627116  51.3555002  49.7388649  10.6440032  51.2190199
  15.8161466  11.6083713  23.6230804  16.0572831  11.1746497  24.4416000
  15.6221120  12.5103421  23.8780929   5.8757242  72.7896547  15.5422235
   6.0009321  72.1167898  16.2114048   5.1320776  72.4786091  15.0260067
  49.2979368  69.7431669  35.2583051  49.8214563  69.0121559  35.5866075
  49.7446998  70.0169856  34.4572687  24.1168833  30.4322569  21.3574077
  24.7320414  29.7375332  21.1225178  24.3880511  30.7061176  22.2335960
  74.6199942  13.5534859  50.3145647  74.3397951  14.3304789  50.7983017
  74.0207767  13.5061145  49.5696259  35.2903939  71.5614759  13.7899114
  35.6339169  72.3822032  13.4368851  34.3464852  71.6124688  13.6393692
  33.6147666   3.2650641  15.2898431  33.2326341   3.6271083  16.0892987
  32.9951715   2.5902086  15.0125277  31.5896925  17.7046776  20.9057760
  30.7525763  17.2587788  21.0347724  31.7350516  17.6723886  19.9602282
  67.7690554  22.2570491  42.9205894  67.4229813  23.0130935  43.3947849
  68.5132885  22.6033139  42.4281931  69.3884134  20.4828644  30.8646131
  69.9058533  21.0531640  31.4331603  68.9622498  19.8700941  31.4638877
  57.3053106  73.6290740  56.5052605  57.9618581  72.9798566  56.7576456
  56.9003137  73.8937220  57.3311901  47.9490853  36.4677143  12.1360161
  47.0975877  36.8884110  12.2551348  47.9347993  35.7234608  12.7377750
  65.1279163  29.0715933  29.9908471  65.1148081  28.1796694  29.6436667
  64.2085457  29.3377972  30.0020170  74.7861195  31.5811849  31.9545674
  74.9046326  31.1354470  32.7933168  74.0009975  32.1151233  32.0759153
  73.9085293  27.1232462  27.9227638  73.0912018  27.0893359  28.4198093
  74.4739342  26.4779711  28.3472323  75.5981970   7.6372355  13.1556773
  75.1712942   7.0513391  12.5306094  76.0681200   7.0521748  13.7499094
  56.6424036  12.3327041  16.3488722  55.9714890  12.9225636  16.0051119
  56.6121244  11.5716934  15.7690644  24.6516276  31.0886817  11.2581302
  25.1439381  30.6980936  10.5361177  24.0380145  30.4050379  11.5270950
  64.6621609  13.5311937  39.2057323  64.1927767  14.3500090  39.3652678
  64.4586039  13.3116555  38.2965589  67.4198294  24.7276950  39.2479992
  66.7659283  24.1360068  39.6202278  67.1147442  25.6028533  39.4872785
  13.2838917  69.9338447  13.2694532  12.9054213  70.5688821  12.6614048
  12.8078414  69.1219722  13.0948974   4.9124083  32.8672314  24.7306442
   4.1910872  32.6645947  24.1349387   5.6554255  32.3734236  24.3837810
  62.0477247  44.3124866  48.7889576  62.2895098  44.0192747  47.9104376
  61.6160727  45.1554203  48.6497879  40.0369231  70.9514527  59.8148478
  40.5287902  71.3636022  60.5250813  39.4051616  70.3852348  60.2581464
  77.0690823   4.8883653  38.1399512  76.9191790   5.6332231  37.5577593
  77.4684000   4.2229515  37.5795937   3.7604746  41.0032988  37.8340387
   3.7202296  41.9301033  38.0699348   4.4055495  40.6309175  38.4352469
   3.8127646  40.1201200  43.5307550   3.0721125  40.5290318  43.9784813
   3.7362036  40.4145098  42.6231718  43.1150611  71.6476436  26.5322566
  43.1258091  72.5105045  26.1180258  42.2311243  71.5647135  26.8900418
  50.1169284  73.7481910  47.0282173  49.1892322  73.9671515  47.1157503
  50.1278146  72.8002894  46.8955660  13.7895235  48.2763290  62.8823662
  13.8817057  48.7060976  62.0320511  14.5220694  47.6613808  62.9205894
  10.4220995  26.8388748  30.6583738   9.8050722  27.5631046  30.5534887
  10.9958014  26.9004893  29.8946309  70.2921677  12.6806045  39.6577168
  70.4212523  11.7394423  39.7751164  70.6760025  13.0745625  40.4411077
  48.4634876  12.6453543  35.3075123  48.9498472  12.1706545  35.9815645
  47.6479912  12.1538091  35.2096391  54.0943368  64.4454119  39.5320582
  54.5990499  64.3504247  38.7242961  53.2884391  64.8848483  39.2606616
  17.4404272  24.9354625  49.5097685  18.2280287  24.6759486  49.9878597
  16.7171034  24.6697879  50.0776148  59.7836431  70.0244409  44.2122030
  58.8514837  69.8768288  44.0524387  60.2234300  69.5936564  43.4792376
  75.7507992  36.9263530  50.4027128  76.0977411  36.7061329  51.2672186
  76.4071608  37.5104356  50.0228930  19.1952738  55.1327324  43.7828255
  19.7089323  54.7341776  43.0803061  19.8408732  55.5895090  44.3220711
  10.2727255  60.1348925  50.2326488  11.1949858  59.9297476  50.3861952
  10.1744780  61.0375404  50.5356455  65.9588718  14.7013378  15.2181590
  65.3605747  15.4262757  15.0372148  66.7425776  15.1205790  15.5735052
  60.1983309  37.2153950  51.7595482  61.0208130  37.2056103  52.2490931
  59.9074221  38.1264973  51.7982006   6.9241938   5.9570062  25.3314376
   6.8999419   5.6913292  24.4121647   7.1725020   5.1624399  25.8039165
  69.1496563  12.3308110  10.5519140  68.8563824  13.1271267  10.1090777
  68.7809610  12.3969746  11.4327741   5.7301363  24.3690324  58.8078928
   6.4906248  24.1421843  58.2727051   5.2797541  25.0496793  58.3077860
  37.2814250   5.4003227  42.5918341  36.4079070   5.5731851  42.2406673
  37.1215558   4.9408048  43.4161615  44.6180042  72.1472048  48.1269503
  43.7822088  72.5966971  48.2520056  45.2302154  72.6182482  48.6922359
   3.4497389  46.0574627  39.6088386   2.9493269  46.7935276  39.2566657
   3.0413279  45.8730221  40.4546595   0.5973944  61.0330486  59.5027781
   1.3298020  60.4177475  59.4678640  -0.1793686  60.4773998  59.5670271
  50.3986311  10.5831420  28.5001397  50.5681562  10.4192913  27.5724292
  49.6007204  11.1118329  28.5080791  63.3590794  14.5171261  27.9776502
  63.3624125  15.3820908  27.5677037  62.5394392  14.1173697  27.6867723
  61.5683794  67.9414034   3.2198250  62.2096300  67.2874498   2.9416582
  61.0560751  68.1246138   2.4322909   2.9761347  38.4605432  38.3876204
   3.1251272  37.5220013  38.5023808   3.3573374  38.6608028  37.5327444
  74.7474432  37.8902459  24.3286324  75.3290892  37.1313524  24.2839146
  75.1340866  38.5242701  23.7246847  77.3620240  25.8177804  14.7127106
  78.1442563  26.2775873  15.0175478  76.9436375  26.4313327  14.1087725
  56.7077383  50.2397934  37.1569228  56.1780771  49.6125976  36.6646743
  57.0120939  49.7491232  37.9203629  30.3652843  64.3970177  58.2882643
  30.8240017  64.1320780  59.0855169  29.4809660  64.0458998  58.3928299
  37.6596101  71.7854458  35.9854579  38.0532821  72.3389891  36.6598797
  37.6243337  70.9144909  36.3809657  59.8955107  31.5614295  58.5001230
  59.4592571  31.8224621  59.3111563  60.1855373  30.6637669  58.6623669
  26.3059267  65.5470800  37.1930838  27.2523150  65.4637671  37.0762515
  25.9713301  65.7293797  36.3149953  58.2618952  25.2682352  17.3066974
  58.2702208  26.0578060  16.7656398  59.1861248  25.0794673  17.4691737
  67.3071861  35.9206700  37.6468062  67.2662449  35.2171803  36.9989944
  66.4216232  35.9661531  38.0072808   8.7277842  57.7169429   0.2899362
   9.2334510  58.3284722   0.8252479   9.3711043  57.3297940  -0.3037689
  35.0231998   8.8245530  12.7663853  34.3267314   8.5581966  12.1662094
  35.3408734   9.6547504  12.4112942  72.1281449   0.7888731  22.7199888
  72.1114890   1.2552818  23.5557008  71.7797867  -0.0792185  22.9231977
  53.5978603   6.5712541   4.1803682  52.9150105   5.9013981   4.2155144
  53.5164690   6.9505686   3.3053097   9.2201266  40.5545521  56.4716291
   9.7360930  40.8888292  55.7379580   8.6461481  39.8959780  56.0803986
  63.7845945  53.5884237  53.0045128  63.3903742  54.3798161  52.6377535
  63.0393410  53.0295467  53.2247162   4.0019736  33.5613894  56.7230129
   3.3652148  32.8793740  56.5094376   4.7348723  33.0894423  57.1184397
   4.3968329  21.5019298  42.2512150   3.5522494  21.7917538  42.5960588
   5.0440249  21.9801259  42.7695847   9.4872539  59.6475511  62.8139195
  10.3144567  59.6854978  62.3337838   9.1876619  60.5560546  62.8470605
  12.7910933  27.9485369  40.5223894  13.4319910  28.2284904  39.8688626
  12.3305926  28.7516594  40.7656240  60.2874788  60.0097600  62.6778698
  60.1602205  59.0777484  62.5006914  60.5915292  60.3723982  61.8458366
  41.1963352  69.6886972  16.6455841  41.6470083  70.1870087  15.9638155
  40.5448612  69.1708264  16.1726916  61.3176060  15.4584527  33.7361836
  61.5160656  15.9248674  32.9242063  61.5809011  16.0629213  34.4301033
   5.5987105  31.0549712  60.8785105   6.0496554  30.2106786  60.8853769
   4.9786887  30.9894443  60.1522112  77.0489359  46.5162659  33.0532026
  76.9491529  45.9667873  33.8306022  76.3442183  47.1602631  33.1230259
  70.0551033  20.8477092  46.9455242  70.3708601  21.4735436  47.5973368
  70.8433771  20.3933382  46.6481972  30.9180292   9.1233546  14.4718039
  31.7650255   8.6774588  14.4735289  31.0156092   9.8253524  15.1151609
  35.4085326   2.2369358  13.6430085  35.7649016   2.7913791  12.9488719
  35.1139021   2.8527883  14.3139410  56.3087511   6.9797564  36.7681122
  56.1260319   7.0302749  35.8298731  56.8505383   6.1965865  36.8647838
  48.7852383  44.4393878  12.2653438  49.6098901  44.5238035  11.7867424
  48.9965153  44.7156559  13.1571247  37.5511694   4.3193102  22.3386145
  37.5804687   3.3741200  22.4869037  37.8909206   4.6994907  23.1487155
  41.3947583  43.9654563   5.5089332  40.7109643  43.9694499   6.1787464
  40.9209061  43.8634168   4.6835329  11.8419775  29.3399739  44.7442484
  11.3157496  29.9424481  45.2699327  11.1995062  28.8046384  44.2785406
  52.5573476  73.2638069  38.2895279  53.3197769  72.9211316  37.8231525
  51.8981489  72.5743346  38.2100487   3.7318358   4.2281929  46.1204576
   4.6157870   4.5949519  46.1016083   3.3188376   4.5574620  45.3221846
  41.2662633  61.7288605  42.3548031  41.8970235  62.4204353  42.5550604
  40.9962925  61.3957754  43.2106066  78.0926371  34.9203134  29.0838313
  77.8589296  35.7176757  29.5590448  77.2791672  34.6471334  28.6597109
  71.2426949  25.8608103  15.4750848  71.6114616  25.5295038  16.2939143
  70.8638859  26.7082834  15.7085931  37.0172597  52.8916083   3.9313747
  36.7607022  52.9294501   3.0099775  37.3885918  52.0161878   4.0408422
  78.4542847   5.5505908  64.0073061  79.1315365   5.2741045  63.3899546
  77.6326227   5.2759159  63.6002970  22.5338682  70.3407157  31.2007523
  21.6842636  69.9725202  30.9581971  22.3200115  71.0959569  31.7485762
  73.7194291  42.0828056  43.4034491  74.2601132  41.3425779  43.6790514
  74.2827818  42.8477144  43.5208225  21.7624354  73.2840872  58.0654621
  21.5683508  72.7277851  58.8198423  22.6905370  73.4989214  58.1587553
  77.3173936   0.7993932   1.9926502  77.5179131   1.2032981   1.1483290
  77.4929650   1.4871140   2.6348736  26.4155928  51.9516777   7.5095321
  26.0631009  52.6542257   6.9632675  25.9992016  51.1569952   7.1758749
  78.7030903  64.5807110  21.6804649  78.0359427  65.2415167  21.4947655
  78.4570662  64.2254101  22.5345566  15.4661465  -0.0022140  52.3119545
  16.3756740  -0.0399950  52.6078701  14.9809825   0.3236561  53.0700159
  36.5581063  61.1170660  16.4987041  37.2586230  61.6490160  16.1211635
  35.7700572  61.3907157  16.0293152  74.2078192  52.7969216  13.9043619
  74.1271765  53.7084542  13.6235811  75.1478822  52.6192020  13.8739254
  73.2879403   5.5575001  56.7603350  73.9621213   4.8813939  56.6925716
  72.6922610   5.3754508  56.0335207  15.8535893   9.4088407   7.1489431
  16.1257847   8.6978288   6.5687706  16.2103207  10.1989741   6.7431547
  27.1099297  64.0263544   5.0969507  26.4836392  63.3382736   5.3217556
  26.6236158  64.8418342   5.2182962   6.5605545  42.2358227  36.0289288
   5.6167591  42.3072767  35.8861852   6.7545867  42.9037905  36.6865039
  20.6339622  36.1463857  63.8845730  19.7901213  36.2889314  63.4558058
  20.4101658  35.7600999  64.7312927  60.2438946  10.1661964  34.6854355
  60.3192689  11.0953994  34.9025204  59.4676407  10.1126809  34.1279365
  74.9143417   0.5071063  22.7458336  74.0307362   0.7897468  22.5100567
  75.0585540   0.8743162  23.6179497  24.3955207  28.6991811  60.6234741
  24.2811584  28.0217385  61.2899780  23.6098480  29.2411709  60.6955767
  76.3685520  11.6028638  17.3420002  75.6542261  11.1138625  17.7504780
  76.9552954  10.9285493  16.9995643  21.7165446  57.2846937  40.4034662
  21.8185830  58.1700516  40.7526922  20.9975958  57.3562670  39.7755957
  12.2143690  43.2970662  18.6917259  11.7164771  42.7800794  18.0584385
  11.9664805  44.2033334  18.5088016   6.7682928  41.8593073  46.2062979
   6.4635748  42.3071861  45.4171324   7.1960908  41.0668612  45.8818817
   7.1680117  42.6467495  16.3220169   6.7433310  42.6904152  17.1787407
   6.6891766  43.2779680  15.7848884  64.9188296  43.5498218   9.9047520
  64.4889323  43.5459285   9.0495302  65.5852906  44.2333089   9.8346998
  31.0703615  57.1210633   7.4198677  30.8802203  57.5681864   6.5951492
  30.4574350  57.5046216   8.0471136  66.5770546  51.7297171  29.3125870
  66.7570034  52.0354496  28.4235527  66.5103690  52.5306927  29.8324158
  76.8023279  23.1638217  42.7159452  77.4752089  22.5951934  42.3416138
  76.0800453  22.5726199  42.9281235   3.3744566   9.6610351  19.6729233
   3.0507247   8.7966914  19.9265816   3.7639539  10.0150199  20.4724361
   1.1474233  21.7219043  58.9206791   1.6960266  21.3873029  59.6301222
   0.2809269  21.3539958  59.0940523  35.0558774  20.5104537  29.5026924
  35.9231965  20.1089807  29.4497921  35.0076358  20.8600516  30.3924610
  50.8409053  54.3193193  37.3848965  50.3495999  54.3174501  38.2063915
  51.2823562  55.1685376  37.3717644  74.7902329  32.8394790   1.6769888
  74.9990137  32.9573817   2.6036741  75.4417212  33.3676190   1.2156202
  25.6569743  60.7282305  62.1095228  25.6439376  60.2125502  61.3032150
  24.8569322  61.2523699  62.0715761  48.7200974  26.4391513  15.2038194
  48.7792222  26.9342227  14.3867256  47.8897290  25.9674974  15.1385452
  41.7242650  61.1760293   6.3011505  40.9481529  61.0805808   6.8532087
  41.3769034  61.3793312   5.4326774  26.4416228  57.1842586  18.1614162
  25.6944306  57.4078547  17.6064922  26.3364312  57.7341901  18.9377834
   2.4952166   5.3148122   1.2356664   3.1016938   5.1044030   1.9457008
   2.1717279   6.1901946   1.4484932  54.9103228  49.8577796  11.0217907
  54.6364037  50.3267156  10.2335645  55.8424250  50.0578474  11.1077549
  39.6509329  29.8968379  13.0162527  39.0657464  30.4409872  12.4892904
  39.1130427  29.6127860  13.7553217  77.0093447  55.9221315  41.6562748
  77.8780855  56.2435293  41.4149714  76.8111619  55.2527809  41.0013533
  72.3856504   8.6300416  34.7772934  71.5484841   8.3832641  34.3842460
  72.8286083   7.7972455  34.9399902  50.2210304   2.2051878  44.4335033
  49.8853973   2.0214696  43.5561039  50.3477967   3.1538529  44.4476654
  57.8914800  11.9719279  18.6270106  57.3709169  12.1600473  17.8460765
  57.8922382  11.0168028  18.6899960  70.1978298  16.1910672  27.6894237
  69.4746275  16.7362924  27.9991581  70.7220073  16.0212178  28.4721233
   4.2673728  60.4655647  31.1205411   3.5487324  61.0535097  30.8879375
   3.8355178  59.6857595  31.4693117  64.4761904  26.7100854  28.5267498
  64.5395501  26.1204572  27.7753879  63.7752278  26.3399024  29.0632679
  16.4905946  25.6715341   4.6264221  16.2146823  25.3576226   5.4875614
  16.3618772  24.9216600   4.0456011  72.2018830   7.0999035  62.4660492
  72.4592797   6.9945892  63.3819532  71.5354363   6.4273056  62.3256922
  30.3767935  68.9357077  60.6446697  29.5247618  68.6128436  60.9379818
  30.9962166  68.5996185  61.2924339  40.1296643  58.8884483   4.1104938
  40.6824688  58.1231366   4.2684128  39.3069331  58.6855923   4.5556881
  68.8468750  30.9485860  46.5525677  68.1709357  31.1560149  45.9073498
  68.4762962  31.2337442  47.3877861  18.4845579  50.5251169  63.0350685
  19.3559754  50.8549881  63.2542610  18.4055507  49.7097826  63.5302591
  18.9143407  60.1148081  62.9872179  17.9704058  60.0535774  62.8406906
  19.3039525  59.7221756  62.2060156  62.2458775  55.7042919   7.8383018
  61.4255459  56.1252116   8.0954315  62.5802071  56.2472914   7.1244385
  18.8754718   0.8240051  31.9509937  18.5954730   1.0984202  31.0777714
  18.1102340   0.9741016  32.5060798  19.8449171  10.8856392  56.7965031
  19.1421115  10.3341675  56.4527369  19.4656456  11.7638552  56.8299675
  72.3037155  12.3208470  12.8193237  72.2616835  11.6170640  12.1718981
  72.4493940  13.1132884  12.3025610  65.1695414  19.2354102  14.8057558
  64.3072517  19.6285434  14.6710874  65.6531914  19.4388385  14.0051748
  32.1982932  52.8403473  63.5532188  31.4456177  52.6643181  64.1177750
  31.8544197  53.4122515  62.8669930  34.7881416  74.3241702   0.8532812
  35.3663633  73.5673224   0.7580330  33.9390472  74.0185557   0.5341102
  31.6933421  66.9270335  43.2978298  31.3384954  67.6722489  43.7825729
  31.5597425  66.1779891  43.8786175  45.9403101  70.7002531  34.8027565
  46.2489406  69.9042116  35.2355339  46.0929457  71.3954125  35.4428245
  77.6432909  56.6250896  45.9896803  78.4784016  56.6711092  46.4551926
  77.7388337  55.8773994  45.3997087  26.9663999  72.9509889  12.9962875
  26.7985042  72.3934542  13.7560226  26.5638352  73.7898098  13.2211305
   1.4060991  51.4203973   3.8698198   1.9002406  50.9395070   3.2058908
   0.8134072  50.7694001   4.2455246  63.5096271  12.6597686   0.4983999
  64.2415948  12.5000424   1.0941698  62.7299769  12.4733110   1.0214807
   0.4415798  26.4085317  40.9808302   0.5492778  25.5430984  40.5862951
   0.5700874  27.0200086  40.2557039  11.5090148  31.6466613   3.5314466
  10.8037321  32.2880168   3.6178781  11.3213746  30.9921832   4.2042591
  20.6616037   6.2341733  37.6772548  21.2043159   6.0530658  38.4446575
  21.2063186   6.7958016  37.1258213  38.7139288  60.7429658  10.5517198
  38.3840505  61.3443790  11.2193395  38.6381296  59.8765121  10.9514000
   6.3471167  10.8850856  16.2359573   5.7778136  11.3800235  15.6467535
   5.8402412  10.8001561  17.0434810  77.5885876  21.0406585  11.2985851
  78.1723721  20.7166524  10.6126882  77.2298987  21.8539233  10.9433700
  55.0061621  13.3852859  24.8471786  55.0881793  13.4961839  23.8999702
  54.4631243  14.1216607  25.1284077  54.3196193  61.7990099  12.6797296
  53.9919702  62.3294793  11.9534494  53.6637465  61.9051324  13.3687927
  57.1369711  59.0255451  61.2739420  57.5500599  59.2866755  60.4508972
  56.4173904  59.6463156  61.3882923  14.9166775  24.2982078  63.5068321
  14.7038126  24.2424870  64.4384003  14.2865813  23.7162447  63.0819416
  70.6932456  54.7872327  20.2898075  70.8157117  53.9276014  20.6926395
  70.1312906  54.6193801  19.5333244  37.7016600  35.5714555   9.1955473
  38.5089691  36.0723443   9.3121387  37.8074010  34.8104377   9.7664215
   6.8325311  55.1678944  56.1771822   6.5437531  54.2610836  56.2798119
   7.3021883  55.3629303  56.9881201  64.2508181   4.5819850   1.3404562
  64.0894182   3.7628026   0.8723451  63.3981712   5.0163455   1.3640787
  70.3021357  50.9075928  50.1992607  71.2107411  51.0926533  50.4367924
  70.2538195  49.9522972  50.1631689   4.0891835  32.0396256  50.9509611
   4.8872790  31.5117455  50.9757948   3.6767754  31.8112230  50.1179028
  67.7373496  33.1271005  37.7500916  66.8749705  33.5161781  37.8955245
  67.9307523  32.6622343  38.5641718  74.6976431  10.3392739   0.8491613
  74.4068773   9.7269292   0.1733496  75.6145223  10.5132194   0.6363012
  77.9240338  69.0039359  52.7196647  77.8800932  68.1859838  53.2148983
  78.8580719  69.2091619  52.6785709   8.3939688  11.1806007  56.6388752
   9.0518920  11.5480371  57.2290947   7.7121465  10.8437677  57.2201587
  26.9693772  19.6437497  39.1675236  27.0366447  20.2943940  38.4686996
  26.1103837  19.8011394  39.5594456  74.8006041  15.3595347   0.9279157
  73.9821513  15.7686277   0.6468298  75.4346712  16.0764928   0.9407570
  15.3229491  14.4259734  36.5312435  15.4052846  14.7064729  37.4427082
  16.1338393  13.9495893  36.3530685  40.5059345  13.7507529  31.9815304
  40.1901706  14.5919414  32.3115684  41.2150259  13.5104032  32.5779011
  14.2375915   8.5086246  17.5685360  13.5458939   8.8899703  18.1092312
  14.9836652   8.4198041  18.1615974  60.8311645  39.9347080  11.5009214
  60.1260654  40.1897611  10.9059288  60.5249158  40.2071153  12.3659279
  13.2745353  68.8954268  26.4223434  12.7732889  69.7082959  26.4873840
  12.8816573  68.4302221  25.6837894  55.5733375  44.3401666  20.2250339
  55.8762218  43.4503884  20.4060985  54.6399827  44.2418237  20.0368645
  10.8747594  27.5094457  35.6480171  10.6290309  26.9933744  34.8802139
  10.2388804  27.2592254  36.3182976  35.2847762   9.0494485  15.6990053
  35.8420713   9.8212094  15.7991983  35.1064320   9.0031142  14.7597076
   9.5688622  13.5872169  30.6118061   9.0755789  13.5634465  29.7918464
   9.5383374  12.6870580  30.9358646  16.3428926  69.1111851  56.7047977
  17.0921397  69.2647266  56.1292219  16.7067909  68.6313391  57.4488115
  45.2328257  60.8074509   6.2968447  44.8305742  60.6392370   7.1489765
  45.3364173  61.7584764   6.2644388  31.1081413  64.0654288  -0.2214621
  30.5698530  63.6863147   0.4733373  31.7858801  64.5573960   0.2420761
  72.5042994   8.9623923   4.2994167  72.8416331   8.3197160   3.6753942
  73.1949361   9.6223350   4.3604852   4.9524777  35.1875634   6.8258621
   5.2115838  35.7727094   6.1140301   4.8465721  34.3333287   6.4071752
  62.4591223  69.8986398   9.0450908  61.5457288  70.1258884   8.8710167
  62.7755133  70.5987869   9.6159889   7.0024268   2.2247347  32.8963709
   7.3576967   1.4846930  32.4040771   7.6789204   2.4299988  33.5417032
  19.3678236  62.9736185  60.6650925  19.1344953  62.1542740  61.1015129
  18.9925182  63.6564493  61.2210798  72.4803384   6.7123218   5.8896305
  72.6360495   7.5602098   5.4736139  71.6315873   6.8096299   6.3213541
  70.0600202  33.1789441  31.1252262  70.7691760  33.7515779  30.8329632
  69.4656189  33.7581201  31.6021683   2.9523294  64.3902345   7.5510647
   3.1071512  64.4704099   8.4922554   2.7514403  63.4636540   7.4194624
  34.7784153  30.0053772  59.9693346  34.6659438  29.6373447  60.8457708
  34.7381816  29.2484840  59.3847609  13.0425636  36.3521047  50.5344822
  12.1339671  36.3816876  50.8341648  13.4600918  35.7020183  51.0995437
   5.1012675  10.7871909  26.8065979   5.9004085  10.3308244  27.0699074
   4.9760191  11.4576955  27.4781372  47.4495784  20.3513416  63.2269812
  46.6012732  20.5925068  62.8548908  47.5592748  20.9394344  63.9742041
  62.7889164   9.4302363  33.6079647  62.8977914   8.4822412  33.6833908
  61.8798013   9.5879264  33.8626720   7.6578581  38.4978032  55.7007599
   7.2664922  37.7989769  56.2248850   7.3718929  38.3147907  54.8057938
   1.0753600  27.9011245  38.7861873   1.4836518  27.5586314  37.9910614
   0.2001922  28.1717439  38.5085632  48.0754558  64.8184215  34.3449737
  47.7883998  65.3110252  35.1138546  47.4626414  64.0853416  34.2876865
  56.1150710  24.1111131   5.8628227  55.6084697  23.8727231   5.0864507
  56.4947383  24.9633117   5.6487085  57.2610392  39.9500747   2.3709490
  56.9158126  40.4677434   1.6435720  57.9102703  40.5197854   2.7834560
  17.1493924  55.8973122  52.8449297  17.6172876  56.5637159  52.3417282
  16.2717342  56.2600374  52.9648256  22.8312795  12.3474403  29.8548748
  23.2916515  12.1458097  30.6695034  23.5230367  12.6094050  29.2473556
  69.3317433  47.7007432   3.1430055  68.5928185  47.2072167   2.7871324
  69.7901066  48.0349584   2.3720075  75.0290592  34.9835486  22.7461387
  74.3760355  34.3652339  22.4183037  75.5115970  35.2581353  21.9664051
  64.3805380  48.2856412  23.8258125  64.6010442  49.1904302  24.0471031
  64.2318137  48.2997460  22.8803398  24.7470331  10.0167358  63.8376617
  25.2562070  10.8259475  63.8840342  25.2773619   9.4306648  63.2977533
  76.5777834  18.5607572  27.8997661  76.2497337  18.0787082  28.6588718
  75.7897623  18.8786073  27.4590542   8.7670581  11.2175984  11.0907318
   9.2452900  10.5087419  11.5209057   8.5535114  11.8261762  11.7980196
   9.1781084  27.2894616   9.0431930   9.4367449  27.0653291   8.1492664
   8.9713804  26.4483876   9.4507267  57.5732470  44.4777966  34.8372769
  57.6770592  44.5466471  33.8882160  58.3600187  44.0188980  35.1316118
  73.8281448   1.6143508  28.1745388  74.2047150   1.0981770  27.4618007
  73.0104621   1.9584007  27.8150131  63.3440705  34.5814319   5.0756122
  63.5438033  35.4352756   4.6918251  62.4064811  34.4636579   4.9230100
  19.9612825  26.2737651  10.8006050  20.4431789  26.0415549  10.0068285
  20.5065887  25.9468122  11.5161325  21.8262736  22.6686664   4.5005276
  21.6413133  22.3250194   5.3745558  21.7211120  21.9151397   3.9196970
  15.1531999  34.6001096  31.7179252  14.5757739  35.3506608  31.8575050
  14.7310559  33.8821502  32.1896889  18.0341022  24.4513984   0.1563455
  17.6635234  23.6174436   0.4451801  18.9651220  24.2687125   0.0296356
  53.7533008  42.7218289  14.7369959  53.7521738  43.6661954  14.5808079
  52.8364431  42.4627395  14.6449234   0.8278863  34.3136878  20.7432987
   0.8914535  34.3002124  21.6982891   0.5208747  33.4372420  20.5112984
  65.8701459  44.7516976  13.9118625  64.9204055  44.7880070  13.7982609
  66.0266177  45.1736771  14.7566606   8.6792843  33.0617566   0.5255558
   7.8706042  32.6171966   0.7797863   9.1286318  33.2333417   1.3531257
  24.1946761   0.4799934   3.5839321  24.3816392  -0.1655679   4.2654945
  23.2427661   0.4563470   3.4862806  42.9866163  57.7662979   9.4125368
  43.1705538  58.5663401   8.9202644  42.1359781  57.4738966   9.0852024
  74.0913399   1.7088218  39.6203090  74.3954523   1.9075103  38.7347175
  74.1127403   2.5506420  40.0754120   7.3063327   4.1115841  51.5061760
   7.6505471   3.8511738  52.3605347   6.3900042   3.8353714  51.5228271
  67.5876136  10.7423778  13.9097931  68.3165510  11.2956376  14.1904785
  67.0561118  11.3109489  13.3525945  35.6077504  62.6131439  54.0423346
  35.2257228  61.9006729  53.5298109  35.6218576  62.2815180  54.9401379
  75.9179671  21.3567014  13.3330871  76.2685211  22.0982499  13.8264896
  76.5097125  21.2646432  12.5863602  17.0367925   2.1670790  13.2333757
  16.5782420   2.8289576  12.7158024  16.5226285   2.0932026  14.0373756
  21.6446120  71.7387234   7.9660513  21.6056094  72.1865855   7.1209909
  20.8093027  71.2757646   8.0305387  21.2294404  54.7358747  15.9999897
  21.5783899  54.3464322  15.1982357  21.2341182  54.0201993  16.6356041
  43.1969993  24.7382541  18.3552887  43.5891311  25.4835029  18.8103344
  43.0551974  24.0862079  19.0415623  42.0243375  20.9769244   6.1636736
  41.8022887  20.4783244   6.9500114  41.9585197  20.3416390   5.4507114
  19.0185831  70.5717908   8.4167005  19.2528478  71.0949598   9.1832783
  18.0655155  70.4949604   8.4613182  62.2137894  19.4133086  17.8673508
  62.1122445  18.7055297  18.5037185  62.6932474  20.0935788  18.3402016
  70.4457457  55.4580159   1.9339134  70.5119880  55.9553666   1.1187555
  69.5158525  55.2437348   2.0088579  62.4283262   9.4722600  26.7148926
  62.7659078   8.6471028  26.3664867  62.1999671   9.9842591  25.9390404
  57.9034270  14.5972343  13.7242891  57.9143186  14.4845862  14.6747734
  58.3754553  13.8356967  13.3874227   0.7519691  41.5016313  37.5573971
   0.8139198  41.5878911  36.6061069   1.6612546  41.4804978  37.8556969
   0.9841125  28.1890245  46.2266304   1.8487971  28.5334344  46.0031654
   1.0656469  27.2425456  46.1093380  70.1898308  27.8290410   8.9166023
  70.8440252  27.7540965   8.2218744  69.6781130  28.6029811   8.6812450
  28.5218787  74.2619848  49.3846989  28.0674219  73.9399815  48.6062288
  29.1766167  73.5901308  49.5748758  73.3423884  12.7909846   0.0802948
  73.8760574  13.5479159   0.3221275  73.7769325  12.0479579   0.4990007
  76.0103209  10.4466291  28.9769413  75.0625070  10.5510135  29.0605213
  76.1559327   9.5043988  29.0619995  37.3517660  64.5066486  52.3011066
  36.8795351  64.1079365  53.0320312  38.2348601  64.1419302  52.3590328
  28.6988132  20.7224889  20.0617840  28.4954040  21.0120721  20.9511616
  28.8198440  21.5333171  19.5676758  67.5935598  54.1858239  35.5343487
  68.3988781  53.9403672  35.0788833  67.2612186  54.9381394  35.0446560
   1.5843312  22.1248431  22.8218605   2.1467583  21.3712688  22.6428844
   2.0984714  22.6717324  23.4158375  54.5420434  17.7591367  25.1279880
  55.4518668  17.5982804  24.8778297  54.1328213  16.8939633  25.1124336
  17.4123927  61.2870270   0.5775646  17.4774095  60.6761128   1.3115886
  16.4904936  61.5440279   0.5607799  11.9256747  66.7141294  48.9966536
  11.6288900  66.1124182  48.3139420  11.6538155  66.2999582  49.8156691
  37.2246043  25.0952334  15.0136091  36.4410798  25.2185245  14.4777681
  36.9283693  25.2508016  15.9104206  26.6338889  33.1581397  11.2623550
  26.0399644  32.4900384  11.6045811  26.1002366  33.9513536  11.2148334
  52.5669686  66.0627709  20.4624512  53.0334488  65.2269827  20.4718735
  52.3950902  66.2515412  21.3849785  17.7121608  20.3240867  24.1864158
  17.5981300  21.2352748  23.9162971  16.8258540  19.9625821  24.1898491
  73.5744722  36.3631101  46.3839390  74.0200909  37.1995730  46.5180351
  74.0593536  35.7433410  46.9289257  63.9908905  37.7821012   7.0970680
  63.2782324  37.7415223   6.4593317  63.9788063  38.6857314   7.4125673
  63.0279501   0.9812565  18.2444336  62.8287359   0.8335347  19.1689541
  63.0053373   1.9328637  18.1436302  19.3234412  12.9922624   4.9420978
  18.9563338  13.7304921   4.4558050  19.1473357  12.2304339   4.3899776
   8.6626713   9.6931930   6.2634994   9.4976442   9.9531169   5.8742859
   8.9051573   9.1137405   6.9857647  50.4327440  10.6503952  63.8990116
  49.5489454  10.5159020  63.5568953  50.5153990  10.0113392  64.6068335
  34.2205445  31.5461106   0.5301096  33.2824437  31.5088315   0.3435423
  34.3168895  32.2889133   1.1260893  55.5471809   8.8396735  16.6370918
  55.9097637   9.2327066  15.8431818  54.8829354   9.4630237  16.9311001
  19.6349208   1.0751028  36.0347893  18.9349477   1.4993591  36.5310528
  19.7321479   0.2156110  36.4447262  55.8978764  73.2105886  15.7622005
  56.1067382  72.5818049  16.4530231  56.6253320  73.1379972  15.1443245
  50.9577751  31.1398292  61.1665678  50.3379345  30.4127169  61.1087751
  50.4356766  31.9162607  60.9645748  22.5931709  14.7990127  24.9616863
  22.3293464  15.7112498  24.8414661  21.8764035  14.2904277  24.5824577
  57.1784540  63.6581082  10.8922769  57.9732926  63.1580205  11.0776760
  57.3106255  63.9986081  10.0075056  68.3861788  17.1715207  13.7917711
  68.6364932  18.0764194  13.6053993  68.2066925  17.1614547  14.7319414
   9.0313356  49.5602651  56.7518951   8.2918231  49.7154660  56.1643078
   8.6340563  49.2118974  57.5500538  16.2432306  24.8668284  52.9678299
  16.9139974  25.4224773  53.3647587  16.1794440  24.1126437  53.5538055
  14.2542951  45.2989526  19.4886352  14.7604482  45.0824113  18.7056019
  13.5230725  44.6813245  19.4795563  55.3612915  69.7599875  18.2919742
  55.9680048  69.2936979  18.8670399  55.8008543  70.5886828  18.1014873
  64.4943078   2.3395844  30.8257438  64.0764947   1.6850228  31.3853981
  64.7748454   1.8497868  30.0526764  65.2582295  36.0614343   1.9736769
  64.5659848  36.2895007   1.3531782  65.3133483  35.1067872   1.9307758
  73.1824096  27.7428765  14.0809633  72.5259693  27.1670051  13.6889221
  73.6978705  27.1681590  14.6468546  24.8280875  49.2789502   1.6074945
  24.1544692  48.8586755   2.1421291  24.5422904  49.1349454   0.7053758
  63.2345438  57.6040745  55.4391432  62.9528332  56.7176819  55.2129221
  62.6129055  58.1753874  54.9881458  61.6366664  11.1445698  58.5032129
  61.8439046  10.2187809  58.3759260  60.6844512  11.1908611  58.4173346
  54.9075000  50.0402589   4.6091081  54.8600583  49.6196981   3.7505581
  55.7878535  49.8386712   4.9262430  47.6884571  63.9414583  30.0417377
  48.2893793  63.8209306  29.3064834  47.9696027  63.2950364  30.6892921
  12.2859947  36.6616197  17.0730545  12.5125591  35.7320590  17.0444443
  11.4069693  36.6823621  17.4513580  58.2648993  67.9244423  54.1634846
  57.9119301  67.5701141  53.3473396  58.7862444  67.2098112  54.5291805
  59.0536524  13.8280721  33.0513908  59.6477337  14.5545669  33.2398178
  58.2056172  14.2452951  32.8997661   0.3567839   2.1612343  34.5785737
   0.5920840   2.5352940  33.7294865  -0.5809068   2.3332390  34.6645021
  72.6368544  37.1017003  29.2269206  73.4427640  37.4215603  29.6324229
  72.7998617  37.1671152  28.2859755  47.5433968   1.2196941  17.3451473
  47.1180530   2.0755072  17.3989727  46.8206002   0.5978985  17.2604801
   9.1064519  23.4951138  49.0098381   9.2953545  22.9700089  49.7875357
   8.1659764  23.3854485  48.8694382  29.0420127  30.6005406  62.3304892
  29.1721177  30.4561996  63.2677555  28.1771827  30.2325010  62.1492577
  10.2055924  15.0546212  20.9260799   9.7764628  14.7139258  20.1412155
   9.4890945  15.2156921  21.5400173  28.6721561  64.8058616  11.3862182
  27.9757477  65.3145395  10.9708931  28.8055218  64.0600811  10.8011867
  73.1985918  30.3232217  53.4118032  74.1029090  30.3138447  53.0981874
  72.7577695  29.6512866  52.8917933  45.0266396  50.3928438  60.1865768
  45.7661253  49.9284020  59.7945499  44.7546297  51.0193959  59.5159960
  50.9311166  61.8594837  28.9148355  50.7016555  62.6409006  28.4118724
  51.8033972  61.6204929  28.6013985  37.7145839   1.8462370  41.8013668
  38.0756116   2.5559458  41.2701368  37.5894356   2.2348902  42.6671124
  47.2303859  58.0171333  13.7388231  47.2128407  57.1075498  14.0364553
  48.0547348  58.3646761  14.0792515  33.2234065  47.9630886  12.5865795
  32.7396105  48.4902106  13.2224371  34.0999732  47.8798305  12.9619886
  73.2629302  27.0035768  21.8478513  72.4845508  26.4467859  21.8663049
  73.1992534  27.5307465  22.6442623   7.1337962  32.8588796  62.7498770
   6.7941850  32.3886895  61.9884205   6.5125543  33.5741878  62.8863382
   9.5230723  27.1891968  21.4147617  10.1225425  27.2480993  22.1586754
   9.4895697  28.0788408  21.0631325  24.6915460  14.1201198  28.9462543
  24.3452621  14.5858371  28.1850529  25.1647854  14.7888565  29.4412971
   9.8114431  37.4275827  41.2219477   9.1274399  36.9173717  41.6556025
   9.6772218  38.3223677  41.5343189   3.2828996  13.1904066  40.9375143
   3.4617513  13.6410153  40.1121664   3.1402355  13.8952780  41.5692043
  10.0372747  39.4835365  24.2077400   9.5376686  39.0836518  23.4958984
  10.9117476  39.6159352  23.8416817  35.2888742   6.7769301  44.6392345
  34.4013086   6.4220625  44.6895456  35.6566444   6.6265959  45.5100822
  53.1924534   6.1377740  63.2252645  52.2594166   6.1611962  63.0128193
  53.6191845   6.5535438  62.4760866  75.3493611  64.4491564   9.9920132
  74.7250382  64.2311774  10.6840660  74.8098771  64.5609461   9.2092611
  23.8381166  22.6792394  16.9915535  23.3967642  22.5793301  16.1480762
  23.2558314  23.2425509  17.5013210  63.3214966  37.6292224  10.0222303
  63.1697027  38.5711838   9.9454262  63.9519111  37.4309636   9.3297722
  27.7909732  26.6183376  37.0905709  28.4609270  26.3416696  37.7157497
  26.9618058  26.4541125  37.5397325  38.3717207  38.3473036   6.9927694
  38.7884728  37.4913203   6.8935634  39.0512589  38.9014959   7.3766090
   3.5394065  15.8858628  19.0507652   3.1059472  16.7334027  18.9506676
   3.8387243  15.8758159  19.9599125  76.0586312  37.7951860  55.7938671
  75.8423132  38.3929920  56.5094566  76.0673943  36.9285297  56.2001419
  42.7223507  71.7191087   3.8989116  42.6310889  71.5066300   4.8277571
  41.8874065  71.4581119   3.5103514  15.0650124  47.1069490  24.8123314
  15.9371213  47.1988641  24.4286587  14.4878713  46.9603692  24.0628959
  49.5107882  24.0290923  35.5345966  49.6229447  24.7865338  36.1089947
  50.3566997  23.9329476  35.0970794  72.8558032  54.0682720   1.5524675
  73.6487404  54.5946847   1.4506199  72.1452300  54.7089087   1.5825083
  44.3153027  70.5393349  21.7048981  44.6705584  70.9621869  20.9230854
  43.4511069  70.2272020  21.4366295  21.7231321  58.5821819  44.6770811
  21.0497856  58.8615465  44.0567636  21.2504697  58.4453535  45.4981184
  24.4410992  33.5030651  13.9331591  25.0207257  32.7608395  13.7617993
  23.5612631  33.1261206  13.9276981  41.2324456  63.7173592  49.4282104
  42.0445529  64.1673862  49.6609928  41.2672142  62.8936301  49.9145271
  25.7303882  22.6665688  30.1008797  26.4486504  22.1974611  29.6763015
  25.2034736  23.0040979  29.3765402  27.7347527  54.8705374   7.6457264
  28.1584197  55.6092845   7.2087004  28.3481727  54.1438697   7.5366308
  24.0685630  11.9306493  57.8574896  23.2806087  12.3394847  57.4994230
  23.9463878  10.9947646  57.6980352  11.4424765   4.2193469  63.2164097
  11.9958019   4.3924487  62.4547720  10.8195353   4.9459773  63.2300043
  53.7785164  40.5012751  55.5823946  54.4588628  39.8362589  55.6878090
  53.2028189  40.3766537  56.3368940  54.8810784  58.2848702  17.2253563
  53.9499132  58.3823572  17.0262100  55.1264636  59.1143261  17.6352550
  35.9164429   1.7340930  46.8280172  36.7678881   1.8535206  47.2487450
  35.8273411   0.7858386  46.7325926  21.6381049  12.4617887  60.1930809
  22.2298741  12.2329056  60.9097767  22.2129798  12.8000832  59.5065641
  17.2105277  24.5661521  58.3204031  16.2732244  24.6772361  58.1611776
  17.2571206  24.0052867  59.0946722  50.2955929  66.5024625   4.8747970
  49.7168795  66.6352426   5.6255915  50.4045669  67.3760139   4.4989445
  20.3552017  73.2419334   5.9406759  20.3079108  72.6936637   5.1574804
  19.4560859  73.5395943   6.0793163  38.0292753  55.3638743   5.5192377
  38.2906715  54.7214948   4.8595049  37.4113337  55.9362792   5.0645592
  65.0655786  64.7380482  36.1229851  64.5147125  65.4031621  35.7101871
  65.0179163  63.9868675  35.5316402  56.9713584  39.0542006  49.2509556
  57.4044100  39.9063921  49.2012978  57.6801339  38.4352160  49.4262505
  12.7859096  20.6862901   8.8629820  11.9807247  21.1807858   8.7100603
  12.5056867  19.7711574   8.8784410  10.4631361  50.8974043  50.3736019
   9.6126040  50.4702011  50.4751968  11.0822471  50.3018561  50.7958031
  34.7874091  51.5018354   2.2907068  33.9318029  51.1104952   2.1145727
  35.0636385  51.1107014   3.1195309  72.7912739  36.1034703  53.9260340
  73.1382677  35.3707314  53.4171915  73.5346752  36.6978264  54.0276527
  58.1387438  -0.1123433   9.7325565  58.2039084   0.6831689  10.2608969
  57.2140692  -0.3554134   9.7786619  67.8488346   6.9833417   5.0667764
  67.3464187   6.3920446   4.5062591  67.6871629   7.8536649   4.7025873
   0.0445988  19.5038581  54.3988371   0.4685419  19.8669767  55.1764297
   0.7163516  18.9551437  53.9940023  33.3730173  32.1525478  33.1049109
  34.0415215  32.2184968  33.7868094  33.7104893  31.4901686  32.5019193
   3.3280620  14.9053454  50.1517439   3.8477963  14.8721790  49.3486214
   3.0674297  13.9973283  50.3060389  34.1208950  57.6408087  15.1122286
  34.9018679  57.1360384  14.8852493  33.7611572  57.1938764  15.8784344
   3.7131024  44.7501354  17.9253341   4.1096736  45.3244285  17.2702457
   3.9582921  45.1392149  18.7648250  66.9171460  12.4232574  21.0208370
  67.8701241  12.3780770  20.9432270  66.7490144  13.2809873  21.4110424
  25.8769417  10.9359896  28.1759715  26.2505507  11.7399001  28.5370469
  26.6366577  10.4011548  27.9457211   9.7573543  13.4627807  47.3640347
   9.8206085  12.5311422  47.1536016   9.0599322  13.5138774  48.0176544
  51.6119304  25.1873279  42.0359898  50.8802167  25.7887149  42.1744251
  51.3845602  24.4114995  42.5484562  19.0706901  62.5146066  33.9252426
  19.0340874  61.8802367  33.2093670  18.1642345  62.8005253  34.0384723
  64.8857132  49.4409715   0.6875040  65.1307360  50.3618108   0.5966760
  64.9836270  49.2581211   1.6219618  22.0616579   6.0616559  60.5674696
  21.3053155   5.8491713  61.1143064  21.6974378   6.5674198  59.8409843
  27.8809619  24.8087072  56.4806843  27.2942472  24.9627090  55.7402229
  27.8126526  23.8688970  56.6489697  53.8707784   2.9016109   6.3161423
  54.6210319   2.3758168   6.5934374  54.0984234   3.1976600   5.4347994
   3.9062253  24.7821307  60.9735870   3.2073867  25.3954220  60.7461452
   4.4523877  24.7395587  60.1886511  28.0159799  65.5426703  23.8854076
  28.1588262  66.2412940  23.2468464  28.5348199  64.8083364  23.5570862
  69.8524275  12.2492123  44.7469807  69.3498722  11.8409920  45.4519796
  70.5382821  12.7428913  45.1965523  71.0196093  19.0034997  55.1536798
  70.4987475  19.4537950  54.4887209  71.5072545  18.3392382  54.6666574
  51.2349193   1.3789697   9.2395737  50.4273698   0.8800645   9.3628265
  51.9345397   0.7445879   9.3955328  75.8009274   7.7810140  24.5314647
  76.7307909   7.9197021  24.7113277  75.7786258   7.4341102  23.6396171
  36.7234997  70.1990996  26.3231327  36.0765824  69.5037209  26.4422085
  37.5640015  69.7775303  26.5022041  44.1627375  67.4433814  21.4724209
  44.8245672  67.1412502  20.8503868  44.2337481  68.3977471  21.4529945
   4.3778285  33.4615517  43.6940670   3.6133632  33.7562585  43.1991196
   4.0444708  32.7614641  44.2552996  67.2414557  71.3254438  13.3928205
  66.3423220  71.5962897  13.2072498  67.3715226  70.5433308  12.8565265
   5.9690076   9.8475820  58.9755011   5.8674997  10.6124175  58.4089708
   6.2663829   9.1524661  58.3884621  47.0363569  18.2652652  56.2892628
  46.4412022  17.6837611  55.8161068  46.4594460  18.8595939  56.7690372
  69.2193170  20.8243604  16.8200542  68.3103211  21.1228175  16.8497612
  69.7365303  21.6295667  16.8390705  64.9260870  30.6433988  49.9259901
  64.9553469  31.5856576  50.0918865  64.9266329  30.2466989  50.7971144
  67.4103943  42.3040247  63.9125824  67.7456334  42.4713326  63.0317545
  67.3298422  41.3514662  63.9612722  74.6543548  19.6764231  40.2132130
  73.8603842  19.1598487  40.0753927  74.3372524  20.5254841  40.5210638
  24.6148014   6.7411309  60.1725578  23.6665201   6.6117644  60.1565456
  24.8280811   7.0585310  59.2950583  36.6230679  18.2183361  56.5997934
  36.7605805  18.2888627  55.6551504  35.6789517  18.0931270  56.6957092
  43.6601499  50.5822145   1.0536625  44.4337908  50.7315503   0.5101444
  43.7507323  49.6785878   1.3561298  63.8408645  14.5869632  10.3115942
  64.0709157  15.4504628  10.6546261  64.6726425  14.1147657  10.2740862
  28.0569172  26.6541052  52.6583910  28.8822460  26.4642239  52.2122908
  27.9995990  25.9925890  53.3478403  43.4958259  49.7713815   8.9235689
  43.0764357  50.2106296   8.1836988  43.1949881  48.8645373   8.8655855
  20.5806017   2.0890202  41.4462709  19.8706317   2.6957929  41.2365055
  20.8403635   2.3231567  42.3372984  15.6018806  46.8391609  57.4022865
  15.8226478  47.7517223  57.2159576  14.7395098  46.8809414  57.8155708
  22.4314666  19.0979373  42.9076433  21.5792656  18.7819684  43.2078981
  22.2731686  19.4008219  42.0135355  30.2799392   2.1019329  39.1737700
  30.1834226   2.3567565  40.0913620  31.2244725   2.1164383  39.0192413
   1.8264063   2.6018405  54.1272974   1.3786079   2.2277205  53.3685207
   1.9134508   3.5321251  53.9193916  55.4576550   6.6994805  19.4287159
  56.1627145   6.4959712  20.0432922  54.6705265   6.3432403  19.8407223
  60.1249959   3.6257978   4.5519878  60.0277872   4.2865892   5.2376510
  59.2347850   3.3111568   4.3946459  69.5144907   2.8530630  63.2728052
  69.6216933   2.4342522  62.4187946  69.6375910   2.1443209  63.9042807
  56.9912863  12.6589131  22.0981002  56.2620783  13.1979907  21.7916989
  56.8075275  11.7867279  21.7491651  65.6648155   7.0663018  23.8962032
  65.7263990   8.0121274  24.0298130  65.2844139   6.7338271  24.7092106
   1.0983153   2.1565376  63.0786133   0.9619959   2.4631113  62.1821404
   2.0316561   1.9484821  63.1212711  33.8129339  53.4317492  13.9618923
  33.8586781  52.6189087  13.4584762  34.7260235  53.6971186  14.0717937
   4.2797983  41.5186787  47.5242615   5.1758432  41.7428207  47.2730732
   4.2307156  41.7354441  48.4553051  15.5819643   6.5322328  41.7991066
  15.8832479   6.8529522  40.9490490  15.3600049   5.6141722  41.6437626
   1.4304423   8.5945660  41.9195366   1.7486341   8.3813202  42.7967548
   0.5689274   8.1803566  41.8699884  26.0461354  15.6432104  59.1378975
  26.3377547  15.6886590  58.2273388  25.3889370  14.9473083  59.1444683
  77.0170259  70.8150629  56.8623829  76.0615849  70.8048612  56.8052959
  77.3090457  70.9676624  55.9636784  78.3311206   2.9097855  30.3703046
  77.4274444   3.0096310  30.0709200  78.8133141   2.6371315  29.5896769
  59.8736350  59.2723666   6.7575313  59.2584769  58.6386572   6.3884451
  59.3289820  60.0207149   7.0015814  23.3279351  73.8339554   0.5338766
  22.9169316  74.3495260  -0.1600216  23.7806646  73.1283890   0.0718738
  53.0333487  63.7548553  11.1331322  53.7621013  64.1572152  11.6056349
  53.2462684  63.8846789  10.2089884  15.5664432   7.4312460  21.7861700
  15.6607723   7.0365947  20.9192300  15.7849455   8.3538133  21.6544175
  45.6933875   4.1817947   8.2241155  45.8615466   3.3714433   7.7431967
  45.6302936   4.8541875   7.5457861  11.3430512  47.1300745  63.5953093
  11.2562931  48.0085087  63.9655209  12.2695518  47.0571709  63.3661509
  70.2526894  30.4635906  49.8096085  70.7114473  30.0072861  49.1042328
  69.7433004  29.7802997  50.2453518  59.0744665   3.4487113  45.0183487
  59.3468061   3.4673983  44.1008997  58.2885924   3.9944807  45.0460720
  54.9963681  29.9090074   4.3772175  55.1960842  30.4858928   3.6399605
  54.7883598  29.0667479   3.9727880  13.7256467  10.2431548  43.0531025
  14.1168189  11.0111964  43.4694290  14.0526223   9.5018423  43.5627842
  49.0706173  22.8884743   7.0188238  48.6625711  23.1220923   7.8525831
  48.3360092  22.7789687   6.4150097  17.7242172   3.8565421  54.1136980
  17.1601522   3.5624051  53.3984756  17.1237707   4.2540905  54.7442961
  53.6984220  10.4241896  62.0181274  54.0654889   9.9079752  62.7357721
  53.1760421  11.0991919  62.4513960  48.1635539  54.4249879   5.3978922
  48.6984555  55.2177034   5.4392483  47.4972431  54.6197663   4.7388603
  64.5660487  13.2114434  45.5737352  64.8839906  14.1141117  45.5554152
  64.8061910  12.8555155  44.7182322  62.6514824   3.9196630   7.5661566
  63.4126623   4.3847318   7.9133560  62.0539041   4.6132894   7.2868397
  19.2732990  17.1383512  51.8635941  19.6438193  16.4297676  51.3374233
  18.7812948  17.6695466  51.2374973  21.6221380  22.8838158  36.9642711
  22.4615216  22.4238348  36.9551468  20.9905505  22.2240186  37.2506213
  52.3258924   7.1297568  35.5078220  52.4575520   7.9567218  35.0441122
  51.3756752   7.0166409  35.5307078  26.6821146  15.7647896  25.3224778
  26.0436511  16.0904169  25.9569573  26.6674638  14.8142493  25.4342341
  11.4716379  56.3640605  16.0066654  11.9698826  57.1503721  15.7837297
  11.2107126  55.9982096  15.1615002  17.7524576  62.4512373  24.8568394
  18.3323125  61.7962585  24.4682457  17.6808474  63.1337606  24.1895534
  19.8660958  33.0051804  54.5625210  19.6348572  33.8623643  54.2047548
  19.4982851  32.3784614  53.9394903  10.3477156  14.9973524  55.9397697
   9.5404041  14.5735681  55.6484175  11.0475564  14.4689715  55.5560112
   2.7538535  51.3893557  45.5800009   2.6241422  50.5038977  45.2403307
   2.5290620  51.3251305  46.5082121  61.3953057  23.0034876  56.9133902
  60.6869975  23.2826161  57.4935818  62.1937588  23.2990646  57.3508120
  39.1848885  57.8958908  43.9809942  40.0332927  58.2140246  44.2895889
  39.1317307  56.9983867  44.3094635  73.5297274  46.1294118  43.6229706
  73.5273146  46.9881335  44.0458488  73.5808276  46.3234726  42.6870441
  47.5005213  61.5172540  13.1782438  47.6869742  61.8352901  12.2948839
  47.7893344  60.6046997  13.1701900  56.6596834  37.2749966   8.6670973
  56.8726031  37.0483895   7.7618076  56.2451188  36.4876697   9.0199186
   7.3582653  73.8463293   1.9005920   6.9146124  72.9981624   1.8966438
   7.9329435  73.8195931   1.1355688   8.8318189  57.1539513  58.1438971
   9.2589124  56.8261174  57.3524714   8.1400784  57.7314487  57.8210592
  25.5809956  42.0635538  31.0821678  25.8672299  41.2848817  31.5596344
  26.1777504  42.1197306  30.3358795  65.1478874  63.8524261  48.3055973
  64.4956612  64.5441583  48.4166765  64.9167763  63.4364537  47.4750614
  68.8752726  41.5776920  51.2653589  69.2691943  41.4094591  50.4093456
  69.5755598  41.9846678  51.7754602  49.4337050  66.3830291  11.0727884
  48.6843649  66.5351163  10.4969503  50.0746123  67.0442592  10.8115532
  76.8665702  12.6429211   0.7485534  77.2487647  11.8463789   0.3802063
  76.2935431  12.9753052   0.0576164  19.8245288  64.4213186   8.8502170
  20.3219939  63.6051618   8.9016296  20.4852153  65.1097308   8.9264633
  20.1948903  29.7086631   3.7012340  19.6727482  28.9236771   3.8667538
  19.6193448  30.2752094   3.1874182  76.2729127  36.7014997   5.6071092
  76.4704020  37.2700956   4.8628475  75.5709273  37.1541051   6.0746528
  20.5019037  42.1436326  12.3571112  21.3598565  42.3779272  12.7110245
  20.6938980  41.5201931  11.6566135  14.1511786  29.0301228  50.4817390
  14.2709208  29.6758056  49.7853279  14.5507479  28.2308555  50.1386023
  25.9329065  70.4424367  48.6640120  25.5078109  70.7327757  49.4710016
  25.7842907  71.1568985  48.0445862   6.5959024   7.3337376  57.6746607
   7.0781207   6.8676871  58.3576632   6.9616598   7.0022386  56.8545628
  36.9828919  66.4638053   5.6572868  37.5869731  67.0430003   6.1218836
  36.5664855  67.0261775   5.0041582  42.5566856  52.4222349   2.6227810
  41.6951338  52.1025108   2.8906156  42.8870562  51.7498957   2.0269205
  67.3598973  10.5919251  42.2544241  67.1317021  11.0580048  41.4501095
  68.3147017  10.6433949  42.2983932  48.5703228  11.8075652   7.9330875
  48.4210272  11.7340942   6.9904568  49.0928139  11.0364719   8.1536485
  13.8505685  21.9678140  62.3940563  14.4579375  21.5783596  61.7650414
  13.9155340  21.4080787  63.1678200  12.5464869  15.9722698  51.8011951
  12.2294605  16.2700903  52.6538563  11.7977333  16.0830128  51.2152481
  73.6228235  33.7911410  25.7786323  73.3216699  33.0104156  25.3138687
  72.9216988  34.4304366  25.6523182  11.0480905  43.1741381  57.1475792
  10.5479670  42.9877853  57.9421711  11.9435596  42.9119492  57.3611784
  77.3522790   0.1190885  61.0407400  77.4707790   0.8621816  60.4491282
  76.5741780  -0.3291982  60.7093334  44.6355724  20.8220816  63.3274603
  44.5445776  21.7347765  63.0537128  43.7463474  20.5504537  63.5549021
  60.1888911  59.8358999  14.1612913  60.7221071  60.2512609  14.8390724
  60.6379048  60.0443660  13.3420469  27.9800844  17.8337431  51.3777876
  28.1484509  18.5669959  50.7859850  27.3962140  18.1939089  52.0453262
  27.7665758  29.3061447  58.6266899  27.4402475  29.3738294  57.7293825
  27.1690726  29.8495102  59.1404724  46.0989777  55.9803842  20.4994537
  45.9532050  55.0352500  20.4581692  45.3113548  56.3613914  20.1112320
  59.9117438  65.3410827  11.9901611  60.1868717  65.6774794  11.1372949
  59.0132133  65.6546746  12.0928051  28.7972808  15.4156423  59.5045137
  27.8494525  15.3803885  59.6334028  29.0224361  14.5568895  59.1466331
  27.0475160  73.2393466  10.1457025  27.7910402  73.8012658   9.9274160
  27.0401669  73.2127605  11.1025049  39.6854631  60.0627838   7.9626800
  39.2336229  60.8429204   7.6410295  39.2100254  59.8212873   8.7575867
  38.4556834  61.7949973   5.9462311  37.9681341  62.4429403   5.4376032
  38.0609015  60.9564220   5.7071258  73.2100637  24.2492814   3.3756115
  72.5779279  23.8485475   2.7789118  73.1282528  23.7450595   4.1851188
  57.3000685  64.1470395   8.2607700  57.6587597  63.4930097   7.6609232
  56.8870751  64.7947990   7.6897432  71.7126986   7.3954505  53.5788870
  70.9814134   7.8689021  53.9754915  71.9305500   7.9027361  52.7969408
  30.4992897  61.4583503  56.8828728  29.8631615  60.9727489  56.3577415
  30.0118420  62.2138296  57.2113182  28.7638354  25.7524371  64.2200422
  29.5065212  25.9584737  63.6524153  28.2261157  25.1528573  63.7027454
  58.3021132  60.1160799  10.6227447  59.1355554  59.7868548  10.9592249
  57.9347888  60.6227742  11.3470127  52.0344973  38.6264849  61.0309839
  52.6043844  39.3625879  61.2537241  52.4395943  37.8720021  61.4586306
  47.4467246  20.5691953  10.6938078  47.6099174  21.4169021  10.2803041
  48.2996909  20.1348252  10.6943895  40.1671012  28.0508895   7.7229931
  40.9559508  28.3815951   8.1526186  40.1998635  27.1038528   7.8582002
  54.0339461  21.7523241  48.2220984  54.5270267  21.2045217  48.8328505
  53.1938520  21.8992257  48.6567211  28.0366468  29.3540430  37.5258446
  27.9125643  28.4144139  37.3919296  28.9774013  29.4529366  37.6722455
  53.6738244  72.2170864   1.5599014  53.5988466  73.1119309   1.2284424
  53.1146566  71.6994463   0.9805824  64.1598244   6.4512963  26.0776855
  64.5249291   6.4578528  26.9624855  63.3268590   5.9879918  26.1657192
  19.2780912  10.8232832  32.5655150  19.6989036  11.4678168  31.9965482
  19.9071264  10.1037478  32.6185966  75.2875686  43.4258842   9.2818308
  74.6271679  42.8144217   8.9559221  76.1178041  43.0770779   8.9573735
  18.0616045  25.1086283  41.0859776  18.7018096  25.0486302  41.7950392
  17.7802026  24.2054009  40.9402943   8.8886635  21.0639138   2.8872873
   9.3677156  20.5123181   2.2688343   9.0825097  21.9592137   2.6096250
  37.4168674  63.5908638  29.2806389  37.7391914  64.4808756  29.1384460
  36.6898922  63.6946379  29.8946144  65.3120764  19.0596862   3.6696388
  65.6332083  18.5131354   2.9524280  65.0582095  18.4365792   4.3504669
   3.2267444   3.8439651   8.8375809   3.1702797   3.3759255   9.6706344
   3.5937946   3.2040067   8.2276966  49.5789433   7.2087556  58.9673328
  49.7742558   6.5312213  58.3200073  48.8762999   6.8358827  59.4997692
  16.1927724  26.7957139  35.8226132  16.2784743  27.6737642  35.4512405
  17.0844662  26.5531135  36.0721302  74.7232850  25.5744119  10.4514887
  73.7829788  25.6908412  10.5874969  74.8999365  26.0075564   9.6163751
  34.8482291  67.8427373  26.8264820  35.2060882  67.0111738  26.5155651
  34.8820565  67.7761875  27.7807667  10.3785125  73.4601222  10.1613094
   9.9716238  74.2412053   9.7863581  11.2008528  73.3643614   9.6808721
   1.5810387  31.8302245  17.3080875   2.3243420  32.1358628  16.7881729
   1.7517512  30.8984227  17.4453403  60.6112639  64.5562135   1.7181970
  61.2809864  64.3500505   1.0661222  60.0083867  63.8134490   1.6854240
   0.8172147   5.7472081  23.3071186   0.0632040   5.2156110  23.0519726
   0.4349844   6.5377660  23.6881115   6.3907874  45.2686882  41.9246960
   6.4657849  46.2184048  41.8316984   7.2958285  44.9600792  41.9682121
  64.5240680  62.4945842  15.1263191  65.2915970  62.3257314  15.6727840
  63.9767591  61.7168747  15.2351953  38.6140902   7.0907493  14.6378805
  37.8703113   6.5394349  14.8809435  38.8846631   7.5032134  15.4581835
  59.7473065  60.4170905  20.6525566  59.7301237  60.3160511  21.6042568
  58.8590685  60.1964794  20.3722050  53.4485340  30.6541348  61.6464710
  52.5466919  30.9745407  61.6625643  53.5162497  30.1705670  60.8231783
  11.6670334  53.7743425  53.9162016  11.4208496  54.5756626  54.3782711
  11.8578947  54.0617371  53.0233335  18.6048095   3.9234157  28.0752327
  17.8346269   3.5106607  27.6844837  19.2134158   4.0346665  27.3448517
  76.7501576   2.0427008  12.4547054  76.0988768   1.4228292  12.1263410
  76.9590981   2.5929089  11.6998197  76.2376315   2.0307478  62.5474072
  76.7983133   1.4156279  62.0746565  76.5152843   1.9549212  63.4603119
  62.6558824   0.6971665  21.1495258  61.8530531   0.2678986  21.4452030
  63.3067258   0.4718943  21.8142750  48.3531754  22.3106713  39.2283680
  48.5731937  22.5702090  40.1230575  47.5511639  22.7937312  39.0292217
  14.5331550  26.3444853  55.6828976  15.1341975  27.0865893  55.6175995
  14.2159092  26.2138629  54.7892952  55.2063099  68.1146751   0.9429123
  54.3029801  68.3519183   1.1525442  55.7061044  68.9166795   1.0953190
  75.6658602  49.4886923  33.7079573  76.2687647  49.5276690  34.4503975
  75.1422849  48.7030363  33.8655782   2.7270973  27.5267148  53.8091993
   2.3652650  28.4127259  53.7920618   2.2587888  27.0904803  54.5209694
  66.7428986  66.1533390   4.9836876  67.1691100  65.9095012   4.1620304
  67.4476687  66.1431299   5.6313183  67.2253767  55.5570720  43.2071354
  67.7121273  55.8734106  43.9682056  66.8228880  54.7404586  43.5027363
  57.5918596  68.4143833  63.5880327  56.6382685  68.4930936  63.5615635
  57.7699696  67.5416491  63.2375431  59.4534321   9.1687961   2.4619724
  58.6044951   9.3805928   2.8501465  59.2634238   8.4681363   1.8381073
   3.7664358   8.2075925   7.5845148   3.0132882   8.4341283   7.0389177
   4.4735543   8.7652726   7.2601606  53.8906614  67.2201930  18.0054333
  54.4187204  66.8094264  18.6900188  54.3916146  67.9943644  17.7486564
  70.9804542  16.7810245   2.6533653  70.2001078  16.9075818   3.1930639
  71.2799533  15.8977647   2.8687336   8.3594935  22.2439046  24.3574097
   8.6123173  23.1022496  24.0174724   9.1565935  21.9025846  24.7628261
   6.4058334   1.4582883  62.7638054   6.8306446   0.8465613  62.1625137
   7.1202695   2.0004831  63.0982304   0.4476743  41.9477224  51.9232321
   1.2007386  42.1756458  51.3780928   0.6066678  41.0406017  52.1841526
  48.3879246   5.7691522  19.8073341  47.8088923   5.9075685  19.0578033
  48.9567347   6.5389676  19.8159458  62.3192497  29.0726562   3.9487554
  62.1128126  28.9781232   4.8786356  62.2438355  28.1862874   3.5953476
  65.2321632  10.3259416   6.0890724  65.2132042   9.7870679   5.2981951
  65.9533866   9.9671645   6.6061260  28.2237983  65.4681110  60.5215597
  28.0354476  64.5446253  60.6886673  28.7032437  65.4686689  59.6930885
  51.4333717  53.5084795  25.2114631  52.3377601  53.4637974  24.9011089
  50.9363905  53.8236784  24.4565536  36.5997410  17.6311064  60.3634357
  35.7161784  17.5875139  59.9978542  36.8330455  16.7188513  60.5354595
   7.7729237   3.1570244  41.0494328   8.1611401   3.4909073  40.2407074
   8.3444852   3.4861204  41.7431545  53.2186262  61.9196783  32.1131851
  53.1687466  62.3371993  31.2532856  52.3071519  61.8421660  32.3950340
  61.6539971  56.4611457  20.5176594  61.4031760  56.1054717  19.6651222
  61.8834106  57.3730408  20.3386452  63.8681598  17.9585548   0.5579140
  63.4411211  18.4425445  -0.1489256  63.3828957  18.2061524   1.3449623
   3.4407656   9.4913859   2.9587747   4.1866295   9.8774715   3.4179642
   2.7025287  10.0583406   3.1819250  72.7633259  47.4115705  62.2093439
  72.8878841  47.6138830  61.2820959  71.8233767  47.2525740  62.2956371
  32.8649794  59.9511198  50.3451347  32.2935771  60.6199780  49.9678278
  32.8081476  59.2156831  49.7351074  47.2298733  73.2797419   2.9648210
  48.1840006  73.3363234   2.9131319  47.0352045  72.3576175   2.7974083
  62.7964012  53.1575166   7.3557474  62.5038735  54.0590881   7.4892761
  62.2836963  52.6443730   7.9802849  75.1038901  58.2733975  12.6307346
  74.2634360  58.7313686  12.6191475  75.4562918  58.3972131  11.7494203
  64.3981119   6.5311856  21.5323688  64.8408742   6.6981120  22.3644306
  64.8257907   7.1204801  20.9110405  54.5523022  19.0382238  32.0365288
  54.9217571  19.3309064  32.8696396  54.4639583  19.8387714  31.5192749
  71.4570899  18.6197372  21.8113186  71.3327725  17.9093118  21.1819794
  72.2767921  18.4047313  22.2563888  64.7722236  58.4947001   7.8414680
  64.0763298  59.0585552   8.1791593  65.0979225  58.0288397   8.6116125
   3.8469236   0.2249999   9.5791866   3.6036794   1.0867663   9.9174501
   3.2215230   0.0593395   8.8737346  30.1382256  11.7665803  41.9806242
  29.6595144  11.6377294  42.7994394  29.4589829  11.9559526  41.3333225
   0.5189490  61.6099310  55.5696344   1.2445448  61.1261272  55.1750755
   0.9394555  62.3250723  56.0471010  61.5857116  72.1465598  14.0729238
  61.5125791  71.2655889  13.7058069  62.4593035  72.1715723  14.4633676
  58.5084001  13.3657633   8.5520889  58.7025682  13.5704361   7.6374103
  59.0681378  13.9581357   9.0541078  59.2693366  10.5534310  22.0025493
  58.5292877  10.0470204  22.3373749  59.8722591   9.8957963  21.6558029
   1.8781845  25.2274938  16.7218735   1.4095275  26.0145850  16.4442398
   2.0916192  25.3875728  17.6411487  46.6070239  59.3137489  33.7000801
  47.4872223  59.0992318  34.0090610  46.1519293  58.4721862  33.6702492
  25.7046494  71.0610090   7.9665233  25.5828167  71.0675989   8.9159157
  24.8426465  71.2804018   7.6129009  56.2122742  69.1470514  24.9019291
  56.2965623  69.9383293  25.4339077  57.0752136  69.0331279  24.5036938
  13.9347713   1.7388721   6.8167497  13.2038014   1.9432349   7.3999693
  14.0047137   2.5024266   6.2437584  50.4243028  10.6225152   5.9099724
  50.6278381   9.8592038   6.4504864  50.9253733  10.4869790   5.1057388
  18.6636861   5.8507199   4.3451645  17.9251321   5.8099694   4.9527075
  19.0591772   4.9802060   4.3901970  48.4958641  42.1079122   8.7696840
  48.4246937  43.0278187   9.0245153  49.4041435  42.0079313   8.4846117
   8.4646638  68.7605343  40.0739384   8.3404215  67.8378263  40.2962160
   7.6417621  69.1802284  40.3247786  64.2870310  20.4840708  31.2549019
  64.0098539  19.7328007  31.7793036  63.8342741  21.2304044  31.6476250
  37.4239159  52.2295676   9.5564319  37.8660775  52.4978696   8.7509872
  36.9102383  52.9950689   9.8140766  16.5945626  70.0561772  44.7622921
  17.3204804  70.6488763  44.5674087  15.9995986  70.1536022  44.0188171
  41.1415700  55.7126437   5.8014871  40.1938633  55.7870542   5.9134962
  41.5088920  56.2109028   6.5315868  28.7080292  55.3870927   3.2605221
  28.0366958  55.4132007   2.5787165  28.9170677  54.4578241   3.3553650
  73.5339419  40.2753599  22.0970585  73.3085886  39.3568832  21.9492485
  72.7554528  40.6495933  22.5095321   8.6580603  28.9591260   3.7300588
   9.3443863  28.8274331   3.0759622   8.9429466  28.4421201   4.4835712
   4.8786037   7.1225019  53.7703754   4.2967932   7.1155591  54.5304252
   4.8045795   8.0102582  53.4201767  46.1085061  69.3546568  23.5928966
  46.8625943  69.1182433  23.0528118  45.4906062  69.7533427  22.9801323
  15.1869559  27.5636506  27.8257585  14.6395326  28.3303976  27.9950428
  14.8696530  26.9023275  28.4407425  37.9529790  55.8372639  26.6186764
  37.4422745  56.4608179  26.1023475  38.8618866  56.1098109  26.4928390
  74.0135548  58.9172888  63.0272102  73.5078365  59.6414804  62.6583910
  74.0902293  58.2886982  62.3094130   0.8399797  25.2200055  43.1320524
   0.0886199  24.6281147  43.1688786   0.7919548  25.6141162  42.2610760
  34.9423727  66.5409783  56.9805098  34.1303142  66.0368690  57.0322132
  35.4101404  66.1657253  56.2344456  19.6315157  50.1288748  58.4738779
  19.4128180  49.2711496  58.1095791  19.2122614  50.7541513  57.8827047
  73.6868209  12.4584234  62.1307039  73.7550822  12.4684584  61.1759949
  73.6371076  11.5298152  62.3575258  71.9508715  14.1424270   2.9547073
  72.8061111  13.7355800   3.0935289  71.3583084  13.4070630   2.7986957
  13.0784981  18.4820600  16.6295482  13.3580725  17.8336520  15.9833004
  12.2554080  18.1364675  16.9749691  48.5131995  68.4065257  21.6669514
  48.6112801  67.8585588  20.8882763  48.4750215  69.3006478  21.3273670
  48.4987012  53.6390899  28.5894253  49.1295711  53.0670916  28.1523277
  47.7782551  53.7226473  27.9647590  64.6870954   1.5883250   2.8445865
  65.1421125   1.9687266   3.5959102  63.8173409   1.9875498   2.8640558
  10.8936882   5.1105052  58.2112503  10.5321324   5.5386275  57.4352217
  10.1288652   4.7693124  58.6747885  66.9043008  43.3399630  47.5241470
  67.1455935  43.3287239  46.5979290  66.5200260  42.4776173  47.6820278
   1.4075844  32.3286366  56.1282015   0.7552008  32.7855301  56.6591215
   1.6508606  32.9604769  55.4515743  57.1645895  50.5946694  26.6447784
  56.6204659  51.0406385  27.2938396  57.2247688  51.2133728  25.9168960
  51.8169355  16.8738170  17.3074104  52.3871957  17.1180911  18.0363514
  51.3562584  16.0931392  17.6148941   2.9132906  31.6330838  14.1696775
   3.3647221  32.2824287  14.7089303   2.2127268  32.1238518  13.7400413
   2.5847857   4.2332597  13.4813787   2.8002803   3.9516397  14.3704702
   2.9581396   5.1118560  13.4113266   4.5729749  15.1362939  10.9923841
   5.4629414  14.9930043  10.6704237   4.0493529  14.4641299  10.5562069
  70.6337950  68.9403677  61.5857220  70.3281626  68.5179090  60.7830095
  71.1448780  68.2652330  62.0320559  64.7781153  32.2762675   9.3933298
  64.3331190  32.8623767   8.7812139  65.1811881  32.8611894  10.0349142
  56.6010992  25.2607044  48.9340782  55.8661381  25.1194271  49.5308208
  57.0051614  24.3977341  48.8432312  25.5784774  70.5322027  42.9381514
  26.4671373  70.7107353  43.2457924  25.7003021  70.0825167  42.1019840
  52.5364224  28.9586433  55.4960823  53.2142750  28.7730488  54.8462343
  52.1891300  28.0985054  55.7322693  57.4031878  72.4411583  52.3645258
  57.1333551  72.2751236  51.4612770  56.5815449  72.5283718  52.8477669
  38.4875838  20.9412952  35.2782776  38.4543149  21.6004891  35.9715225
  38.2054393  21.4071078  34.4910957   5.5126731   5.9770484  14.2781975
   5.7813732   6.4421840  15.0704576   5.0955288   5.1777167  14.5995857
  76.6986117  39.0096903  40.9013891  77.0602495  39.1216278  40.0222301
  76.9634347  39.8001742  41.3717461  58.8026253  72.5708567  33.6037781
  58.0703513  72.6220404  32.9894592  59.5606748  72.8632771  33.0977394
   4.4905344  38.7896061  60.9407330   5.2734375  39.3337274  61.0257387
   4.7145966  38.1517339  60.2631283   1.9524997  41.7686796  23.9640975
   2.2066420  41.3987923  23.1186223   2.7782005  41.8772078  24.4359779
  19.8250151  47.4821377  50.1844931  18.8701355  47.4777937  50.1180315
  20.0086880  48.0116272  50.9604692   5.0230313  72.2570168   3.3397772
   4.5137025  72.7759896   3.9622595   5.2611876  71.4670192   3.8249733
  69.5375939   6.7894502  29.1426136  68.8803871   6.1020846  29.2514278
  69.1839691   7.3520274  28.4536411  63.4854309  30.6510624  52.6357746
  63.1281797  31.5390095  52.6238060  62.8253714  30.1335224  53.0969763
   4.4414370   8.7193341  30.0573208   4.5621507   9.6669574  30.1178505
   4.8226659   8.3771892  30.8659221  73.2641275  46.1522336  12.3210718
  73.7060769  46.3851781  13.1375553  73.9754279  45.9946294  11.7002298
  35.4324055  50.7249069  62.8402328  34.9933648  50.5478621  63.6721802
  36.0609889  50.0094509  62.7441263  65.7396157  29.9967380  25.0162365
  66.3484736  29.7975011  24.3050243  65.8803137  30.9257789  25.1987793
  74.3561132  14.9679895   6.7780783  74.5964392  14.9067254   7.7025892
  75.0250156  14.4569917   6.3223554  21.4130561  41.1331220  20.4603245
  21.0854881  40.2520270  20.6408836  20.8000724  41.7136474  20.9114029
  54.7825764  16.0533280  11.1931755  54.1591084  15.5239053  11.6903974
  55.5723377  15.5143352  11.1484768  75.1348750  63.3170186  19.7324039
  75.9729306  62.8718506  19.8577930  75.3207747  64.2361127  19.9246074
  22.1146362  10.3658004   7.0666267  22.0535819  10.9661002   6.3235618
  22.0154063  10.9263415   7.8361608  32.4179530  22.6945901  58.1600571
  33.3131766  22.3835039  58.0257750  32.0329618  22.0618963  58.7664509
  56.0917397  36.0055776   2.1391060  55.2878584  36.5190358   2.0593263
  56.7671557  36.5546413   1.7408945  13.0945484  33.1118054  11.3149978
  12.3394649  33.5512920  10.9239294  13.8425438  33.6557288  11.0682537
   6.1920612   0.9544201  35.2810051   6.3336675   0.2311368  34.6702339
   6.3639848   1.7415161  34.7641327   9.0251772   8.5240312   1.4965059
   8.8224189   7.5938029   1.5954735   8.7379090   8.7386794   0.6090166
  50.6511299  71.4849101   4.3406584  50.1361886  72.1910130   4.7311498
  50.1142756  70.7017432   4.4617559   7.9345648   3.6451144  26.3129665
   7.8699724   3.5558505  27.2638084   8.8173167   3.3401866  26.1031963
  16.9373290  15.6894727   4.4853355  17.5313728  16.4388127   4.5281364
  16.5694015  15.6248612   5.3666307  48.5891215  14.3467994  19.1566803
  48.3102815  13.4324403  19.1073944  48.4255044  14.5984454  20.0655987
   0.7250588  35.2660270  26.5317299   0.5747287  34.9547668  27.4243404
  -0.0439461  35.7996507  26.3314583   0.4703371  15.3475232  21.8366958
   1.2994568  15.8203120  21.9092514   0.4892914  14.9639220  20.9599258
  70.1432712   9.3478437   2.9245521  70.8825691   9.3088765   3.5313083
  70.4709394   8.9429898   2.1214582  71.0684426  30.8867307   6.2589552
  71.4741226  31.7228170   6.0295727  70.5549283  31.0770650   7.0440056
  65.9074394  12.5934013  31.8835902  66.5812603  12.6345524  31.2049842
  65.4721753  13.4448418  31.8408680  48.9956991  57.8905331  23.4294369
  48.6760131  57.8221713  24.3290855  49.1646782  58.8245283  23.3056213
  27.3261754  31.9456906  27.0567085  27.0049350  32.2833295  26.2206318
  27.0284097  31.0362334  27.0780613  62.1551688   3.9085908  18.5015919
  62.7261706   4.6751399  18.4506752  61.9624128   3.6924977  17.5892402
  53.0219406  12.7010245  13.0016281  52.8396669  11.7614217  13.0140974
  53.9348927  12.7716203  13.2804920  17.9797952  34.4408555  20.9691955
  17.1629541  33.9605374  20.8339454  18.6663692  33.7855859  20.8447983
  10.8148019  13.8674254   5.1928856  10.3971998  14.5345159   5.7377054
  10.1078670  13.5309739   4.6421816  47.7735774  10.8703884  53.8526440
  48.2358996  10.1226315  54.2312670  47.6889435  11.4911064  54.5763636
  69.9776761  63.9416514   9.8184921  69.6997897  64.7944675   9.4842531
  69.3046013  63.7033592  10.4559995  60.4421091  63.2165766  55.1371050
  59.8364878  62.7517843  55.7145357  60.4180908  62.7228165  54.3174362
  50.8434963  56.4450741  54.9367523  50.7301044  55.6757069  54.3786812
  50.4655409  56.1886024  55.7779408   0.8573787  31.7292066  29.6833755
   0.6942718  31.6040607  30.6182339   0.9910981  32.6721807  29.5877029
  73.0189617  35.6554504   0.4556324  73.7691720  35.5041833  -0.1192902
  72.3828085  34.9874539   0.2000429   1.3541453   7.9157395  14.1398575
   2.0660035   7.3921628  13.7719442   0.7349674   8.0195041  13.4173014
  13.6272685  17.9984517   2.4724438  12.9156034  17.4849124   2.0902921
  13.2534234  18.3675189   3.2726099  17.7468741  27.3518801  48.5742521
  16.7926204  27.4241114  48.5946131  17.9278731  26.4742422  48.9107323
  22.9834747  64.4951248  51.9978476  22.0497465  64.5554829  52.1996975
  23.1281877  65.1662064  51.3308048  64.4905146  29.8952193   5.6050159
  63.9290924  29.5316596   4.9202778  64.5278092  29.2104669   6.2728168
  65.7204802  22.4646754   9.7110416  64.9796529  22.3084970  10.2967169
  65.8974834  23.4017558   9.7933676  26.1127853  70.0412655  53.4114885
  25.7962775  70.5460119  52.6623011  25.3442740  69.9382114  53.9727402
   1.1591998  56.1549473  55.0739241   1.6623992  55.3482246  55.1844549
   1.3937272  56.6893721  55.8326197  46.6485158  68.0650102  13.6087658
  47.2278158  67.3972283  13.2417347  45.9839395  67.5690328  14.0868618
  19.3544786  18.3493657  13.6329462  18.5097758  18.2541270  13.1928970
  19.8733680  17.6091905  13.3181001  38.5687558  32.9424567   2.6618053
  38.6650150  32.1468206   3.1851866  39.0238444  32.7468629   1.8427374
  10.8101976  40.6633282  49.6311045  10.4587495  40.5583715  50.5152416
  10.8847702  41.6103935  49.5138693  22.4615645  52.4753380  53.1689215
  22.7314711  51.8246794  53.8170147  21.5049076  52.4579620  53.1961393
  30.0420062  31.7153974  34.3571998  30.4390828  31.6333432  35.2242805
  30.5876748  31.1693568  33.7912418  70.2720137   9.9360271  39.9456932
  70.6686719  10.0882764  40.8034374  70.9689756   9.5335431  39.4275429
  53.9760485  36.8884516  58.5709143  54.6528259  36.7735767  57.9038239
  53.1881371  37.1140027  58.0763912  10.1794291  31.0860276  46.9370794
  11.0350788  30.7783437  47.2361231   9.6492386  30.2918744  46.8703604
  77.7845503  73.1159687  30.7339406  78.7115626  73.3408976  30.6546497
  77.3944295  73.4149981  29.9125886  39.8071782  31.6315026  34.5457317
  39.1010492  31.6441674  33.8996269  39.3604867  31.6943593  35.3899814
  76.7075546  24.4285960   3.0787041  77.3860557  24.9157186   2.6111748
  76.1933883  24.0109487   2.3877336  45.5169775  29.7689576   1.5531542
  45.3421898  30.4123969   2.2399284  46.2816645  29.2859359   1.8664886
  13.5382192  21.9319053  14.5224096  12.8663842  21.3340087  14.8501112
  14.2685430  21.8291326  15.1325704   4.1248433  41.2862773   6.4396717
   4.7039048  40.6835885   5.9731008   3.3352272  41.3257451   5.9000589
  22.1132664  73.1413613  28.6766960  21.7749614  73.8264309  28.1000950
  22.9373003  73.4952580  29.0112926  42.0443789   6.4274296  51.6814280
  41.5657417   7.2197041  51.9252205  42.9442004   6.7237743  51.5445757
  73.0388220  13.6554666  27.1045257  73.6584432  14.2821403  27.4781372
  73.5686453  13.1153054  26.5182354  51.4102761  -0.2153449   6.2767746
  50.8862464   0.4702802   5.8625986  51.5252368   0.0831313   7.1789505
  12.0788352  39.6149869  19.4067718  12.7541868  39.2741199  18.8203003
  11.2542288  39.4193215  18.9618255  68.5242841  43.2069492  61.7327452
  68.0528990  43.7148666  61.0724068  69.4115469  43.5659695  61.7227077
  62.5738374  70.6599747   3.1284143  61.8746392  70.0066315   3.1061174
  62.1450917  71.4592777   3.4342291  23.2091475  22.9515147  55.7078600
  24.0984178  23.2561231  55.8885336  23.2592821  22.5731897  54.8300266
  58.5573737  67.1724592  21.2955715  59.2876855  67.5542484  20.8086349
  58.6033050  66.2363111  21.1012890  51.5310637  64.9442230  17.9362919
  52.0192591  65.3847776  18.6318542  51.5752498  65.5468927  17.1939518
  32.7773444  13.4934135  16.8579628  33.1748454  13.6084409  15.9948303
  33.5165708  13.3206172  17.4409820  71.1171492  11.7449517  15.0890590
  71.4859040  11.9295545  14.2252447  71.6719313  11.0496993  15.4427149
  41.7795332   3.0414863  18.9100792  42.4827696   2.5481577  18.4878017
  41.7646845   2.7149482  19.8097374  60.6674858  24.9786038  18.6551048
  61.3475020  25.6423326  18.7702991  60.4524817  24.6990295  19.5449592
  53.7841765  65.6618176  33.0935528  54.0017811  65.2833353  33.9453937
  54.5522753  66.1829673  32.8597595  25.3344743   2.1289010  20.8360721
  24.4925182   1.8391771  21.1873485  25.1418893   2.9647346  20.4111912
  11.4054811  61.2615204  53.6058760  10.6244648  61.5587997  53.1391096
  11.0701239  60.8913183  54.4224024  13.2323015  65.8588839  53.0333662
  13.9761186  65.4741478  52.5697422  13.5287976  66.7362022  53.2755184
   2.4408793  53.8094854  55.1014900   1.8108229  53.1731606  55.4396439
   2.9005560  53.3434868  54.4030809  69.7445151  32.6428032  61.4083719
  69.8887584  32.3441362  62.3062706  68.8408497  32.9583859  61.4031839
  22.4776099  42.9499267  23.8028194  21.8026481  43.6035465  23.9856865
  22.9557631  43.3028637  23.0524685  75.9555109  21.0950894  45.7011272
  75.4905208  21.0330529  44.8667576  75.5348857  21.8246980  46.1560680
  27.8900243  70.7368003   6.5270521  26.9792748  70.7620989   6.8205311
  28.1976891  69.8651897   6.7757847  29.8345630  56.3815065  17.8482391
  29.0803449  55.8057828  17.9744198  29.7313945  56.7199369  16.9588234
  19.7863786  29.1925855  29.0715553  19.5733611  28.4485240  28.5083153
  20.7379787  29.1553016  29.1679527  68.4557167  19.0661797  49.9048519
  68.2241217  18.6394867  49.0799046  68.2300440  18.4242996  50.5781221
  77.0836321  61.3783728  20.1210548  77.1629731  61.0787998  21.0267021
  77.4486939  60.6635772  19.5994903  72.1037014  26.0934157  12.3285915
  72.1108468  25.1386256  12.2610809  71.1905475  26.3373895  12.1774008
  34.3683226  25.7943482   9.3460323  35.0645907  26.2800260   8.9038088
  34.8292776  25.2056928   9.9437239   0.8364312  15.9604640  25.4947998
   0.8744709  16.8175263  25.9193279  -0.0984128  15.7630725  25.4370262
  63.8494237  11.5525670  40.8818294  63.6499043  10.6263633  40.7455494
  64.2200442  11.8428845  40.0484039  25.4000585  38.5677857   0.8674671
  25.6562917  39.2277141   1.5117266  26.1075465  38.5750766   0.2227642
  17.8239858  46.8503475  59.0366173  18.6538315  46.9186306  58.5644674
  17.1779835  46.6533899  58.3582973  20.9994285  16.9120641  24.6727611
  20.6664340  16.9870944  23.7784912  20.3349893  17.3403878  25.2124836
  74.2540868  16.1583276  27.8334381  73.6169894  16.8313737  27.5939705
  74.6840937  16.5031762  28.6160042  59.1327097  44.8469968  26.6814281
  58.8022704  44.6968694  25.7957031  59.9722309  45.2883096  26.5522625
   4.3313504  51.9342445  10.1390030   4.1526938  52.3610936  10.9769251
   5.2858973  51.8753420  10.0989248  41.8982713   2.6865478   8.3843042
  41.7747323   3.2449861   7.6167633  41.5360515   3.1940742   9.1105606
  63.8736005  43.9635892  28.1431534  64.3066509  44.5305295  27.5049736
  64.5658119  43.7241407  28.7593891  55.2890531  12.6856121  56.9545078
  54.6893588  12.2142395  57.5327873  55.0395910  13.6049255  57.0487022
  68.8780848  61.6710340   0.3677751  68.3052222  60.9151803   0.4971744
  69.6241681  61.3250385  -0.1219986  64.5271738  36.1836715  20.4611923
  64.7335489  37.0197864  20.8789875  64.2747124  36.4180465  19.5681240
  52.1401139  20.8505006  18.9757587  51.6884667  20.3957791  18.2647850
  53.0436731  20.5389209  18.9235069  64.5618963  36.3427639  58.8711596
  64.5320797  36.8557429  59.6787453  64.8195457  35.4653859  59.1540956
  63.3117723  47.0692873  50.2196312  63.3791447  46.1709690  49.8960304
  63.0885792  47.5865316  49.4457626  36.0137717  15.1992269  21.8819858
  35.4548614  14.6433253  21.3390018  35.4944150  15.9896083  22.0296146
  44.0757636   2.8225740  58.1251574  43.5179452   2.0458778  58.0825758
  44.9652211   2.4846729  58.0206585  32.7596490  31.3938184   9.7671367
  31.8290393  31.1879535   9.8555376  33.2092158  30.6342263  10.1374628
  60.3382937  73.1367408   3.4027721  60.8184282  72.7182280   4.1172983
  60.2214066  74.0420829   3.6907341  19.7401874  14.5686622   1.1313202
  19.4308631  15.3412862   1.6041853  20.6473415  14.7736926   0.9048988
  45.7812659  10.8305497   7.7922870  46.5355937  11.4086480   7.6781513
  45.1499479  11.3549943   8.2848551  16.4558566   6.7846751  45.8009386
  16.3564408   5.8454955  45.9567881  17.0172358   7.0877755  46.5145302
  65.6126578   9.5954652  24.8037960  65.3353150  10.4843516  24.5819904
  66.0499950   9.6852775  25.6504967  77.4933250   5.6919808   4.8794939
  76.5630205   5.5021377   5.0008394  77.7437075   6.1757464   5.6665804
  24.6466088  59.2794657  55.1807499  25.3989887  59.3465853  54.5928288
  24.5314145  60.1653814  55.5244255  64.3321768  69.3987131  61.6599035
  63.3948103  69.2088079  61.6210222  64.6414545  69.2627287  60.7643127
  34.1406838  50.9281336  12.2153189  33.2385949  50.6144403  12.1515705
  34.5252404  50.7264625  11.3622763  62.3563147  71.8843174  59.8170042
  62.1167564  71.4732027  60.6475639  62.8302336  71.2028313  59.3403387
  63.2341273   9.3749280  15.4848530  62.6602383   8.7731357  15.9589054
  63.9988191   9.4734950  16.0520889  62.8109542  64.0679155  32.6573231
  62.5727884  63.1686317  32.4319412  61.9956914  64.4605385  32.9694511
  22.0680857  64.5108414  41.9535971  21.4367366  65.2063179  41.7693663
  22.5517416  64.8228598  42.7184200  53.0141878   7.7393575  31.8180038
  52.4079918   7.0644708  32.1234276  52.4535921   8.3944936  31.4023640
  68.5546167  27.9450030   1.6011192  67.9592688  28.2303615   0.9080364
  68.7233527  28.7362189   2.1127226  70.1397649  66.7107821  50.6548500
  69.9884906  67.6413298  50.4892254  70.7131675  66.4306450  49.9414301
  47.1448581   1.6283174   0.7897426  47.4873798   1.0259767   1.4501192
  47.7339141   2.3820014   0.8244945   5.8170097   9.9672170   7.4722292
   6.5738408   9.7350116   6.9341614   6.1498301   9.9597306   8.3696749
  59.7617475   7.3410400  19.3876588  59.5439712   6.5947422  18.8292241
  60.5911318   7.0982346  19.7992456   7.8371160  11.7138429  23.9930584
   8.4252517  11.1906095  24.5376255   7.9018442  12.5986905  24.3523361
  20.3578870  56.4886899  46.3327553  21.2193076  56.1177106  46.1415531
  20.3335015  56.5581746  47.2871162  75.1023515  13.5326381   2.7928926
  75.7575138  12.9621501   2.3909809  74.9699362  14.2327447   2.1537163
  51.5856504  64.1213369  56.9518471  50.7340479  63.9308023  57.3451710
  51.5434599  65.0510359  56.7279911  75.6523235  23.9601131  32.8618481
  74.7859819  24.2163797  32.5456001  76.2318786  24.6633906  32.5690224
  44.7283761  55.3997655  12.0315983  45.4367559  55.3731389  12.6748087
  45.1299970  55.7760186  11.2484218  13.5088055  41.6265483   5.8534576
  12.8805773  42.3351808   5.7141496  13.3257739  41.3150115   6.7398407
  40.4028575  22.1627565  13.9449121  40.5132596  21.6128821  13.1692364
  40.6513087  21.5976377  14.6764471  10.9044687  15.7512326   7.1118976
  10.5607097  15.5627294   7.9851248  10.5924432  16.6349740   6.9172909
  13.3019392  41.7623372  15.5175926  13.5755293  40.9466834  15.9372236
  13.7053744  41.7324252  14.6500828  24.3686073  24.6677013  44.6404030
  24.8502414  24.0462346  44.0944721  23.8946216  24.1197486  45.2659561
   8.0056326  33.3246989   7.5374462   8.6978619  32.7018161   7.7589514
   7.5407879  33.4692569   8.3616115  10.2115647   4.9750705  12.9424574
  10.8543770   4.4554372  12.4597503  10.6677453   5.7916160  13.1458809
  43.5792844  24.7543855  13.2588388  43.0485027  24.5153613  12.4989940
  43.7245147  25.6956382  13.1630184  78.4096940  26.8049951  22.9590465
  77.9534204  25.9641881  22.9920627  78.8099678  26.8944068  23.8239338
  50.8429480  63.6585140  48.8611794  50.5006075  63.5059738  47.9804039
  51.6811895  64.0984106  48.7194824  16.3496447  48.5708603  60.6716633
  16.8365384  48.0964550  59.9977875  16.8416024  48.4141239  61.4776707
  11.0460703  18.6244149  11.8044998  10.8698480  17.7189775  12.0601608
  11.7805187  18.5622354  11.1938001  62.1127550   1.1993345  53.6219406
  62.4977724   1.9887671  53.2414293  62.4133221   1.2003693  54.5307255
  20.3717963  26.9132657   0.9168007  20.6081645  26.5527005   1.7714073
  20.8180015  27.7593894   0.8821108  68.8239447  64.7826420   3.4441568
  69.6658198  64.9326192   3.0140592  68.9827649  64.0424977   4.0299846
  17.8995006  25.2417131  12.0950653  17.6354711  24.8574157  11.2591030
  18.7074105  25.7151027  11.8965246  -0.0748952  27.5020785   5.0751545
   0.7774989  27.9147239   5.2143623  -0.0435431  26.7038341   5.6024601
  41.6702596   8.5203156  62.0008850  42.0460419   7.7341732  61.6046524
  40.7252578   8.3689865  61.9835091  10.5456416  50.4887719  24.6936561
  10.3696172  51.4095826  24.8868992  10.8835571  50.1320024  25.5150940
  66.9193888  52.5467110  26.5929675  66.8386126  53.4914446  26.7240572
  66.9986534  52.4423838  25.6447792   7.0287196  15.6554408   4.7406818
   6.7207973  15.3106685   5.5788614   6.3324349  16.2466664   4.4545557
   2.1950380  38.1825061   7.1137478   2.9819624  38.0931945   7.6513388
   1.8188111  39.0222163   7.3775150  60.2573885  39.1726585   7.6607944
  60.4006280  38.2878347   7.9966499  59.3164320  39.2147250   7.4903156
   2.5608627  37.7116723   4.2469789   2.2369735  37.8842206   5.1310350
   1.7732970  37.5275607   3.7350466  60.2100436   1.7885633  23.7897446
  60.2115028   1.0270090  23.2098629  61.0195701   1.7071934  24.2939998
   0.4496185  19.3141933  13.2396938   0.7368581  18.5055299  12.8156759
   0.0447480  19.8224254  12.5368358  23.2828824  46.9820447   3.1765463
  23.3647601  46.0384507   3.3149673  23.3669583  47.0933957   2.2295715
  28.0204511  61.0644007  49.2123175  27.4051690  60.4392719  49.5955658
  28.6200094  61.2791252  49.9269152  61.0353841   0.9914680  44.6402408
  60.5735870   0.1532836  44.6608402  60.3430750   1.6437907  44.5334007
  14.7045009  13.9993520  24.2983105  15.5558221  14.3348165  24.5792915
  14.1031329  14.2567391  24.9971248  78.6029370  31.8174214  19.6677830
  77.7316792  31.4353128  19.5622780  78.9275391  31.9241710  18.7736561
   0.9956250  33.9718843  10.4035878   1.4954409  34.0494394   9.5909387
   0.1255116  34.3037438  10.1822162  61.9523422  22.1196732  59.5935059
  61.4245454  21.9431099  58.8147354  62.2717611  21.2596020  59.8664093
  61.4112891  25.7492967   0.4356624  60.9924366  26.4236589  -0.0991581
  60.6871505  25.2055974   0.7458927  57.6929203  65.2658235  28.5831882
  56.8496839  65.3996216  29.0159466  58.1632940  64.6610175  29.1569378
  75.0107574  57.7810431  42.5110912  75.6582069  57.1206570  42.2642422
  74.7438478  57.5354147  43.3968973  56.7537737  58.8935280  46.3520670
  56.1488056  58.3197308  45.8819532  57.5951099  58.7648678  45.9140873
  58.6168329   6.9393906  42.6489449  58.0478207   7.0634922  43.4085894
  58.9917914   7.8050026  42.4865961   2.7756326  50.5986161   6.6069509
   2.7429263  51.3243909   5.9837152   3.6785047  50.2840562   6.5611078
  24.0640044  55.3392029  54.3125057  24.0459609  54.4916296  53.8680744
  24.9950695  55.5396032  54.4083738  21.0382144  35.5469556  10.3568603
  21.1556594  34.5975204  10.3886558  20.0905578  35.6693072  10.3002264
  29.2720342  63.5754347  54.8545170  29.8231936  63.8600874  54.1255283
  29.3053412  64.3012857  55.4776239  65.0145073  39.4899125  12.4431230
  64.4583459  40.2592130  12.3202707  64.6214016  39.0257306  13.1821968
  56.2690973  59.6577358  48.9765215  55.3251028  59.8068857  49.0299606
  56.4234304  59.4254875  48.0608416   0.4435532  22.8250547  47.9627277
   0.8842151  23.6447568  47.7388050   0.6730191  22.2275729  47.2509720
  51.1802212  10.6368680  18.7170841  50.4114552  10.6322188  19.2873527
  51.8769397  11.0096259  19.2573311  75.7255155  48.3337593  46.4542055
  75.2059278  47.6862144  46.9305992  75.0780824  48.9267206  46.0728216
  73.0332518  49.9178839  32.0671654  73.3592892  50.3924847  31.3025188
  73.5792112  50.2255058  32.7907181   3.7018578  23.0153508  29.8721077
   4.3244760  22.4561639  29.4074776   3.6384098  22.6289458  30.7455494
  78.3535401   0.7213959  45.5360031  78.3216731   1.6077551  45.1760292
  77.5083653   0.6090530  45.9710789   4.2952157   1.3764509  17.4601126
   4.0321875   0.9467491  18.2739949   4.2284680   0.6912407  16.7950845
  30.5523841  37.4119039  24.8827793  30.8911292  38.0906911  25.4665043
  31.2436311  36.7502351  24.8583175  34.2108648  27.4285169   4.6374800
  34.7643726  26.9349284   4.0323021  34.1762416  26.8871970   5.4261495
  56.2891404  24.4696793  57.5075006  56.2929479  24.8067936  56.6116381
  56.5584794  23.5552868  57.4204731  69.2870827   6.1688132  37.7828552
  68.4904380   6.2967868  38.2978489  70.0001772   6.3164897  38.4040787
  27.3055713  28.7164970  32.3892547  27.8758542  28.5152145  31.6473057
  27.7421872  28.3177896  33.1420090   1.0274697   4.0970215  47.1448278
   1.1102725   5.0499233  47.1815968   1.9300271   3.7785801  47.1297836
  50.8721057  13.7892040  42.7368069  51.4047710  14.5824417  42.6795816
  50.9717313  13.3715710  41.8813038  11.5008728  47.1031423   0.0499632
  12.0816343  47.7076383  -0.4121302  11.5583388  47.3699899   0.9674169
  24.9241368  45.0787397   5.4555370  24.7466533  45.7580609   6.1061193
  24.9588649  44.2664762   5.9607603  45.2667682  30.2642627  13.5699083
  45.7443063  31.0331054  13.2583429  44.5275705  30.6239171  14.0602829
  -0.1556814  66.9739246  54.3055773   0.6521942  67.0066881  54.8179197
  -0.0840724  66.1662817  53.7968397  31.7215466  71.7427874  39.6813083
  32.0832968  71.3554144  38.8842440  31.7653298  72.6869297  39.5299554
  57.4327993  49.5287991  55.3760290  56.5956116  49.9908447  55.4191494
  57.1935654  48.6028147  55.3366804  28.7932555   6.0637326  11.4782192
  29.1964690   5.6513925  12.2421743  28.0998723   6.6146560  11.8414451
  34.3795562  58.9775276  54.2573404  35.0360370  58.5642815  54.8181343
  33.7939239  59.4279099  54.8659706  29.9148465   2.8836521  45.2965164
  29.3523026   3.2666859  45.9696198  30.7273293   2.6712021  45.7558346
  21.4073293  22.5709386  14.7708179  21.5819137  23.5013814  14.9123241
  21.5902250  22.4315305  13.8416530  32.7975528  20.7857318   8.2697489
  32.9524629  21.0230680   7.3554661  33.6070697  21.0266109   8.7201883
  46.7639446  61.1737728  60.1430845  47.1438408  60.5553532  60.7671642
  47.0226574  60.8375216  59.2850399  74.5678043  61.3999557  56.9754791
  75.2558994  61.7180729  57.5599098  73.7516212  61.6173649  57.4258232
  56.2245194   2.3141989  60.3668451  56.9773714   2.7864632  60.0112963
  55.5906192   2.2994217  59.6497822  70.4454438  16.3504204  60.8118534
  69.9323718  17.0601257  61.1982632  71.3293330  16.4790138  61.1559916
  55.7310454   3.8682922  51.7755985  55.2757303   4.4906935  52.3426390
  55.3860275   4.0449080  50.9003878   9.9153392  21.3218923   8.5938455
   8.9886038  21.4209266   8.3757068  10.2517144  22.2175880   8.6224319
  31.2655258  63.0257177  60.7432938  31.8458796  62.4663258  60.2270603
  30.8579707  62.4313593  61.3732672   9.1539495   7.1941085  21.9236900
   8.5073821   6.9768615  21.2521316   9.1105883   6.4652248  22.5426151
  11.0951702  58.8819070  26.5657856  11.2124722  58.6146016  27.4773838
  10.1666133  59.1045327  26.4990570  17.0886708  15.5450615  56.9636822
  16.9295884  15.9300312  57.8254986  17.8151513  16.0542759  56.6042995
  64.3990865  68.4577036  39.3325925  65.1770189  68.4029198  38.7775683
  64.5949307  67.8879309  40.0763941  76.2486608  12.0412107  22.6268150
  76.9648273  11.4927239  22.3066665  75.8764322  12.4340291  21.8372680
  63.1086083  22.2268529  10.9044649  62.3349245  22.6042504  10.4858829
  63.2783277  22.7981134  11.6535236  13.1772129  36.8232246   5.5310108
  13.7035362  37.5298734   5.1570274  13.7541430  36.0596366   5.5131532
  59.2068195  72.1922112  57.4211073  59.3097019  71.3903522  56.9085884
  59.1131687  71.8889189  58.3241415  13.6289279   8.0192609   7.0522882
  14.0783279   7.6746745   7.8239919  14.1320007   8.7965055   6.8093063
  12.1075194  25.7857795   0.3324940  12.1250908  25.9886308  -0.6028031
  12.7523296  26.3787265   0.7183267  77.3961361  23.2208867  14.6643831
  77.5752600  24.1459222  14.4956972  77.5789674  23.1077333  15.5971243
  78.7217823   4.9992117  35.5218148  78.0038992   4.4134602  35.2814579
  78.2886282   5.7980808  35.8225012  67.9857413  73.1803261  31.3365509
  68.2774893  73.9482747  30.8452560  67.2411028  73.4932672  31.8501713
  24.1884470  53.5498571  62.3520899  24.7655129  54.0895367  61.8117428
  23.5422254  54.1643524  62.6999760  74.4766444  63.4506559  34.8073816
  73.5406458  63.3676243  34.6250534  74.5507059  63.3056259  35.7506275
  51.1098480  31.0465717  53.9212608  50.6835508  31.7560434  54.4020414
  51.5293026  30.5163050  54.5988369  71.5322685  66.9704390  59.6437645
  71.2257767  67.3195362  58.8068485  72.4109602  66.6394424  59.4578409
  70.1342614  37.9569764   8.6727526  70.2598567  38.3183475   9.5501758
  69.6613093  38.6402841   8.1977369   4.5044200  73.2007547  20.3492977
   4.1655032  72.7682538  19.5655205   3.7935917  73.1326909  20.9867336
  16.7684095  55.6200166   0.3110840  17.2264306  55.8892865   1.1072923
  16.1081044  54.9966474   0.6138040  72.7129062  69.3953271  22.8138019
  72.0150550  69.6579022  22.2135593  72.4021991  68.5757394  23.1984569
  14.9833457  36.9417901  26.4632656  15.6384914  37.3926873  25.9306289
  15.3708760  36.0857720  26.6457130  37.3435037  15.1322217  26.8111660
  36.7827670  14.3609519  26.7278244  37.2032802  15.4344554  27.7085068
  55.6886164  14.5724663  42.8238916  55.1351205  15.1841435  43.3094072
  55.3445093  13.7079701  43.0485392  48.4786622  22.2449383  56.2682343
  47.6776973  22.3414883  56.7833710  48.3257286  22.7750477  55.4860353
  41.2878457   5.2037128  33.8244176  41.3263813   4.9556431  34.7481108
  40.3783051   5.4673847  33.6849761  28.6097638  25.1981206  21.1427166
  28.9345329  25.8108039  20.4828884  28.1878965  25.7535596  21.7982723
  35.4879353   0.7303843  60.3310966  35.8180145  -0.1676813  60.3036356
  35.7164065   1.0428700  61.2065315  13.3025305   3.7228389  14.4392063
  12.6660173   4.1164584  15.0359871  14.0768163   3.5709138  14.9810793
   7.1927199  73.4251118  47.7619362   6.9949278  74.1830969  47.2118711
   6.4343485  72.8501797  47.6591635  22.5097084  72.7223587  50.8873653
  21.7921543  72.1447134  50.6272221  22.6353621  73.3016348  50.1357794
  56.6953818  13.2662281  39.8057413  56.1565749  13.5954460  39.0863466
  57.5805561  13.5658630  39.5985866  52.4921465  40.3625679  58.2069302
  53.0412245  40.2587605  58.9840841  52.0163679  39.5348907  58.1375217
  31.3341818  67.4021421   3.7551786  30.8281428  66.5995894   3.6284210
  31.5893332  67.6665245   2.8713037  75.8586089  40.7104286  28.3786106
  76.6973082  40.6819710  27.9181695  75.7534520  41.6284927  28.6282563
  64.1001733  34.5795484   7.7292873  63.6908706  34.5861478   6.8640329
  64.9328418  35.0346942   7.6038315   2.4986212   1.0644956   1.0776760
   2.6215999   1.4266105   1.9551613   1.7884581   1.5844007   0.7013847
  20.9451501  41.3342710   9.4840910  20.6601731  40.4368157   9.3120720
  20.7743041  41.8008037   8.6659290  23.7132566  48.8189454   5.2066614
  23.6790006  48.1944223   4.4820740  23.2479684  48.3831353   5.9206774
   7.5640003  53.0871053  31.7976620   7.2321598  53.6350293  32.5089218
   8.5132663  53.0839868  31.9206192  30.4055278  38.6355825  20.8615162
  29.6507899  38.0524678  20.9426357  31.0306470  38.3097167  21.5090229
  28.5685303  73.0984531  15.7702829  29.0602509  73.2014881  14.9555256
  27.9890991  72.3540722  15.6078340   0.8220284  54.7894807  25.2838661
   1.6567557  54.4991250  24.9162342   0.3851430  55.2390046  24.5604755
   7.9791705  12.1017690   8.5872557   8.5834448  11.8071456   7.9058744
   8.2313697  11.6017957   9.3635608  62.0551348  36.1345387  21.5876293
  61.9055367  35.5060053  22.2938848  62.9402256  35.9413505  21.2785625
  22.4899881  55.9556146   3.7944605  22.7881639  56.1960073   4.6716930
  22.8966872  55.1052709   3.6278965   8.0689447  39.1470809   1.0556175
   8.4762566  39.7656198   0.4491998   8.6171858  38.3641810   1.0033609
  66.8312903  59.1711755   3.4512855  66.1735125  59.7381253   3.8539364
  67.4683268  59.0113587   4.1476156   4.7670627  66.3902092  61.5208101
   3.8470891  66.1357069  61.4493275   4.7555426  67.1813869  62.0594549
  25.4889075  34.3794007   7.3128321  25.1140372  33.6028428   7.7283575
  26.4352910  34.2457767   7.3651554  72.3904467  65.8499956  55.3919792
  73.1641769  65.4708672  54.9750423  71.6982412  65.7627439  54.7366333
  24.7253577  30.6242366   4.9823047  24.9803464  29.7019382   4.9581291
  24.6623199  30.8309407   5.9147884  66.9681708   2.2090992  58.4998131
  66.6703860   1.9395956  57.6309490  66.9251458   1.4107021  59.0260696
  62.4396515  55.3114891  47.1126366  62.2197151  55.3411293  46.1815166
  62.8885651  56.1403227  47.2792053  51.3971250  10.5500503  26.0395958
  52.3528592  10.5932040  26.0088016  51.1571328  10.0135369  25.2840854
  48.4567754  49.9737020   0.9209873  48.4765165  50.5941625   0.1923801
  48.4713285  50.5236192   1.7043258  49.0547752  59.5063162  58.5044861
  48.3327436  59.0390301  58.0843210  49.5815611  59.8371267  57.7769613
  13.2851879  61.8854661  14.5835592  12.6412265  62.5933595  14.6044542
  14.1201560  62.3258443  14.4250633  64.4686524   0.8381542  36.6286826
  65.2931587   0.8710846  36.1435676  64.0812246   1.7041668  36.5015864
  43.6136405  60.2195973   8.2968427  43.4350698  60.8332295   9.0094425
  42.8747813  60.3266378   7.6977922  60.2996223  47.2416825   4.2974378
  59.9843757  47.5614686   3.4521057  59.5161693  46.9080300   4.7345974
  63.0145446  17.3693642  48.6969709  63.0867020  17.9483589  47.9381657
  62.3484723  16.7289337  48.4470987  32.3124520  52.8675122  27.7563431
  33.0267875  53.4990640  27.6721050  32.5082032  52.1959348  27.1029712
  34.2016698  20.5848106  61.1965322  33.5855866  20.8616528  60.5182695
  33.8362408  19.7663483  61.5324068  61.5379779  48.1966157  17.9380657
  62.2898166  47.7021642  18.2643844  60.8624236  48.0731149  18.6048652
  46.7051713  45.6044526  16.7285015  46.1299483  45.2684064  16.0411693
  47.1090858  44.8230786  17.1060421  44.5380449  67.3467207  38.4466100
  44.5515203  66.9674778  37.5678444  43.9192200  68.0742979  38.3840156
  24.8988611  63.9040123   2.0879747  24.5595951  63.0089913   2.0962478
  25.7817421  63.8288461   2.4500562  21.9367909  17.5511658  49.1371822
  22.0720768  17.7264965  50.0684118  22.7941513  17.6999927  48.7384129
  61.7085840   2.2039075  11.9758941  62.1551813   2.0040698  11.1531879
  60.8225842   2.4532051  11.7130520  54.2809955  61.9001280   2.5146772
  54.4873063  62.4579607   1.7646839  53.3253662  61.8453704   2.5167562
  53.1559541  48.3895794  50.4236841  53.0582905  47.4860850  50.7243347
  52.2768522  48.7617126  50.4938793  49.8437230  51.7725907  10.2217962
  49.5659701  52.5357555   9.7151710  50.4763285  51.3278972   9.6576216
  64.8613861   5.1959991  37.4423385  65.4528788   5.0921351  36.6969657
  64.2857269   4.4324464  37.3994994   2.9958788  23.9612387   7.0593120
   2.3171941  24.3770240   6.5275719   2.5381414  23.6722718   7.8487446
  20.8043599  10.4989803  50.8169556  20.4832816   9.7327048  51.2923098
  20.1489949  10.6502807  50.1358986  30.0079131   2.9769143  54.0954256
  29.9407029   3.7384245  54.6714592  30.8863258   3.0373862  53.7199736
  29.8495674  19.8021901  55.3118944  29.2608333  19.4889140  55.9985399
  30.1722336  20.6423068  55.6379604   8.1316527  56.3096908  38.6220336
   8.9101203  56.6813580  38.2072043   7.8679117  55.5964306  38.0407143
  38.1460849  28.6073975  15.0351383  37.2512595  28.2908748  15.1589538
  38.6525563  28.1668083  15.7174875  27.4209380  32.1200371  33.1240869
  26.8865824  31.3925385  32.8055859  28.2801747  31.7318153  33.2890892
  74.3562576  38.1565380  52.4472857  73.5577732  38.6162472  52.1878242
  74.7541553  37.8825569  51.6209459  60.3839675   6.5997559  45.2673149
  61.0214213   7.0054978  44.6797276  60.7333878   5.7239193  45.4317760
  40.5747096  39.4011231   8.2078316  41.1063651  38.7013541   7.8284933
  41.1583654  40.1594265   8.2313635  13.1796992  15.2745712  17.3585534
  13.2287467  15.7508755  18.1873846  12.4437332  14.6729946  17.4712062
  49.6631161  59.6562825   1.2068369  49.1452519  59.2849933   1.9211151
  50.5694858  59.5860539   1.5064909  74.2037618   6.1864305  45.4541874
  73.8189524   7.0155275  45.7383585  75.1486027   6.3299996  45.5079937
  32.0910668  13.8558435  24.3754482  32.9661560  14.2024612  24.2013621
  31.7595816  14.3927908  25.0951982  21.0704111  70.0428066  62.2326040
  20.2190947  70.4803434  62.2398281  20.9668612  69.3073780  62.8364706
  24.0414762  16.2355864  47.7087593  24.4533491  16.3197207  46.8488073
  24.7716951  16.2575984  48.3272457  68.6780583  61.8034283  23.8340044
  67.9362726  61.2598291  23.5685158  69.0664374  62.0975975  23.0100775
  19.0903652   9.1973460  44.2434645  18.8676536   9.8743266  44.8824692
  18.2780337   9.0481436  43.7596369  59.2287766  56.2614206  37.2865915
  59.5088529  57.1607688  37.1164083  59.8614591  55.9300676  37.9238915
  27.1962333  21.3273239  62.8825140  27.1150541  22.2337413  63.1792450
  27.9537439  20.9865189  63.3581829  77.3361848  11.6778183  42.7512980
  78.0260428  11.3653100  42.1659231  77.0265268  12.4876451  42.3456860
  50.2121973  14.4875824  46.4583254  49.4470310  13.9457750  46.6511917
  50.0439119  15.3112876  46.9159460  18.1935322  21.6900349  49.1719389
  17.6392412  21.9833851  48.4487915  18.9087296  21.2154627  48.7482595
  26.4564991   2.0670126  52.6631355  26.1277270   1.8774551  53.5418940
  25.7920837   1.7065346  52.0759058  71.6806280  73.1092575  48.9613724
  70.7821762  73.0812052  49.2903566  72.0407461  73.9216005  49.3172455
  72.4362063  72.0404405  51.8949652  72.8286218  71.4849966  51.2213755
  71.7039167  72.4709116  51.4537430  69.8077813  34.4210362  48.7528133
  70.7269946  34.2811942  48.9802408  69.3621388  33.6318207  49.0606689
  40.0491372  14.6105742  23.1975913  40.0489774  14.6917820  24.1513395
  40.8252278  15.0950074  22.9160953  64.2704140  63.7886790  18.2934773
  65.1537740  63.4249512  18.3535480  63.7165891  63.0383399  18.0778348
  76.3081279  19.7842956  31.4869428  76.5936384  20.2429533  30.6967854
  77.1158943  19.6196735  31.9734049  28.7829375  10.6661344  21.3161445
  28.9362717  10.3547347  22.2081923  29.6568847  10.7286346  20.9307337
  33.8877892  22.0041203  24.7158957  34.4743514  21.7662811  23.9978361
  34.3582463  21.7406154  25.5067587  47.7459184  51.0710107   5.4472114
  46.9052378  50.6211816   5.3627016  47.9960267  50.9413897   6.3620188
  58.1260601  33.7167315   8.7985565  57.6851551  33.9786975   9.6067716
  58.0660001  32.7614419   8.7917663  35.9310672  44.3703638   1.5318348
  36.5034501  44.2370378   2.2873689  35.0498859  44.2039918   1.8666078
  30.6616259  22.7610612  63.9521170  30.4806304  23.5314870  63.4136772
  30.6703424  22.0320511  63.3318758  54.5761124  26.2630676  11.3641311
  55.2599017  26.9289850  11.2918903  54.6787182  25.7280444  10.5770780
  33.7670588   8.6552018  23.2599854  33.4738708   8.0393487  22.5884223
  34.6271253   8.9473099  22.9580092  10.5307484  16.6146100  40.0422096
  11.0441828  17.3767376  40.3101254  10.2731681  16.1981869  40.8646917
  53.6679173   1.1754777  39.9851370  53.4116364   0.3902391  39.5014501
  54.4968510   1.4418557  39.5874619  67.7416789  66.8639675  34.7673535
  67.7596938  65.9556488  35.0687909  68.5256719  67.2586438  35.1492143
  30.2033541  37.5756092  12.1454670  29.7954679  36.7228159  11.9951202
  30.1120595  37.7221229  13.0869724  28.0929358  55.8240889   0.6395962
  28.8546319  55.2536546   0.7428266  27.8747032  55.7662569  -0.2905987
  20.9874868  41.0106230  25.0514150  21.4756489  41.6235876  24.5016861
  21.6571593  40.5793476  25.5822396  47.1078507  67.1357857  26.6650726
  47.0698110  68.0793034  26.5083553  46.7065088  67.0196687  27.5262787
  37.2027079  43.6898886  15.1111700  36.9350199  43.3934818  14.2412712
  36.4541391  44.1914271  15.4341795  49.9484467  67.2869256  45.9073734
  49.0154993  67.4965003  45.8635616  50.2087503  67.5370875  46.7938757
  40.6160656  31.1570786   5.2499821  40.5268589  30.7650136   4.3813278
  39.7170071  31.2452237   5.5664541  38.2210603  15.7580197  57.7217960
  38.6401239  15.8393312  58.5785389  37.8723064  16.6310894  57.5419283
  21.1912759  72.5995878  42.3364544  20.7747825  73.2811633  42.8639174
  21.1130985  71.8058583  42.8657103  75.4128811  33.4332776  60.5342913
  75.0814620  34.0274262  59.8609543  74.6346435  33.1698942  61.0254192
  11.3306928   4.3589377  16.7000926  10.5373311   4.8546347  16.4973760
  11.0793781   3.4436348  16.5764260  76.8333194   7.9404736  42.4366999
  76.1811179   7.2471845  42.5377703  76.6999641   8.5073590  43.1963634
  15.5594695  25.7717347  45.7583475  15.7682335  26.6669965  45.4916000
  14.6620417  25.6345320  45.4549837   1.4258571   5.6841820  59.1579390
   2.0810303   6.2747127  58.7861156   1.2286364   5.0696677  58.4510422
  63.9181315  73.8874040  28.6059380  64.2882787  74.4344382  29.2987394
  64.4439899  73.0878261  28.6254096  55.3077633  46.2714462   7.9300119
  56.0559351  46.6054420   7.4351169  55.4851849  46.5283506   8.8348629
  27.7762794   2.2652620  57.8732729  27.9133940   1.3185702  57.9080009
  27.2691679   2.4628688  58.6606836  25.3939033  12.0036900  60.1894474
  24.6851492  11.6998541  60.7565308  25.0514913  11.8999517  59.3016291
   3.9888652  43.2129088  35.4509020   3.8342746  44.0078321  34.9405766
   4.1952404  43.5292712  36.3304234  57.8070299  32.3229699   4.1919662
  58.5421173  31.7289762   4.0401413  58.0424706  32.7963539   4.9899055
  31.9269609  14.6857226  60.6925869  31.8831277  13.7295270  60.6938505
  31.0270357  14.9665201  60.5266953  11.4688885  30.5155325  41.7356873
  12.1234119  31.2130308  41.6993093  10.6959772  30.8900905  41.3131428
  31.8615770   8.3082271  30.5224109  31.7668653   8.7670475  29.6877003
  32.3708200   8.9071399  31.0684943  61.5506666  64.9433479  20.7710719
  61.4188420  65.5680666  20.0579214  60.9614825  64.2174855  20.5656004
  13.6072123  16.8962872  57.5925207  13.3796346  17.6828432  57.0967674
  12.8065169  16.3717735  57.5903463  17.3614776  23.5212684  34.4286847
  16.6771996  23.2101870  35.0213289  17.9025245  22.7495551  34.2614722
  55.3418090  56.1441735  60.9656334  54.6757626  55.5206099  61.2550879
  55.1903477  56.9225064  61.5018129  11.3845118  44.4118467  14.0563500
  10.7399210  44.6364013  14.7273993  10.8697876  44.0174905  13.3522391
  12.1102484  62.4913326  49.6505022  12.8825506  62.1599296  49.1922951
  11.5288671  62.7932278  48.9525890  73.0318937  35.3213143  33.6294103
  73.1339219  35.2374959  34.5774603  73.9190301  35.4782081  33.3059859
  21.2651346  53.4710167   7.0705797  21.6051299  54.1081582   7.6988222
  22.0463399  53.0710434   6.6885187  36.1970854   3.9993519  26.1753464
  35.3271437   4.2737696  25.8853006  36.0295010   3.2981104  26.8049550
  25.6454468  16.9444609  42.4818039  24.7617817  16.5785134  42.4437523
  26.1422777  16.4380503  41.8391991  14.7766316   0.6745844  16.6441679
  15.1828265  -0.1658588  16.4322877  14.5633376   0.6096056  17.5750351
  58.9526756  42.7926724  63.8278092  59.8024876  42.3623710  63.7335289
  59.0889104  43.6718784  63.4747246  46.1339227  52.3915349   2.0711567
  46.0777775  52.2249208   1.1302425  46.0569338  51.5260325   2.4726679
  55.8061229  70.5045843  33.5473251  55.7723566  71.4241466  33.2837033
  56.7394849  70.2925536  33.5578299  25.6782508  13.4148896  31.7089915
  25.7459736  14.3691432  31.6766763  26.2448406  13.1104219  31.0001135
  35.9224272  21.8399572  38.3016062  36.0724902  21.1434078  38.9407706
  34.9736738  21.9668293  38.3039260  45.6575719  49.2306803  14.7918989
  45.7777063  48.6354099  15.5317976  46.5174047  49.6317266  14.6650888
  18.1349981   6.3035363  43.3278513  17.2400105   6.4518446  43.0225039
  18.0781507   6.3761955  44.2805958  19.5019996  13.2871413  38.7681007
  18.7414825  13.5139215  39.3032789  20.2519393  13.6057258  39.2704225
  32.8436494  13.9728272  29.7473598  32.6986527  13.0621016  29.4908690
  32.2583556  14.4769454  29.1820908  67.2700384   9.4657212  59.2911196
  66.5627769   9.5546526  59.9299479  68.0411580   9.8158646  59.7372198
  14.8307443  14.0131140  49.4304705  14.1838562  14.1655922  48.7416172
  14.3112886  13.9049101  50.2271461  39.1105989  40.8239396   2.5397446
  39.2319027  41.5528779   1.9313289  38.4026531  40.3066872   2.1556951
  58.2176703  67.3970202  45.6796503  57.8294229  67.4044350  46.5545464
  57.6555722  67.9746291  45.1632738  10.5413699   9.0526623  58.4655809
  10.9802556   9.8993993  58.5471153  10.9396386   8.6497688  57.6940298
  53.2335901   9.3244755  34.1776800  53.1021500   8.8455409  33.3594036
  53.9371681   9.9434543  33.9825535  23.5004711  16.3987839  40.9743786
  23.2611918  17.2774768  41.2691259  24.1568804  16.5451014  40.2932405
  48.2142162  27.3710251  37.2682548  48.2294846  28.3275843  37.2367239
  49.1329002  27.1140862  37.1892977   1.5568575   5.2145904  53.1106901
   1.5898840   5.1374578  52.1571779   1.7194808   6.1422402  53.2817221
  45.2086679  73.2481752   6.0252382  45.8719102  73.4687553   5.3712608
  44.3852989  73.5521899   5.6433060  42.9973308  38.9456780   3.0655338
  42.8395919  39.5838897   2.3698093  43.5023598  39.4262803   3.7214329
   8.7544608  25.8527899  51.3110304   8.4516853  26.5841293  51.8492746
   8.1374824  25.8220029  50.5798531  41.1554098   3.9744937  52.8387451
  41.9505453   3.6813110  53.2837677  41.4462757   4.6931216  52.2773170
  19.6889126  28.9993668  10.6928039  19.3953228  29.2736125  11.5616119
  19.7339594  28.0446792  10.7455003  29.5642614  42.6366282   6.5397531
  29.0961289  41.8428087   6.2810355  29.0193510  43.3529711   6.2139314
  12.3477872  52.3767749  34.2922974  12.8155502  52.5998584  33.4875226
  12.9950818  51.9153014  34.8254800   7.6992571   3.3713531  47.7963638
   7.4007970   2.9631433  48.6090851   7.4177366   2.7685907  47.1081352
  28.2280878  52.7999292  19.9841167  27.9389177  53.4440754  19.3378307
  28.6055131  53.3230196  20.6913330  36.0813546   7.0842814  62.5721598
  35.6469178   7.8904039  62.8508377  35.7126760   6.4056885  63.1376839
  70.1564464   7.5933361  32.8577089  69.4646648   8.0911934  32.4220371
  69.7675249   7.3192525  33.6882806  43.6349010  21.6727161  39.0499282
  42.8215361  22.1761656  39.0151930  43.3626366  20.7672000  38.9011121
  16.1391485  34.5135188  26.2645507  16.6873527  34.0711570  26.9126391
  16.4962268  34.2375708  25.4204059  42.8362469  12.3964749  19.8376419
  42.4332730  12.6185213  20.6770088  43.0245356  13.2423650  19.4311287
  51.8852324  58.7819150  59.8880720  52.1839133  58.2430843  59.1554880
  51.8889673  59.6755985  59.5452213  64.0356866  40.2495603   8.3570148
  63.6195651  41.0841613   8.5726930  64.9673406  40.3973891   8.5195019
  47.1576611  46.4004515   7.7194168  47.4271218  45.8242731   8.4347059
  47.9705635  46.8087308   7.4215462  50.4728595  55.9367941   4.1173078
  50.2808920  56.7367648   3.6279918  50.1090042  55.2337478   3.5791923
   5.4096216  21.5463161  49.6118641   5.3158748  22.4988985  49.6174622
   5.6552660  21.3245368  50.5100298  24.2964244  10.7547653  33.3717632
  24.7507071  10.6800497  32.5325513  23.4616446  11.1705089  33.1560516
  12.6174315  58.3645431  44.2297173  12.8591379  58.7771014  43.4004974
  11.7633065  57.9673425  44.0596104  28.6516762  22.7228332  51.5990829
  28.9308310  22.1976590  50.8490849  29.4059420  23.2780290  51.7967415
  11.2347174  45.0885201  25.1705146  11.9996953  45.6485605  25.0386310
  11.2645030  44.4671535  24.4430232  62.1858120   7.8549552  43.7058401
  62.8393316   7.2514594  43.3523798  62.6955891   8.4990716  44.1972351
  27.8220081  22.7810383  25.9171367  28.1875062  21.9051909  26.0417771
  27.1864796  22.6768112  25.2089906  17.7397188  23.3276987  38.9372039
  18.4198889  22.8598833  38.4527063  16.9681105  22.7652168  38.8702774
  67.2208014  34.9755597  58.2443333  67.2473052  35.9090376  58.4544468
  67.8567103  34.5780182  58.8391542  57.1565405  54.5975565   3.1477405
  56.2754766  54.2412506   3.0337192  57.1429101  55.4273413   2.6707699
   7.1193868  14.5153284  60.9970045   7.5890875  14.5833826  61.8282604
   6.6942650  15.3664589  60.8917379  34.3700051  18.2429290  18.9145887
  33.6030364  18.3227193  18.3474708  34.6993995  17.3595595  18.7490857
  35.6910650  64.6721660   2.0666601  35.9035043  64.6067034   1.1356308
  35.0501887  63.9769398   2.2155573  64.2051020  15.0663459  35.7649946
  63.8298097  14.2496777  36.0943007  64.9495140  14.7895432  35.2307081
  13.7032898  63.7577990  59.3130970  12.8448995  63.6882213  59.7308922
  13.5428723  63.5312191  58.3970404  62.5470678  58.6470781  33.2064964
  62.0837633  57.8113853  33.1499531  63.3019701  58.5420857  32.6274254
  65.9116518  45.3258744  42.3706388  66.1825179  44.5790878  41.8366241
  66.5950476  45.9812108  42.2301483  24.4602013  30.4911137  53.0680180
  24.3863344  30.0506282  53.9146280  24.1258097  29.8541260  52.4366188
  33.0294061  23.0983448  33.8113070  33.6410117  22.7554727  33.1596875
  32.7798104  22.3342085  34.3309498  45.5276537  22.1157861  44.5623732
  44.8662758  21.6495895  45.0737143  45.6203699  21.5985060  43.7623358
  21.5715790  27.3753953  53.6612272  21.7976975  26.7352057  54.3359566
  22.3570061  27.4380875  53.1177139  30.2899504   1.5877748  49.0560818
  29.6945763   2.1159008  49.5879126  30.8650851   1.1619044  49.6917582
  16.6543651   1.5637392  21.9179559  17.6001871   1.4810029  22.0396352
  16.3523686   0.6672785  21.7717075  36.3984227   5.8683741  60.0076962
  36.2763596   6.1753643  60.9060764  37.0243216   5.1481557  60.0836515
   8.3709091  21.6553736  57.8873205   8.4087980  21.6099381  58.8426924
   7.9918367  22.5148249  57.7032566  50.8178011  55.7600378  23.1977226
  50.2996413  56.5490399  23.3565189  51.5135018  56.0455452  22.6055099
  18.9349806  25.3543210  54.6684122  19.7704589  25.7290220  54.3894720
  18.9756763  24.4408894  54.3851852   3.5963854  23.8951278  46.8170834
   3.9127478  23.0263686  46.5692806   4.0007147  24.4871640  46.1828613
  26.9306254  25.3851819  25.0951958  26.1928701  25.0360370  25.5952454
  27.6713634  24.8320580  25.3433752   3.1377578   5.9484524  50.3462696
   4.0131679   6.1925215  50.6468010   3.1492406   4.9915129  50.3271246
  52.2558212  15.5533135  52.8434420  51.4905214  14.9906778  52.7251530
  52.9977846  14.9487174  52.8570080  17.0800662  37.9960918  24.7102642
  17.7233851  38.6376882  25.0114751  16.9011772  38.2439756  23.8031912
  68.8848463  63.3818327  29.1799022  69.5236889  62.7045523  28.9576294
  68.0669943  62.9038273  29.3172504  48.8846008  44.3622075  18.4120418
  49.5208255  44.6448080  17.7550937  49.2716233  43.5762863  18.7977554
   8.1342348  68.0355183  52.6244926   8.8324865  67.9052434  53.2661343
   8.3755549  68.8416443  52.1682501  11.5317166  27.6614165  51.0876131
  12.3548150  27.6436162  50.5993271  10.8810651  27.9544926  50.4496574
   6.5393507  27.3730183  34.0117240   6.3818246  26.4365315  33.8916826
   6.1342108  27.7838731  33.2479882  15.6359303   2.9807547  15.4713213
  16.1363530   3.3927494  16.1756432  15.1823688   2.2517593  15.8945000
  46.1367846   8.8888144  58.3923674  46.9470310   9.3564540  58.5949802
  45.4501247   9.4057566  58.8136721  23.0829716   9.3934596  52.8844166
  23.2097316  10.3230119  52.6944256  22.2933817   9.3649369  53.4247541
  21.5056729  32.7042055  24.4990134  22.2093964  32.0717716  24.6440458
  20.9840965  32.6702356  25.3009105  10.1794398  17.7376795  20.2588201
   9.3867183  17.8657293  20.7798076  10.5651557  16.9323361  20.6036043
  36.0425600  63.3724991  42.4039650  35.2778991  63.5031966  42.9647207
  36.4713081  64.2279813  42.3803854  58.4190035   0.3285642  35.6393766
  57.4646759   0.3957799  35.6082845  58.6036062  -0.5768406  35.3895831
  36.0745493  54.5453261   9.7215320  35.8122281  55.0899004  10.4637291
  35.8920787  55.0848959   8.9522459  15.7829845  28.1183743  44.2203617
  15.1227391  28.8112974  44.2073822  15.5234683  27.5270033  43.5138464
  25.8251619   6.7639118  43.8586378  25.6030798   6.5322691  44.7604418
  25.2076316   7.4588978  43.6308575  76.4896067  17.7759302  13.9716947
  76.0116577  17.6672900  13.1495070  77.3242661  18.1670702  13.7136555
  10.3677392  27.5215864  63.6145592   9.9918061  27.7577090  62.7665329
  10.7865262  26.6742516  63.4633255  58.2706832  61.6937653  55.6069231
  58.2410198  60.7382968  55.6562328  57.4257814  61.9405297  55.2307892
  47.4502563  15.8016980  41.2403154  47.9446888  16.6190970  41.1800957
  47.8188515  15.3543842  42.0020771  44.1484165  15.2414954  60.7181072
  43.3219814  14.9938262  60.3034973  44.1377926  16.1986339  60.7204866
   5.6073046  69.4452082  11.8204834   5.9309197  69.8113380  10.9974052
   4.8114634  68.9728700  11.5760090  57.8663150  20.5506659  36.4092946
  57.5615326  20.1219988  37.2090340  58.7133220  20.9276104  36.6474676
  26.5095782  13.6058807  47.9093456  26.3734579  13.4033239  46.9837809
  26.8761730  12.8026044  48.2789230  19.3291223  23.9320827  25.8676243
  19.4054592  23.7990141  26.8124509  18.7310207  24.6739960  25.7777905
  49.1242456   0.8534029  24.0475559  49.8587227   1.4642838  23.9875484
  48.6489344   0.9687598  23.2247519  12.3378623  20.6099248  55.6995296
  12.8214049  21.2937355  55.2360439  11.4516950  20.9609222  55.7875109
  72.4339321   7.9443097  46.3783455  72.0727089   8.6355054  46.9333172
  72.2359338   7.1332377  46.8465233  19.1914976  13.0959606  60.0779200
  19.2720520  14.0453553  60.1695299  20.0946522  12.7791727  60.0641966
  42.7227191  56.5400945   3.9213230  42.6331953  57.4369560   4.2435886
  42.2198013  56.0116004   4.5409967  65.2350871  41.1043201   5.6614782
  64.6849600  41.2036179   6.4384796  64.6302120  40.8262800   4.9736931
   2.8215009   1.2354721  46.3955021   3.5202658   1.4168525  45.7669640
   2.0411032   1.6304389  46.0066414  17.8163016  19.4738579  45.2061939
  17.1907675  18.8084388  45.4928207  17.6265347  19.5961082  44.2759895
   3.4197465  28.2487798  26.8487382   3.4418777  29.1308665  27.2197747
   3.7059480  28.3628964  25.9424829  53.4405661  21.9985723  24.2500067
  53.3185387  22.1656847  23.3154392  53.5447073  22.8677726  24.6371460
  61.0582606  56.9833146   3.2463838  61.4636079  56.2342654   2.8095199
  61.5831748  57.7345644   2.9701187  18.9435768  17.5019097  55.6669378
  18.6628902  18.3181989  56.0806036  18.3858836  17.4214053  54.8931599
  74.4971672  38.1533013   7.2289659  73.7858979  37.5179382   7.3104336
  74.0716378  38.9498113   6.9115879   8.7243116  27.0767403  37.9444695
   9.3588185  26.3680053  37.8380299   8.3307612  26.9190025  38.8026476
   0.2506821  11.7204232  20.0674106  -0.4841764  11.3489099  19.5793583
   0.5152218  12.4854226  19.5565082   6.4761358  14.8730004  15.0937998
   5.7646281  14.2500830  15.2419972   6.0627383  15.6039333  14.6343756
  59.9635983  40.5004263  55.7041931  59.7564650  41.2089777  55.0948572
  60.4901218  40.9173346  56.3862419   4.9084655  66.7574822   2.3356726
   4.5583574  67.1188079   3.1499817   4.2350832  66.9445454   1.6816141
  58.7819126   6.0281169  34.2276502  59.1487983   6.6789877  34.8259759
  59.1128734   6.2814510  33.3659554  12.8099990  35.4291296  62.3036814
  12.1613169  34.7252965  62.2958946  12.8592360  35.7195568  61.3929367
  27.9305577   7.5094932  57.3532963  28.7020516   7.6151180  57.9099607
  28.1112123   8.0547690  56.5876150  57.5517050  67.3310553   8.8868143
  57.8642885  66.4590751   9.1280033  56.6357032  67.1981369   8.6428787
  25.3521872  38.2529187  29.4939327  25.8968401  38.2274842  30.2806616
  25.8729792  38.7432051  28.8578296  26.4684859  66.7696153   6.0877086
  25.6333061  67.2061096   5.9198429  26.6787866  66.9952522   6.9938518
   1.5952826  28.9845102  17.9804756   2.5515080  28.9965753  17.9389622
   1.3978625  28.7051188  18.8744499  50.3601209  33.6905046  12.1221735
  49.6110574  33.5334922  12.6970484  49.9905960  33.6808021  11.2392284
   9.1246253  20.9334469  37.2058630   8.5669035  21.6496801  36.9022393
   8.5987562  20.1455569  37.0683050   0.3635462  70.0079489  26.5238953
   0.9090408  69.9348626  27.3070478  -0.5226842  69.8161471  26.8305492
  68.4153882  18.5816610  36.0735607  68.4510735  18.0073106  36.8384671
  68.5180017  17.9921830  35.3264236  71.4277951  63.2175432  25.1135494
  71.8815676  63.4887062  25.9115459  70.6124035  62.8236662  25.4237606
  34.0289626  51.9296490  24.9823429  33.4552214  51.8231820  24.2235805
  34.1467486  51.0417663  25.3200104  40.9992647  14.7521389  44.7089529
  40.3722048  14.9927199  44.0269327  40.9862947  13.7950850  44.7194290
  22.3579359  24.9448562  38.7328196  21.7216730  25.6479883  38.8632298
  21.8501759  24.2308187  38.3473802  75.5675236  58.0894481  15.2107860
  76.3815609  57.5862418  15.1919176  75.3647248  58.2515298  14.2894651
  20.0843605  65.9364787  39.7629929  20.0377782  65.0088677  39.5314789
  19.1703828  66.2108353  39.8378849  65.4435789  38.4635797  57.1949387
  65.1983558  37.6389805  57.6146221  65.0717079  38.4043017  56.3149214
  35.2848474  66.4479672   8.4461786  34.6970014  65.9989058   9.0536405
  36.1633245  66.2258636   8.7546923  13.2835197  24.4437003  34.7914028
  13.4849501  23.8722634  34.0503788  13.5580814  25.3144550  34.5039439
  56.3002639  45.4934326  52.9632902  55.6926891  46.1801592  53.2380486
  57.1500021  45.9312740  52.9135752  48.6375443  51.9048689   2.8277208
  48.0055777  52.6155911   2.9360010  48.8249604  51.6130231   3.7198688
  67.3485819  61.6503273  15.0024988  68.2376687  61.8180858  15.3149320
  67.2708861  60.6962858  15.0020601  32.7566171  10.3891182  36.4405918
  32.8494191   9.7115916  35.7708335  31.8200731  10.4042709  36.6377974
   4.9906901  19.3825114  47.9587650   4.9606052  20.0623536  48.6319256
   4.0784365  19.2690241  47.6920319  36.6747212   5.5954278  54.2375612
  37.2123528   4.8189023  54.0820169  37.0317245   6.2566161  53.6445951
  11.0580667  73.4404717  40.2893114  11.1814340  74.1409026  40.9299421
  11.1871966  73.8657807  39.4415665  56.2383238  72.7786695  11.8889858
  56.1241690  73.0677162  10.9836389  57.0342628  73.2215272  12.1832420
  58.8941085  70.9493777  36.3413835  59.7115528  71.1996383  36.7719483
  58.9713048  71.3045955  35.4558921  58.9965728  16.9502866  35.9171677
  58.8208380  17.4830592  35.1416016  59.9514726  16.9228518  35.9775567
  12.4414921  18.4092212  36.0449553  12.2828066  19.3524563  36.0818124
  12.4395692  18.2023585  35.1103783  38.1062436   7.4865925   6.0244286
  38.6533689   7.6644349   5.2594072  37.5567579   6.7489040   5.7596397
  25.1389806   1.9953938  30.6148578  25.9441344   1.8645783  31.1157085
  25.3574674   1.7038031  29.7297241  56.0132279  42.3996464  61.5728283
  56.8995108  42.1272675  61.8106174  55.4431369  41.8854109  62.1444798
  23.4445167  14.5591331  63.0081081  23.5954404  15.3052211  63.5884619
  22.7140307  14.8315835  62.4527788  13.2702255   0.4644700  40.5682898
  12.9859936  -0.4119960  40.3089619  12.4565721   0.9423871  40.7288933
  58.3528367  29.5283340   0.9875156  58.9078514  29.4892137   1.7664005
  57.9505340  28.6612932   0.9362938  31.5520048  17.7563512  18.1288493
  31.4540935  18.1929779  17.2826803  31.2699342  16.8559432  17.9678130
  23.5963845   8.5005987  43.6146021  22.7355027   8.8015413  43.3238363
  23.5105205   8.4101194  44.5636415   8.8108166  59.8285571  31.9358516
   9.3442353  60.6210605  31.9961524   7.9673680  60.0782612  32.3133063
   1.5810538  22.1902584  15.9190084   1.9869948  22.5705765  16.6979839
   1.1875392  22.9358636  15.4657413  21.8936729  22.7481890  25.7586288
  22.0285559  22.4116468  24.8727536  21.0111666  23.1185246  25.7423663
   3.9371854   1.5051439  31.7063785   2.9870656   1.4066429  31.6447186
   4.0667307   2.1447098  32.4066687   7.7601099  14.6991348  55.2381992
   7.4704963  13.8882291  54.8201227   7.0369309  14.9420798  55.8163166
  30.2613020  26.2047791  56.9937563  29.4136930  25.7778597  56.8691254
  30.8585382  25.7231069  56.4214468  50.2985398  54.1694544   0.3232719
  50.9835211  53.5280560   0.5120518  50.6386653  54.6723150  -0.4167793
  14.9972665  31.9576097  54.1620922  15.5131292  31.2398839  53.7946892
  15.2830637  32.7311945  53.6761713   1.6191657  34.4473648  45.9408379
   1.0597637  34.0424252  45.2780247   1.5953930  33.8383055  46.6788864
  59.2434993  39.6658039  52.1605682  58.6126486  40.3657532  52.3288822
  59.9180332  40.0763130  51.6195345  27.7303648   5.2206373  43.0192041
  27.1912837   4.8938760  42.2988892  27.1700239   5.8520305  43.4704161
  19.4270706   3.8471183  13.4217155  18.5224950   3.5824192  13.5887742
  19.4127607   4.2008615  12.5323939   1.0329009  56.8159603  19.1241791
   1.3211156  56.0416864  18.6407902   1.8421460  57.2817670  19.3348457
  24.8776650   4.7796193  30.3516769  24.7759223   3.8513246  30.5617952
  24.8002934   5.2259344  31.1949134  31.2172461  24.1280198  38.5784698
  30.3772807  23.7754655  38.2845426  31.0578942  25.0652933  38.6896229
  36.0810089  13.0859458  37.7956724  36.8839765  13.5612559  38.0091023
  36.2140155  12.2130024  38.1651473  62.9347324  15.6400371  54.2908764
  63.6119890  14.9777198  54.4283199  63.4184170  16.4598799  54.1901731
  30.5100369  14.9224961  17.8885639  31.1160064  14.2708683  17.5358415
  29.9496984  14.4290352  18.4875202  40.4608587  54.0517651  11.5114548
  41.4142076  53.9722870  11.4791920  40.1410619  53.1627737  11.3576462
   2.6927692  10.1238573  47.1765757   3.0661094   9.8322737  48.0083370
   3.1982759   9.6577680  46.5106487  75.5747604  48.7586251  42.5052691
  75.1293539  49.5574704  42.7875614  75.9573149  48.4016815  43.3068132
  27.2859066  59.3175684   3.9228155  26.4716151  58.9602290   3.5686018
  27.4907666  58.7532865   4.6683695  18.2996845   0.6698206  53.4086800
  18.3567655   0.9606923  52.4985313  18.3827507   1.4731318  53.9225101
  26.1741066  22.0432782  53.4619570  26.3772035  22.8437757  53.9458847
  26.7514920  22.0716047  52.6990318  11.8237925  32.2041178  57.8083611
  12.5232923  32.8329563  57.6309013  12.2388256  31.5295696  58.3459187
  39.2209101  35.0703502  34.0249276  38.9391923  35.5003428  34.8323774
  40.1597309  34.9272203  34.1447711   4.3678094  33.1022899   4.9893333
   3.5104800  32.8252874   5.3125860   4.1721106  33.6409257   4.2226459
   6.3660320  58.7492732  37.5535274   6.9867953  59.4355169  37.3086762
   6.9116028  57.9798618  37.7165961  31.2542534  33.6223698  31.7671680
  30.9836888  32.7641988  31.4407206  32.0874953  33.4587646  32.2089481
  21.6459990  30.3145885  32.1028113  22.3028803  29.6771264  32.3827791
  20.9591722  29.7872949  31.6948104  52.0210791  12.7740145  44.9613380
  51.6805935  13.3103728  45.6773138  51.5714264  13.1011569  44.1822243
  18.5503944  56.9265798  48.7441826  18.0084690  56.1715690  48.5150290
  18.4074195  57.5492016  48.0313492  18.8148452  44.3636255  12.0419075
  18.3949948  44.3919347  12.9016496  19.2209674  43.4977679  12.0020868
  31.3824201  14.0370786  42.9570246  30.7923412  13.3189011  42.7284241
  31.0775852  14.3338299  43.8144875  45.1579181  47.9899214   0.9101774
  44.8096219  48.0320178   0.0195886  46.0670582  47.7118658   0.7989075
  55.6885663  31.8268179   2.5612547  56.0919038  32.2822611   1.8222524
  56.3222281  31.9171147   3.2729770  18.5860825  34.1564202  52.3351145
  18.1736851  33.6972094  51.6034794  19.5228767  34.1230488  52.1413755
  56.3533068   1.4010103  27.7039719  55.4386997   1.3500182  27.9816794
  56.8422318   0.9807800  28.4114981  47.5227611   0.9605236  21.4520408
  47.5768153   1.8570800  21.1211349  47.2740142   0.4383202  20.6893780
  15.9442008  10.9273136  54.1635799  15.5788732  10.2729273  53.5681438
  16.5023649  10.4255199  54.7576237  64.8046139  33.5380387  59.5137548
  64.6341351  33.5370803  60.4556513  63.9891091  33.2249141  59.1224289
  23.4112644   8.1271911  13.9408755  22.5751805   7.8127825  14.2848825
  23.6100006   8.9024311  14.4659841  10.0935817  26.0150409  33.3484101
  10.5582595  26.5704393  32.7224374   9.3387306  25.6847358  32.8612447
  37.1150330  37.6281531  11.8414356  36.7694036  37.5808416  10.9500696
  37.9763500  38.0339827  11.7431166  76.8968813  27.6153421  63.4178829
  77.7079555  28.1186414  63.4891558  76.7433754  27.2820139  64.3019438
  27.3054957  12.7965450  61.9233418  26.8932486  12.4288642  61.1416149
  26.6531205  12.6822472  62.6144075  24.6284032  58.4308672  15.9110606
  23.8202691  58.1638479  16.3490701  24.3594193  59.1342163  15.3201461
  65.7654130  31.2342468  40.3895950  65.1192688  31.1547390  39.6878791
  66.6047537  31.3068691  39.9352145  28.3893085  19.7995889  42.6022053
  29.2146039  19.3986022  42.8748369  28.0922389  19.2611694  41.8686628
  37.9208112  16.0310721  53.6782169  37.2391152  16.6939378  53.7883615
  38.7002325  16.4209986  54.0740585  46.8743151  68.3964584  48.7694311
  47.1256685  68.1019059  47.8940535  47.3597967  69.2115686  48.8964558
  65.2726105  45.1014757  48.7091780  65.8123091  44.4002056  48.3442402
  65.3069440  44.9623203  49.6555853  49.2943859   0.5879972  33.0920672
  48.4242630   0.4830957  32.7072144  49.1664505   0.4137098  34.0245318
  37.3500919  23.5651398  34.0312386  36.6770625  23.2873344  33.4098768
  36.9199204  24.2300868  34.5688534  -0.2452198  10.3679180  47.2522545
   0.7101902  10.3324032  47.2057581  -0.4303804  11.1375952  47.7903461
  32.6058803  60.6177150   5.1188995  31.6944311  60.8633839   4.9603464
  32.8040228  60.9776078   5.9834530   8.2816327  33.5850596  33.9814377
   8.9933413  33.0117202  33.6968589   7.5064063  33.0235863  33.9794683
  45.6679121  52.9434405  24.2737533  46.2403718  53.3790849  24.9052097
  46.0992936  53.0742751  23.4293510  27.7446594  47.4086557   8.5507109
  27.1741711  48.0737113   8.1653883  27.8147572  47.6579665   9.4722130
   3.1540427  36.4223528  47.0290184   2.6144060  35.6963325  46.7160988
   2.7351794  37.2043872  46.6695547  34.3053257  71.3060665  23.6804557
  34.2225956  71.2029752  24.6284842  33.4588098  71.0238305  23.3340645
  39.4665551  10.6793523  50.8801508  39.6916366  10.6816578  49.9497938
  39.5634389  11.5919280  51.1522770  44.2757932  59.9998675   1.9794180
  44.1709248  59.0593968   1.8353798  45.1542489  60.1956068   1.6534855
  44.7353212  30.0012957  10.8764412  44.6099082  30.0732456  11.8226578
  45.1887325  29.1666983  10.7577087   8.0640889  66.4407574  10.7300999
   7.9510403  65.8362113  11.4635708   7.3315860  66.2472163  10.1451065
  39.8485565   6.3761997  54.9542522  39.9330115   6.2026668  54.0167093
  40.7312822   6.6194624  55.2332783  48.7711676   4.1538377   8.7607290
  48.2396005   4.4740195   9.4895317  48.4158583   3.2861276   8.5682108
  59.8575417  26.8221592  11.0709764  59.3061606  26.3029717  11.6563417
  60.0746743  27.6045893  11.5778162  33.5696387  32.8391552  58.0349874
  33.2127404  33.6757636  57.7367496  33.9377499  32.4409699  57.2462082
  26.4007401  42.6423025  25.4317904  26.7176700  43.0022717  24.6034145
  26.7838144  43.2090044  26.1013699  64.8990218  27.3557453   6.0284759
  65.5339590  27.0664661   5.3731872  64.2139951  26.6874538   6.0096027
  67.6988132  15.7054277   7.9788305  67.8294785  15.9495444   7.0625498
  68.4295006  16.1147399   8.4422876  26.9309592  30.2080107  55.8317709
  27.0297742  29.8603606  54.9454260  27.3570752  31.0646129  55.8019543
  74.9608953   7.1877427   7.8771402  75.4195030   7.9569097   8.2152082
  74.0491207   7.4681325   7.7979137  53.2295370   6.5662581  55.1730919
  52.5463009   6.6128641  55.8418608  53.1034613   5.7115334  54.7610426
  40.4681730  23.3756518  62.1009111  40.0377178  24.2240739  62.2063684
  39.7672176  22.7349114  62.2206783  35.7459450  25.8978724  40.2171278
  35.9231496  26.8234515  40.3848553  35.0530529  25.9025073  39.5567393
  49.6294443  62.7391850   8.0057718  49.6757451  63.0811106   8.8986208
  50.3013102  63.2254849   7.5279238  48.7490121  63.9727245   0.6158544
  49.2486516  64.3195663   1.3549711  48.1605450  64.6860729   0.3687240
  34.6640492  48.8896535   4.0024711  34.7470952  47.9444991   3.8759090
  35.1441289  49.0660523   4.8115684  30.9085584  19.6546018  45.7587624
  31.8079829  19.9494076  45.6160736  30.3832531  20.1931381  45.1669312
   7.7991764   1.5036078   4.4029762   7.2197573   1.8577762   5.0775625
   8.0528633   2.2649927   3.8812830  14.6404998   0.6777973  27.9751732
  13.6837856   0.6684108  28.0041363  14.8871057  -0.2445369  27.9064800
  25.6572938  17.9778326  28.4560728  25.4005504  17.1016049  28.1687760
  25.3268385  18.5604966  27.7723098  19.2719803  60.3757130  24.1280224
  19.0664784  59.7463642  24.8193409  20.0083933  59.9838625  23.6585762
  36.9344047  44.0583895   4.0556051  37.0296256  43.2222609   4.5117332
  36.2217120  44.5022015   4.5153143  29.2462373   2.7234280  51.3129807
  28.5896802   2.1861632  51.7562723  29.7506070   3.1199187  52.0233583
  39.7853056  69.9778472  11.6523268  40.5601040  69.6265803  12.0911123
  39.0482370  69.6413861  12.1619894  21.8139625  32.0549393  59.2075729
  22.3577476  31.7165542  58.4962177  21.0716772  32.4676657  58.7661028
  20.8469129   7.0348406  44.7131443  20.5972266   7.9578322  44.6687031
  20.8818650   6.7519093  43.7993813   1.8780690  34.2911744  42.2405767
   1.1388571  33.7013483  42.0925808   1.6455127  34.7720194  43.0348969
  73.3949693  13.0324025   5.2222635  73.6863788  13.7233968   5.8171083
  72.4541457  13.1801696   5.1260998   0.1856694  35.1388383  55.1731539
  -0.0600019  34.8674130  56.0575819   0.5696139  36.0081863  55.2873850
  41.8672228  45.4310513  55.9985065  42.5713491  45.6859446  55.4022932
  41.3638258  46.2341881  56.1318874  14.8105241  69.8812424   1.5116407
  15.5975247  69.8393904   0.9683992  14.6793795  70.8158122   1.6716720
  59.5430899  38.1476927  29.8955750  59.0927076  37.8263283  30.6766725
  60.2629662  38.6790109  30.2357459  24.3180800   1.0730156  63.8293695
  23.6204053   1.6119370  63.4564781  23.8645221   0.4627975  64.4108725
  65.6902122  16.4113915  60.2040815  66.0079813  15.8903897  59.4666433
  64.8151016  16.0665369  60.3815222  51.5201330  71.3667488  49.1233873
  51.9525814  72.2076130  49.2722654  51.4154720  70.9930086  49.9983740
  46.3416433  52.1807623  45.2139044  45.7127047  51.8966818  45.8772039
  46.1906004  53.1220770  45.1282024  62.6389074  33.1344676  53.3356428
  62.5964975  32.8360629  54.2441511  63.4387541  33.6585259  53.2927608
  53.0646324  49.5109987  57.8040743  53.0455828  48.5783863  57.5893641
  53.5548258  49.5578432  58.6248970  73.6688677   1.3691553  54.3532228
  74.0749136   2.0917543  53.8744640  73.0366150   0.9990152  53.7371969
  73.1664133  48.7186909  44.8382139  72.8646612  49.5192766  44.4089794
  72.6118040  48.6394024  45.6143284  47.4581003  45.7533646  49.1890764
  47.2820902  46.4814711  49.7849941  47.5460005  44.9912405  49.7615004
  46.3529396  38.6687779  51.5893316  46.9370222  38.7009001  52.3469925
  45.6806326  39.3236947  51.7772627  71.5377235  60.8607149  43.5615921
  70.8016300  61.4695597  43.5007477  72.3110867  61.4232635  43.6025953
  42.4876928  42.9812336  56.8896389  42.3249054  43.8311291  56.4804888
  41.8924904  42.3811674  56.4403248  31.8616931   7.2166057   8.3194877
  31.1925666   6.5391822   8.4174539  31.6787069   7.6125665   7.4674513
  33.8018037   6.9828495  54.0860891  34.6483708   6.5952953  54.3082523
  33.5079194   7.3974499  54.8972416   0.8428845  59.7521687  13.4676790
   0.5535969  59.1798019  14.1782701   1.6627154  60.1314497  13.7843096
  54.4031620  62.3335028  42.4844694  54.8913431  61.5179729  42.5976992
  55.0426722  62.9472685  42.1231508  49.0916252  51.0329342  54.7830439
  48.9566946  51.7299938  54.1410637  49.6317673  51.4350939  55.4632950
  21.0766149  67.0431995  63.1973600  21.8026161  66.4675140  63.4376621
  20.9712887  66.9151020  62.2546387  54.3777990  52.9929495  20.5895901
  55.1880550  53.4013128  20.2846980  53.6914873  53.3966303  20.0583196
  76.7982356  15.5262169  59.8471880  76.3326899  16.0530838  60.4967356
  76.9056384  14.6714958  60.2645063  75.9379768  43.8320398  43.2964182
  75.3364086  44.5207310  43.5793495  76.6381931  43.8427019  43.9489651
  54.3870401  40.9329748  63.2364607  54.8657608  40.1173162  63.0889368
  54.2122555  40.9412622  64.1775274  13.3799967  52.7036095  60.0002527
  12.9455694  53.3729839  60.5288744  14.2079481  52.5413990  60.4523849
  61.8891954  64.0840864  40.0825834  61.3915396  63.2842588  39.9127364
  62.7479839  63.9190292  39.6933889  36.2716579  53.1549168  62.1106625
  35.7420540  53.6524248  62.7337503  36.1241984  52.2394896  62.3483181
   2.6228683  10.9588523  25.3625156   2.5579207  10.2592702  26.0125973
   3.5621612  11.1247153  25.2821876  54.0985203  43.0926371  41.1219454
  53.8829041  43.9573193  40.7725668  54.8019505  42.7743053  40.5561876
  40.2429931  25.3410573   6.8328907  40.3487031  25.3479619   5.8815672
  39.8551004  24.4872279   7.0245840  71.9189707  12.9008755  23.0077004
  72.0443360  12.0023426  22.7025032  72.5166813  13.4216293  22.4712420
  76.1605120  72.3277855  40.2940798  76.9344473  72.1854544  39.7491026
  75.8122349  73.1695890  40.0003099  54.6216106  40.4886532  50.5684853
  54.5209122  40.3400421  51.5086985  55.3801727  39.9593425  50.3222227
   1.9952330  26.8322158  28.9798379   2.5040850  27.3590612  28.3636141
   1.7446360  26.0550046  28.4804630  23.7832229  16.0901113   3.2909490
  24.4257705  16.7350907   3.5865166  24.2598645  15.2600236   3.2904817
  17.1104368  67.2836542  44.7481680  17.1617922  66.6904783  45.4976606
  16.6884360  68.0702496  45.0937414  53.0791807  39.2599177  40.3482246
  53.9002895  39.6474314  40.0451708  53.0123186  38.4345222  39.8681402
  47.0229530  48.0244541  44.9614239  46.3808632  48.5702276  44.5074606
  47.7978849  48.5809088  45.0393677  15.4802705  10.1307282  57.1876335
  16.1498595  10.5765041  57.7064466  14.8517323  10.8179459  56.9664812
  49.4551420  60.7096958  55.8509684  49.2111349  60.8441973  54.9352169
  50.3649902  60.4144764  55.8155251  63.7897635  47.7566814  37.7681041
  63.2002306  47.9855919  37.0495749  64.6298504  48.1432772  37.5210643
  66.4465904  52.8272104  61.7278290  66.0242701  53.1562042  60.9343290
  66.1352301  51.9256830  61.8086863  29.3998003  71.7198849  50.1767778
  29.0701580  70.8235121  50.1128435  29.6198988  71.8287182  51.1019468
  42.2800796  10.0119824  11.1577656  42.4001710   9.4514413  11.9243147
  42.7788083  10.8036943  11.3594915  13.1874260   7.1451510  49.4555662
  12.7248224   6.9835462  48.6333047  12.7101406   6.6281451  50.1045142
  59.0142766   8.2455143  30.6623554  59.8731080   8.6681732  30.6628704
  58.5816637   8.5830959  29.8780656  13.7688911  41.0983038  60.8128405
  12.9069495  41.3451672  61.1480236  14.1487956  40.5567408  61.5046597
  16.3464324  50.9458776   6.5644266  16.0374610  50.9837670   7.4695970
  17.1395890  51.4817090   6.5594580  71.1046410  67.1299362  26.3849616
  71.6722250  66.6277456  26.9696665  70.2182865  66.9487906  26.6976857
  59.7524309  73.4923124  50.7166815  58.8688755  73.3192396  51.0416651
  60.2044821  73.8981628  51.4563894  11.6582617  60.0437737  35.2837920
  12.0430121  59.7527313  36.1105275  11.6505751  59.2601252  34.7341847
  23.1309526  38.0447526   2.1253015  22.9807822  38.9404674   2.4275829
  24.0136211  38.0616183   1.7553808  54.7838259  49.8782444  42.9602623
  54.1051197  49.8318958  43.6336422  54.3474150  50.2769184  42.2073793
  52.9512072  16.9395518  64.0509510  52.1783066  16.3964093  63.8965082
  52.6070786  17.8294122  64.1281223  58.6260097  18.6177058   7.2497131
  59.4560973  19.0448136   7.4612810  58.5808055  18.6422296   6.2938978
  30.8238149  65.7737017  61.4930582  31.0526681  64.8446465  61.4664793
  29.9569035  65.8184671  61.0897017  36.7110650  33.5951037   7.0824243
  37.1208732  34.3985982   7.4028637  36.1107795  33.8891740   6.3972904
  74.2461427  67.1898529  57.1123409  74.8253473  67.6143411  56.4794350
  73.4682020  66.9562152  56.6059351  38.3697240  41.8590112   5.8982803
  39.2355077  41.6389079   5.5544664  38.5031240  42.6768203   6.3774683
  71.0210148   1.6806015  27.8952098  70.7118288   0.7848915  28.0306196
  70.7799069   1.8831333  26.9912839  47.2563379   6.8049855  17.0169689
  46.4808814   6.9740672  16.4818909  47.2213618   7.4686761  17.7058269
  25.5339591  30.9978337  13.7824060  24.9252193  31.0469337  13.0453493
  25.3423135  30.1559682  14.1956522  57.6055527  44.8624277  29.0319896
  58.0643940  44.5500374  28.2521749  56.8732977  45.3751564  28.6897302
  78.4093062   0.6064066  27.3599362  78.3249108   0.2490410  26.4759684
  77.7785889   0.1090511  27.8805757  74.5790354   7.1532616  49.7464228
  74.4135157   7.9127201  50.3050327  75.2437655   7.4525341  49.1260958
   1.3209614  67.7894449  64.0871954   1.4410004  68.7318182  64.2044544
   0.3935227  67.6911068  63.8717365  71.1078183   1.3264689  57.9616594
  71.9416348   1.1291107  57.5349998  70.5371729   0.5964693  57.7214575
  12.6642165  30.1065803  47.9372644  12.9903063  29.3441772  47.4590969
  13.4121737  30.7026172  47.9764509  54.7947407  28.6330914  53.4151459
  55.1247406  29.3228030  52.8392744  55.4391527  27.9293394  53.3396673
  55.9038210  56.4790392  56.0779810  56.7784405  56.1503601  55.8700371
  55.7650423  56.2292814  56.9915438  12.6994669  50.5702257  52.8893423
  12.7237487  50.8304691  53.8101625  13.1283951  51.2895012  52.4257708
  24.2694045   2.0335135  50.5566406  24.2122699   2.9839167  50.6551266
  24.4856072   1.9009337  49.6336508  36.9176070  16.8561348  44.6854687
  37.3711673  17.6938137  44.7793818  36.0214195  17.0358261  44.9697065
  21.4019410  14.9554916  34.1024067  22.0190351  15.6866546  34.1312076
  21.2442701  14.7388024  35.0213291  61.2764978  73.5749245  29.1131043
  62.2260952  73.6805916  29.0553737  60.9636688  73.7296057  28.2217908
  66.1811892  70.4514824   5.3049232  65.6501976  70.2573334   4.5325329
  66.0207120  71.3789521   5.4789354  69.4401996  28.0397124  15.4711248
  69.6992175  28.7780042  14.9197008  68.6626498  27.6819224  15.0426103
   0.7946873  63.3561932   9.8069956   1.6686202  63.7210928   9.9460222
   0.2686930  63.7154399  10.5214931  28.8474385  48.5599465  25.7787563
  29.1823594  49.4361157  25.5880024  28.4346597  48.2783361  24.9623348
  56.1286116  33.8132286  59.2619658  55.4813290  34.2275739  59.8325539
  55.7440376  32.9653549  59.0396023   2.2896418  62.2859764  36.3477683
   2.5561842  61.3714981  36.2533045   1.3747057  62.2413206  36.6254830
  57.9296652  58.9648424   3.2233431  57.3376099  59.6677791   3.4908869
  58.0715648  58.4547077   4.0207483  56.6162920  43.0839729  39.6626544
  56.5205002  43.0387735  38.7113333  57.4057055  43.6077976  39.7992730
  54.4367123  53.3744431  44.8029900  54.0501499  52.7732277  45.4396534
  55.3584957  53.4298944  45.0549316  71.3752524  62.1777903   2.8336098
  71.3994662  62.3953067   3.7654545  70.8342806  61.3895808   2.7856256
  35.1091957  61.6782188  61.8932724  34.7415280  62.5315428  61.6632891
  34.8576117  61.1058140  61.1685038  71.2521362  65.9224844  34.5056033
  71.3865471  64.9751616  34.4782829  72.0213842  66.2604094  34.9641895
  39.2052770  71.6285753  51.8167830  38.3461142  71.7097902  51.4026880
  39.6795607  72.4126482  51.5401697  10.4580928   2.7716288  55.0306177
  10.2779198   3.4242472  54.3539667   9.7551013   2.8887733  55.6696081
  49.5159721  65.0023460  51.0725260  49.1364479  64.8473024  50.2075624
  49.0761757  64.3724012  51.6434669  52.5443983  73.9466619  48.3488703
  53.1395149  73.7635517  47.6218605  51.6729784  73.7661028  47.9963684
  72.7990023   3.3856138  61.0992527  72.6290718   3.2271084  62.0278168
  72.0272414   3.8614544  60.7923460  65.8566236  70.3522301  49.3319511
  66.0254002  69.6132278  49.9164391  65.7211685  71.0959339  49.9191332
  41.8713300  33.5604615   5.0202753  42.1421735  33.4491487   4.1089680
  41.4521806  32.7307649   5.2486231  62.4540567  49.5330954  52.2993946
  61.7250299  48.9134312  52.3270988  63.2367992  48.9844275  52.3494816
  47.0277119  44.1832304  51.2548351  47.7726173  43.9415312  51.8052244
  46.3664198  44.4976091  51.8713522  64.8723126  19.0464195  57.4546146
  65.0166608  19.9921402  57.4228430  64.4554806  18.8961300  58.3030796
  20.5718327   6.3633808  41.7853498  19.9335433   7.0665154  41.6652727
  20.7891036   6.0827431  40.8963776  48.5730505  72.9297733  63.6227846
  49.1661882  72.2315073  63.8999987  48.9046717  73.7136555  64.0607119
  49.7856426  67.6565504  24.1366243  50.2464628  68.3779430  24.5649576
  49.4363213  68.0396557  23.3319902  13.2961083   3.1631073  33.5804987
  13.0036355   4.0160736  33.2593513  12.9412318   3.1066784  34.4676924
  35.6411616  38.1665797   6.1220838  36.4729850  38.0526490   5.6623890
  35.5050580  39.1138930   6.1397411  15.3962009  47.9741426   5.4876901
  14.9925248  48.4430356   4.7573330  16.0975234  48.5533662   5.7858230
  69.3902174  14.1820129  37.6782227  70.1228777  14.6580299  37.2872782
  69.8031680  13.5036167  38.2125330  38.0848027   7.3359760  17.3864388
  38.0039311   7.6894268  18.2723093  38.3423424   6.4231380  17.5153613
  64.7135353  70.0861263  57.8276539  65.6705379  70.1010704  57.8153658
  64.4921446  69.2366409  58.2092237  39.9731732  14.9449047  25.9396791
  40.4944802  14.3004402  26.4183617  39.1190911  14.9305996  26.3716221
  67.0156018  12.4584469  40.4412508  67.4768225  12.9512581  39.7625422
  66.1673562  12.8949913  40.5195904   3.5291339   3.3926233  51.2599850
   3.5697890   2.7500710  50.5516720   3.8574887   2.9241976  52.0274448
  78.1356684   1.8921980  52.0828199  77.3020045   2.0832237  52.5126410
  78.0660740   2.3146328  51.2267017  44.1806221  72.6909161  45.4714584
  43.2481766  72.8703690  45.5921602  44.4961929  72.4646139  46.3463497
   0.2494702  21.8362069  41.3133955   0.5792984  22.6335239  40.8989859
   0.7137188  21.1261821  40.8700275  57.9465103  62.3637295  26.2319946
  57.4634600  62.6915312  26.9905686  57.5610971  62.8230381  25.4858589
  10.9479706  58.9660020   1.6262676  11.8651049  58.8171144   1.3962032
  10.9810893  59.3697972   2.4934913  58.1667376  69.1625118  33.5605526
  58.8496542  68.7170410  34.0619683  58.6438704  69.6672535  32.9019094
  55.2247667  46.8475199  39.1374636  54.4725370  47.3480082  39.4535255
  54.8983049  45.9516096  39.0537977  60.1519299  46.8126106  58.6160135
  60.0469446  45.8619547  58.5777712  59.8176670  47.0559597  59.4793081
  66.9124182  26.5128942   4.4823124  67.6721259  25.9310050   4.5042183
  67.1153124  27.1458526   3.7935211  13.6588423  20.9150024  27.4052002
  13.1527083  21.4127917  26.7631199  14.2697541  20.3981299  26.8799736
  14.9058931  24.8899932  17.2621109  15.1763360  24.2504497  16.6032650
  14.0804116  24.5468850  17.6042988  21.9722272  60.1719008  17.2290565
  22.2903300  60.0808250  18.1272461  22.1735287  59.3315612  16.8173076
  41.7728234  10.7620415  22.5014496  42.7071763  10.9536537  22.5820518
  41.6432000   9.9750504  23.0306792  61.1375618  53.1973982  31.9251013
  60.5021524  53.9116621  31.8769956  60.7834435  52.6061392  32.5893641
  58.7381458  55.6359243  57.4955511  58.2795763  54.7978973  57.5560570
  59.0398073  55.6789112  56.5881443  42.4973440  61.0257816  61.3056374
  42.1501827  60.2165556  61.6809559  42.8952789  61.4822006  62.0469618
  27.1858136  50.1402421  15.9470989  27.1700589  49.4392533  15.2954914
  26.2632100  50.3185506  16.1294224  36.7662764  63.7623930  47.8555489
  36.1240649  63.0745935  48.0308485  37.5711989  63.2899809  47.6430416
  48.9634769  25.1252599   0.8993866  49.6699874  24.8327108   0.3236343
  49.1272704  24.6743531   1.7276909  42.6774423  52.4631162  18.3511402
  41.7537992  52.2416825  18.4697964  42.6677959  53.3609338  18.0193664
  78.4298237  15.1492639  15.9732391  77.4795754  15.2557321  16.0171367
  78.7781484  15.9199853  16.4214470  76.3956992   3.3436379  35.5099988
  75.6423441   3.5047707  34.9419117  76.0547940   2.7824339  36.2064648
   2.1254350  23.3510251   9.4889070   1.6324045  24.1492696   9.6785404
   1.8396665  22.7284856  10.1574995  72.4105358  55.6827736  32.2845101
  72.8473091  55.9069777  33.1062102  73.1147242  55.6634998  31.6364527
  76.9012070  24.5083642  58.0191040  76.7490959  25.4048824  57.7201939
  76.3925552  24.4355989  58.8266993  69.1624315   7.0078273   1.4157440
  69.1000898   6.3961930   2.1494009  68.4946914   6.7098041   0.7980587
  61.2918282  39.1760540  59.0205717  61.0885143  39.7428060  59.7646761
  62.2343397  39.2806292  58.8903427  45.1114988  58.3463812  50.4793406
  45.6058693  58.2674122  51.2951803  44.5296192  57.5863552  50.4773521
   1.5207768  67.0714675  38.0052616   0.9567452  67.0236169  38.7771465
   1.8158675  67.9817043  37.9803039  45.4138088  51.9702482  53.9196110
  46.1968231  52.3281193  53.5012245  45.4383612  52.3180723  54.8110390
  34.0975499  64.3523264  52.0114470  34.0290475  64.6160698  51.0938549
  34.9549794  63.9318180  52.0764208  63.5077238  40.3234434  46.0882330
  64.0540504  40.1853275  45.3144884  62.8759909  39.6046376  46.0667896
  52.9780595  50.9172387   1.7946150  52.7717416  51.4454503   2.5657560
  53.6956374  50.3504415   2.0775463  41.4051390  71.6691685  55.8410645
  40.7214546  71.0927677  55.4996347  42.0582533  71.7061663  55.1422739
  49.1893673  72.4948263  43.5730362  48.2390690  72.3837662  43.5441923
  49.3249846  73.4330797  43.4406614   5.9397666  29.2293544  15.1214363
   5.7256477  30.1548190  15.2393390   5.7436721  29.0535016  14.2011883
  40.5562513  25.8953042   4.1024210  41.2372558  26.4051242   3.6636164
  40.9571283  25.0391097   4.2522814  15.1990224   5.1967415   9.5466226
  14.6855498   5.1108488  10.3498685  15.9444476   5.7429251   9.7961181
  72.0860147  55.4303217  59.0277100  71.2153721  55.8235884  58.9681101
  72.0756626  54.7261906  58.3793831  27.7167194  26.3603635  29.8495247
  27.7578752  25.4227204  29.6614601  28.5912625  26.5786500  30.1716377
  44.3036222  56.8325281  59.8324013  43.4368038  56.6481352  59.4706583
  44.2068148  56.6852283  60.7732296  60.3970051  52.2400522  61.0627985
  60.5755901  52.7630043  61.8443727  59.7311115  52.7379131  60.5885029
   8.5353232  11.2848076  20.5956101   7.8639556  11.8918976  20.2842402
   8.2354308  11.0218033  21.4657378   3.2494450  14.4148525  23.5964775
   2.6246358  14.8472866  24.1785812   4.0439177  14.3243202  24.1226435
  28.4969632  30.5416293   3.2316305  28.8734882  31.3664479   2.9248096
  28.0029647  30.7808919   4.0158178  37.6698399  55.6813526  62.3396587
  37.2474360  54.9195862  61.9427729  36.9496894  56.2825680  62.5298119
  38.7942092  22.6627584   7.6204111  39.2475669  21.9342418   8.0446245
  37.9419248  22.3035092   7.3738672  57.3478031  59.8289394  32.0773172
  56.8501854  59.2317581  32.6358724  57.5223875  60.5879021  32.6338482
  71.4643637  51.8638061  21.4819099  71.1196486  51.3992845  20.7192661
  72.4040333  51.6819571  21.4685585  22.0971823   4.2910799  48.4547615
  21.4559842   4.8701748  48.0427599  22.3274279   3.6630186  47.7700996
  46.8645811  73.0619526  39.2181730  47.0494652  73.9831877  39.4008589
  47.0196676  72.6167631  40.0512314   4.9380065   2.8075489  39.8219347
   4.3024922   2.7124342  40.5313778   4.7235871   3.6491760  39.4195414
   8.7602989  21.0419030  19.2166759   8.8059442  21.9569774  19.4937755
   8.6982958  21.0834308  18.2623913   5.5487268  15.1493068  25.7108738
   5.7288353  14.3601747  26.2218143   5.8007614  15.8706422  26.2873985
  70.5267397  15.8983597  48.1301975  69.5928399  16.0802063  48.2350254
  70.9404961  16.7615112  48.1318617  31.7617583  71.6326618  62.3242521
  31.1140776  71.9029903  61.6733551  32.4809957  72.2555208  62.2194719
  75.6357972   3.1947884  53.2219172  75.8094040   3.8378414  53.9093590
  75.5639903   3.7139257  52.4209356  73.9340019  69.4330454  58.6761761
  74.2391014  68.5669947  58.4057999  74.0116787  69.9710941  57.8883314
  49.7119141  46.3406467  47.8518915  48.9835262  45.9311485  48.3187914
  50.3189182  45.6214762  47.6770592  59.6414653  72.1806227  18.9679767
  60.0376550  72.7953754  19.5855095  59.4623033  72.7062951  18.1883575
  76.2866036   8.5199245  54.2541265  76.8540017   8.1710896  54.9415874
  75.4810635   8.7645706  54.7096300  55.0559966   3.7625774  46.3116646
  54.2894093   4.2334303  46.6385841  55.6102983   4.4431910  45.9298944
  37.8567529  54.4190979  22.7063823  37.3411083  55.0478029  22.2013354
  37.2591782  54.1120195  23.3881736  25.3455186  56.2189198  57.1112442
  25.0705361  56.9879770  56.6120672  24.5496106  55.6949043  57.2016382
  71.7096949  53.8104153  50.0515509  72.3266459  54.2793608  50.6134176
  70.9266281  53.7045002  50.5917501  73.7738053  55.6545054  12.9454519
  74.3812052  56.2909673  12.5683405  73.0190484  56.1762057  13.2182123
   1.8005785  63.0408573  57.6656771   2.6766142  62.6702213  57.7725458
   1.2314257  62.4596071  58.1700993  65.1212835  56.9284630  50.6834650
  65.4604673  56.3080883  50.0382328  65.9027910  57.3268318  51.0665798
  48.5264063  56.5003490  52.6088762  49.3653011  56.8628883  52.8935623
  47.9496765  57.2606945  52.5347614   1.9573817  70.9327555  47.5202274
   2.6576742  71.4618301  47.1382523   2.3040327  70.6520510  48.3671474
  63.9724874  48.3707952  47.5284290  63.1597328  48.2649660  47.0339966
  64.2687082  49.2558098  47.3157501  50.3090191  53.5166168  18.1178868
  50.4974651  53.4100914  19.0502882  49.3549204  53.4668064  18.0591488
  33.6263943   5.6440243  51.8393660  34.3653584   5.8634981  51.2719297
  33.7582303   6.1790833  52.6220322  48.2577181  52.9154253  22.3221445
  49.0218306  53.1724834  21.8061185  47.7400589  53.7168837  22.3991346
  39.2495704  63.3353901  57.7238750  39.0505075  64.1880178  58.1107044
  38.5232162  62.7739668  57.9948854   5.1550008   4.8138460  28.7393427
   5.6019927   5.5886349  28.3985662   5.6287337   4.5979294  29.5425797
  72.5628678  27.5849136  39.6214724  72.1544329  27.0836910  38.9156508
  71.8694798  27.6899418  40.2729416  14.3728447  40.9033680  53.2446337
  14.0913486  40.7421017  54.1451836  13.7168682  41.5051317  52.8927708
   5.4762873  35.8003235  44.1763067   4.7503123  36.4148927  44.0690947
   5.1655611  34.9898362  43.7728357  66.0187578  50.1046419  63.0321312
  65.1084280  50.3913212  62.9590273  66.0314751  49.5429373  63.8070869
   4.5168814  68.2685518  29.3867636   4.2993101  68.9160109  30.0573564
   3.6703142  67.9222727  29.1045570  30.5389087  58.1958242   5.1656963
  31.1301439  58.9484449   5.1502134  30.7935064  57.6755281   4.4036581
  71.5247059  48.0262375  46.9637012  70.6620216  47.6933527  47.2110796
  72.1363401  47.5421906  47.5185299  23.1300593  17.5062355  54.8750687
  22.2995425  17.2405323  55.2698708  23.6415625  16.6986069  54.8268223
  70.1702929  28.0221033  59.8327923  70.3322792  28.8624740  59.4041109
  70.7898378  27.4197912  59.4209576  54.1360061  56.4406343  12.9883196
  53.3950488  57.0194001  12.8087475  54.9072044  56.9646115  12.7716829
  65.1465797  54.4682741  41.2523460  64.6740198  54.5727444  42.0781803
  65.4920435  53.5761976  41.2852669  52.8819799  67.1624374  49.6596098
  52.9407597  66.8688488  48.7504435  52.5282335  68.0500269  49.6022844
  25.1088429   3.3398947  46.5568066  24.2446328   3.2724604  46.1508274
  25.7154942   3.0396685  45.8799934  13.2207696  21.8867154  24.7863056
  14.1276900  21.7021651  24.5420315  13.0031173  22.6885505  24.3110039
   2.5884009  73.9838205  24.0974571   2.0631123  74.5792733  23.5629131
   2.5844241  73.1591164  23.6115791   1.7604209  58.2681094   4.5150472
   2.6068211  57.9128872   4.7864391   1.4882279  58.8232337   5.2457859
  66.2832992  48.8335557  34.1845848  65.9649245  49.0767427  35.0539162
  65.4930465  48.6040444  33.6956550  67.3174334  47.0350170  49.7117138
  67.2397375  46.3443851  50.3699112  66.4420319  47.1020365  49.3303823
   7.7208966  64.5148993  62.7581453   6.9387376  64.3549490  63.2862282
   7.7650344  65.4677153  62.6779795  46.6196442  60.4822302  54.9114799
  45.6674910  60.3841686  54.9151039  46.7643356  61.4080381  54.7161007
  32.8753059   3.7509723   6.3275768  33.7855403   3.9081664   6.5785696
  32.4436872   3.4919067   7.1417143  38.2472325  10.3403458   4.4340137
  38.5705186  10.5225834   5.3163433  37.7626134  11.1285862   4.1889468
  10.4506144  36.7845321  51.3910961   9.7794756  37.2652960  50.9066582
  10.2416739  36.9435120  52.3115873  35.1443934  68.6500311  52.1334171
  34.6253920  68.1525087  51.5014839  34.6563482  68.5780573  52.9537010
  24.2206527  26.7918953  62.5667477  23.5820151  26.6604694  63.2675314
  25.0122405  26.3534054  62.8787518  29.0193908  19.3276830   7.0143797
  29.4255893  19.1935058   7.8706648  29.1844670  18.5125060   6.5405990
  77.2897816  47.2545052  44.4004440  77.4951267  46.3363552  44.5767021
  76.9550848  47.5890779  45.2324724  49.5374775  47.0818663  53.7535477
  49.4568348  46.1381769  53.6150360  49.7128248  47.1723461  54.6901894
  69.6238963  29.3216891   4.1528370  68.7683551  29.7380061   4.2575266
  70.1404349  29.6470923   4.8900892  75.7536745  57.1135902  61.0989380
  74.8481226  56.8047285  61.0703850  76.2797737  56.3263893  60.9583521
  53.5141230  34.1609359  12.4247956  52.7468729  34.6377540  12.7413547
  53.3615351  33.2553625  12.6947713  13.2798474  14.5420213   3.2600834
  12.5541894  13.9361281   3.4102203  13.1277673  14.8842664   2.3791935
  41.8191449  45.5842156   1.9534733  42.3524348  46.2122293   2.4407389
  41.1446683  45.3098340   2.5747825  38.2837677  70.8100796  43.3620453
  37.4086452  71.0373354  43.6762857  38.6893702  70.3483963  44.0959167
  51.6934538  51.4176607  56.5790558  51.8961668  51.3542700  55.6457186
  52.2346449  50.7423592  56.9880962  44.1702414  51.4525175  57.6445103
  45.0021505  51.3508797  57.1820974  44.0896511  52.3954582  57.7880621
  16.2682407  26.2464471   1.0802366  16.0530536  26.7322965   0.2840664
  16.9906537  25.6734510   0.8232786  19.1558997  35.1745172   6.6915752
  19.7842281  34.5873160   6.2713005  18.3197133  34.9696536   6.2731745
  53.4009790  53.4203339   6.6315043  52.9867125  53.3136225   7.4877894
  52.6770687  53.6222363   6.0386997  56.5312862  71.2338114  26.3390899
  55.7077312  71.6575718  26.0973787  57.0320129  71.9187212  26.7822671
  29.8104589  26.5966411  13.8639595  30.7449548  26.4595265  13.7085726
  29.6949069  26.4225717  14.7980787  64.3362904  12.0016134  24.0408325
  64.0280867  11.4664006  23.3095384  63.8966084  12.8436971  23.9233398
  13.1817628   5.7643923  57.0381355  12.3630906   5.5855545  57.5007677
  13.6795998   6.3196548  57.6381969  49.1589546  56.6725349  47.0875072
  49.5030832  57.1693802  46.3452482  48.2403326  56.5181875  46.8671656
  78.0169685  49.5788140   9.8713209  78.9507993  49.3706269   9.8420622
  77.7094300  49.4261308   8.9778234  18.8413176  53.7157869  50.5544138
  19.1152415  53.3304787  49.7221088  18.0791983  54.2503500  50.3315687
  60.5667543  44.7563887  20.3108883  60.8688450  45.6356907  20.5384851
  59.7733450  44.6333456  20.8320355  55.4036188  67.3822880  50.5795383
  54.4760275  67.2151613  50.4125786  55.4513550  68.3238745  50.7449675
  74.2624474  56.3840246  34.2535925  73.9212465  55.6969690  34.8260999
  75.2049780  56.2207413  34.2189097  54.9378872  67.0917940  26.8207216
  55.4120255  67.8987217  26.6199970  54.9963427  67.0101213  27.7726388
  69.9125528  73.2652950  46.6144753  69.4183636  72.6971722  47.2054434
  70.8126593  73.2215309  46.9371605  54.6951151  60.0358772  38.6637306
  55.3508711  59.7650480  39.3062758  54.0784788  60.5720472  39.1622376
  55.5093575  19.8320946  54.4032860  56.3907815  19.9790463  54.0601826
  54.9426270  20.3616509  53.8423777  45.4694463   9.1227039  18.6817694
  45.2256394   9.8173126  19.2935801  45.3722192   9.5205483  17.8166115
  74.6598355   1.6467651  42.7496529  75.1297251   1.7685541  41.9246674
  73.9265696   2.2600540  42.7004337  50.0674582  41.2425470  50.7836962
  50.6080866  40.6486988  51.3045549  50.3995466  41.1479187  49.8909473
  74.8126761  11.7435631  31.5279317  74.6558014  10.8063396  31.6430283
  73.9377896  12.1302876  31.4926100  56.5497272  24.0910621  23.1826832
  57.2731750  24.1705079  23.8044121  55.7628505  24.2122645  23.7140610
  66.1225414  26.7045426  37.4939132  66.8087530  26.2517476  37.0036888
  65.8430576  27.4138904  36.9151688  16.1630727  15.0838265  44.8421097
  15.8986474  14.1983875  44.5924807  17.0768500  14.9936279  45.1124954
   2.2912884   6.1428436  21.0796356   1.8778849   5.9757170  21.9266295
   1.7858220   6.8639835  20.7045412  16.1891970   3.4937599  34.5070052
  16.4251837   4.3559891  34.1648054  15.3670439   3.2781652  34.0667605
  67.8800519  25.0338311   1.5102341  67.8852744  25.9872909   1.4258673
  67.5992604  24.7188897   0.6510498  11.4776961  33.4627719   6.4038708
  11.0503928  34.3153186   6.3213684  11.0588162  33.0573840   7.1631004
  14.8821545   6.0160288  52.6320362  14.7839785   5.0962814  52.3857498
  13.9872981   6.3203129  52.7832794  40.1379204  64.2581797  20.7326198
  40.8172655  63.5915852  20.8344746  40.5853605  65.0853586  20.9109521
   6.4008523  19.6647820  57.3581076   7.1219159  20.2935394  57.3272467
   5.6367398  20.1621326  57.0665407  66.5005016  48.1231308  60.4861403
  66.7400503  48.0101967  59.5663071  65.7174492  48.6731958  60.4639196
  28.9546300   3.4442791  31.0157180  28.3205033   2.8215727  31.3711739
  29.5680142   3.5979923  31.7342997  66.4193169  24.4041332  29.2789173
  66.7524401  24.5441135  30.1652956  65.9186236  25.1961502  29.0833616
   6.3673052  62.9772139  29.8875546   5.9825453  62.7187109  30.7250357
   6.5204748  63.9180660  29.9745846  40.5564070  68.0755997  53.6702871
  39.9787998  68.8380909  53.7050962  39.9879313  67.3346996  53.8803816
  58.6621944  41.0849937  48.6436939  58.8555376  41.7986664  48.0358076
  59.4953386  40.9111485  49.0817308  19.0673368  39.2669101   2.0682194
  18.9784448  38.5743804   1.4134409  19.2701928  38.8035674   2.8808643
  63.8522291  62.9528999  45.8942318  64.7314548  63.0243778  45.5226374
  63.3468342  63.6309338  45.4458189  13.7009574   1.7795929  61.0858297
  14.2466355   2.3061880  60.5017328  12.8093816   2.0875010  60.9229851
  70.2914683  36.4524731  30.6720448  71.0262219  36.7588314  30.1405311
  69.5367829  36.4953026  30.0848079  58.6384583  41.2010193  59.5283031
  58.5080194  40.2537823  59.4840765  59.4604063  41.3075018  60.0071526
  30.7047383  17.0133300   2.8344347  31.4495532  17.5705428   2.6086189
  31.0574548  16.1236425   2.8177215  55.5718565  53.9091301  12.8961420
  54.8648167  53.4793472  12.4148834  55.3660154  54.8423386  12.8415453
  71.3353363  14.0252670  41.6805315  71.8555180  14.0250382  42.4840546
  71.3702027  14.9310192  41.3729000  55.4194156  27.8571209  56.9658422
  55.1087538  26.9543823  56.8966675  54.7900359  28.2830795  57.5477982
  66.4261675  49.3254137  44.4637775  66.9418335  49.7305727  43.7665224
  66.8063068  48.4529972  44.5667744  21.3875803  31.7693461  63.0592936
  21.9881090  32.5026597  63.1928906  21.4005598  31.2946643  63.8904031
  42.1776152  53.0389357  14.6844029  41.3132191  53.3915138  14.4728684
  42.2721243  53.1851101  15.6256437  64.9946308  59.8285580  28.5891652
  64.4477892  60.5363894  28.2483268  65.6431723  59.6748781  27.9021311
  19.5629217   4.0869756  34.8029186  18.7642290   3.5601897  34.8315861
  20.2297307   3.5332913  35.2091457  60.9071016  67.6772499  34.2247367
  60.8396912  66.7235708  34.1780090  61.7227221  67.8367233  34.6996665
  61.8049955  44.6203613  53.5702991  61.1563301  44.9511528  54.1916227
  61.6517973  45.1260471  52.7721500   2.3136172  68.3281279  61.2433958
   1.9447359  67.6731539  60.6508064   2.1966776  67.9539585  62.1166372
  51.4054219  40.5543275  12.6423170  51.3857429  41.2694974  13.2782223
  50.8816640  39.8615260  13.0447342  49.1409922  66.7418671  38.8879061
  48.3391142  66.9533730  38.4098959  49.2308617  67.4471283  39.5288134
  12.6961081  38.1575770   2.1281006  12.8915255  37.3176522   2.5435116
  12.2180597  37.9255481   1.3319446  71.2415695  49.0528965  39.0240097
  70.3694534  48.7258720  38.8033223  71.8417597  48.4328985  38.6097598
  55.9964816  20.5335803   1.2600138  56.0319297  19.5903392   1.4189627
  55.9467475  20.6142564   0.3075172  69.5762364  17.7951702  42.4062634
  69.3885819  18.7026676  42.1665764  69.0180222  17.6276573  43.1655836
  50.4911868  52.1353288  27.4526932  50.8617799  52.4849267  26.6423370
  51.1623447  51.5394921  27.7854969  68.7664019  61.3451327  58.4404300
  67.8886103  61.1679591  58.1023113  68.7304901  61.0692061  59.3562935
   5.7184538  66.9557953  39.1557097   6.6457304  66.7199802  39.1835165
   5.2569041  66.1308479  39.3062663   1.9058228   9.1567596  38.5339355
   1.7547084   8.4411987  39.1514802   1.7049361   8.7801727  37.6771665
  39.5464734   0.9292254  63.5658121  39.9039999   1.5578255  62.9386997
  39.7732572   0.0731501  63.2025814  43.6076736  56.3443422  47.3783922
  44.5541096  56.3496494  47.2353315  43.4498644  55.5627251  47.9079199
  69.7977638  28.8072371  35.5824232  69.5809174  29.7378993  35.6379199
  70.5844212  28.7121677  36.1194158  68.9250517  41.1697102  36.6588855
  69.1433287  40.4754829  37.2806883  69.6975470  41.7348719  36.6499925
  17.4911246  72.4691010  53.6981535  17.7382597  73.0620193  54.4078064
  18.0991682  72.6778173  52.9889631  59.1714096  47.2509718  28.3520198
  58.6065483  46.5924025  27.9477262  60.0567436  47.0035028  28.0852437
  34.1155116  49.4215531  16.8217327  33.3907334  49.5200677  16.2042953
  34.6286456  48.6920209  16.4742901   0.7404742  59.4404125  48.4150982
   0.2401385  60.2521276  48.4988594   1.5132126  59.6867418  47.9067326
  64.3958378  72.1161985  39.2460704  65.1513052  72.1059990  38.6583614
  64.1475201  71.1958647  39.3329406   1.7310652  51.0675812  48.0475760
   1.0421023  51.1857986  48.7014818   2.5346407  50.9778070  48.5598612
  66.3602320   3.6818298  55.4963112  67.2855202   3.5723719  55.7155895
  66.0358588   2.7895912  55.3741550  69.9902964  53.5796261  28.6653638
  69.9378014  53.6174774  29.6203732  69.8271465  54.4788361  28.3806968
   0.2973208  67.0645428  46.7064857   1.1630186  66.6750956  46.5834808
   0.3044066  67.3839903  47.6087809  48.1712596  54.8972459   1.6833259
  49.0370195  54.6487470   1.3593866  47.7990215  55.4345365   0.9840538
  42.9528873  58.7803025   5.2917625  42.4986665  59.4976182   5.7337763
  43.8793246  58.9323278   5.4784014  60.7228851  49.5593929  57.4952793
  60.6476307  48.6131430  57.6184988  61.4505625  49.6639776  56.8822718
  12.2158528  23.8358196  56.4738178  11.7979956  23.5484871  55.6619883
  11.5074158  24.2331871  56.9802237  74.6736653  25.6182714  15.1558401
  74.2608555  24.9868960  14.5666172  75.6095798  25.4273601  15.0937988
  58.6981440  48.9092207  46.5784359  59.1422367  49.5847893  47.0909023
  58.4985828  49.3339109  45.7441473  52.0892429  67.7504063  12.5645638
  51.4739132  67.1564436  12.9944551  51.6522217  68.6018372  12.5820982
  35.8705521  13.1445297  47.8903580  36.4381409  12.4172863  48.1456709
  36.3233853  13.5544666  47.1533871  47.0271254  61.4333105  51.6388226
  47.3891973  62.1197557  52.1991158  46.0997486  61.6556501  51.5565348
  65.8253765  63.1720066  62.0326281  65.7971239  63.5167170  61.1400986
  66.6893959  62.7665615  62.1055508  23.9580155   1.9271025  58.3961725
  23.9836360   1.5950378  59.2935610  24.5897341   2.6462015  58.3887529
  17.1696664   1.9270691  40.7054138  16.6450263   1.8405708  39.9094868
  17.5475407   2.8047165  40.6489992  69.0721703  47.2912264  47.6470470
  68.6577272  47.1315050  48.4949589  68.3942795  47.0791817  47.0053816
   4.1094868  15.2472253   1.5217735   4.3478791  14.3908115   1.8766691
   3.4119622  15.5595822   2.0980741  23.8471413  63.8232946  49.2708254
  22.9877377  63.4429455  49.4524574  23.7542248  64.7471237  49.5035028
  58.5773691   6.3961629   2.3475220  58.1884082   5.8418779   1.6709806
  57.9471429   6.3731317   3.0676033  57.4279690  47.4541521  40.7140112
  58.0998373  48.0129814  40.3234577  56.7333031  47.4194813  40.0563860
  52.1789551  66.9304800  28.9496708  51.9062805  67.7203941  28.4828591
  51.5750504  66.8691635  29.6897888  53.5342550  46.5855742  47.1570396
  54.3943644  46.4064550  47.5369787  52.9915524  45.8474064  47.4341869
  72.8951073  61.0062790  40.2567148  72.4213123  61.1570692  41.0746479
  73.1565762  60.0863886  40.2974653  42.5605218  26.2122102   8.4144880
  42.6329915  27.1164460   8.7199976  42.1843497  26.2851806   7.5373318
  14.3097497  30.0071606  28.3218765  14.8507310  30.6104263  27.8123236
  13.9140225  30.5547413  28.9999557   7.6368380  22.8261742  42.4272823
   7.7973462  21.8825897  42.4171400   7.9398347  23.1298813  41.5716028
  71.2737083  57.3248529  25.0012565  70.6742382  58.0690384  25.0565171
  72.0870352  57.6428461  25.3931904  56.5198898  72.2044945  18.2575810
  57.2493076  72.1639538  18.8760769  55.8126020  72.6228428  18.7484610
   1.0445834   6.2808880  39.4737411   0.1485682   5.9942850  39.2969489
   1.3119794   5.7725176  40.2394390  67.8272148  56.5142007  11.9528248
  67.1235021  57.1149106  12.1981050  67.4798282  55.6446023  12.1512033
  77.9134703  53.0646276  33.4130144  77.8941822  53.9670944  33.7314701
  77.0717525  52.9480886  32.9723787   6.2941775  65.6598902  -0.0551539
   5.7322249  65.9624481   0.6582170   6.4683089  64.7413397   0.1502201
   7.0991676   9.4935985  32.2082092   7.3503558   9.8483939  33.0610039
   6.5943973  10.1948590  31.7963077  71.5582991  60.4277849  46.6551781
  71.9760704  61.2881756  46.6929436  70.9617758  60.4837322  45.9086800
  36.4106481  37.8238196   8.9628746  36.5676419  36.8807311   9.0094711
  36.8468492  38.0996986   8.1567432  17.6086522  31.8435558  62.9925728
  17.2778273  30.9749874  62.7637291  18.2149649  31.6859039  63.7162828
  51.4892197  59.3171883  40.1042223  51.7051601  59.6379089  40.9798574
  50.9896946  60.0293207  39.7047520  64.3998090   2.9571137  49.4345617
  63.8558785   3.7005600  49.1744518  64.6037094   2.5104412  48.6128950
  49.0768210  23.6715778  62.3961973  49.0992943  23.1284508  63.1840706
  49.9457518  24.0710243  62.3557854  44.5548534  66.6606283  51.4799356
  43.9048910  67.0387173  50.8876228  45.2640343  67.3032236  51.4989805
  71.1038828  66.2312031  38.8153028  71.8685770  66.7208719  38.5124826
  71.0073900  66.4818621  39.7340465  65.7116345  17.5327575  41.2351894
  66.0914472  16.8327153  41.7661428  66.4427784  17.8590691  40.7106113
  16.3477644  64.2215666  52.3022747  15.5406364  63.9179460  51.8868351
  17.0379909  63.6970070  51.8965006   6.7208489  55.3453067  27.2178245
   7.6385792  55.5211166  27.0102358   6.5522560  54.4802800  26.8442798
  11.4813217  74.3067976  30.0698042  12.1321567  74.0512616  29.4160867
  10.9171947  73.5386737  30.1591253  56.7925506  16.0839334   6.9499755
  55.9167492  15.7472101   7.1392453  57.1440022  16.3314167   7.8052330
   3.0080939  27.8056197   1.7716028   2.5915147  28.0171518   0.9361698
   3.3539391  28.6412661   2.0851566  56.2030559  56.2037555  37.2092342
  56.0014474  55.4968563  37.8223228  57.1579953  56.1988607  37.1436691
  28.3928871  12.6784670  58.5971022  27.8060174  12.9776728  57.9026318
  28.2128215  11.7416549  58.6757803  54.6838910  12.3542896  45.1559830
  54.3831462  12.1140924  46.0323906  53.9005100  12.6844564  44.7160578
  48.6568701  73.7026928  26.3881040  49.3078297  74.3190300  26.0525274
  49.1731101  73.0088806  26.7984128   2.0646843  56.5546564  27.1837616
   1.5405520  56.2272337  26.4527941   2.5150140  55.7803896  27.5213170
   9.0312775  62.2934679  61.4432240   8.4693678  62.1878878  60.6755400
   8.6622008  63.0439750  61.9087934  28.5083914  12.2030354  16.2833595
  28.4610057  12.8745091  16.9638813  27.7145243  12.3316717  15.7642639
  74.9916744  43.2041088  30.1035166  74.5586442  43.3180276  30.9495306
  74.4060039  43.6273662  29.4757628  25.0378132  13.0251288  44.1150379
  24.9535704  12.1677160  43.6979342  25.9664822  13.2416940  44.0319490
  52.3751178  20.9135675  43.0504370  51.5170541  20.6472969  43.3806801
  52.9670301  20.7867265  43.7919092  10.5235934  10.1857913   8.6882067
  10.7084990   9.2630416   8.5133475  10.1980448  10.1984525   9.5882565
  21.3303709   1.2811293  49.6529818  21.1352110   1.9168463  50.3414679
  22.2637630   1.3984631  49.4762278  55.4955951  29.1617994   1.2582447
  55.6920210  29.9121688   1.8191292  55.1459209  29.5480220   0.4552509
  56.0213473  66.9291339  32.7498770  56.7929711  67.0055381  32.1886349
  56.3059758  67.2732202  33.5965300  10.1661086   5.0618428   7.5992537
  10.9041405   4.5703292   7.9597455   9.9688458   4.6245670   6.7709363
  47.1739512  70.6927479   4.6272337  47.8015994  71.1837769   5.1574981
  46.6470497  70.2108959   5.2647489  74.3945145  66.5105179  33.0591941
  73.7707614  66.6957239  33.7612343  75.1612853  66.1542055  33.5078955
  61.9490277  68.4629158  39.8719263  61.6062670  67.8602335  39.2119861
  62.8872072  68.5109088  39.6882224  71.6435940  52.1556638   0.1526453
  70.7696778  52.3393510   0.4972603  72.2000940  52.8325556   0.5378200
  33.1625032  26.5718961  24.5609617  33.2086754  25.8434224  25.1801753
  32.2706532  26.5361691  24.2151880  59.7593587  56.7602900   9.1020060
  59.6143746  57.4400023   8.4438241  59.3309896  55.9834662   8.7424564
  64.5109355  60.5634991  47.2104931  64.4917392  61.3582078  46.6772938
  65.3348064  60.6196884  47.6945496  63.5773885  70.2777031  52.2639513
  64.1013157  70.0406748  53.0291653  62.8791808  69.6233711  52.2397184
  37.0351863  14.4328046  43.1044960  36.1153626  14.3680561  43.3613300
  37.3515224  15.2222240  43.5437918  22.8485171  73.5671588  62.7574020
  22.9531113  74.1302462  63.5243599  21.9569675  73.7386580  62.4541534
  43.0007124  17.0172358  43.8417006  42.8665304  16.2504184  44.3986702
  43.3073330  17.6977944  44.4409132  63.2377783  67.7577673   5.5392935
  62.9736535  66.9414769   5.9637214  62.6251832  67.8579865   4.8106529
  27.4550056  15.8283532  40.6280899  28.1011558  16.4441407  40.2823591
  26.6985226  15.9250653  40.0496340  45.1235151  10.1432383  61.7273283
  44.8818064  11.0219622  61.4346600  46.0226250  10.2346992  62.0427227
  63.1467096  26.6727780  13.2819702  62.7033774  26.9226001  14.0926983
  63.6840073  27.4328630  13.0587818   9.1558934  45.8580481  11.2900736
   8.3444119  46.1454283  11.7085745   8.9858008  44.9512331  11.0351469
  13.2377323  47.0415250   9.0153199  13.9093383  47.7212397   8.9590657
  13.7000140  46.2300888   8.8053262  -0.2215020  54.1042951  63.3986092
   0.7191785  54.2743317  63.4479856  -0.4260127  54.1584733  62.4650812
  75.6893021  11.8495882   8.0651695  74.8382834  12.1387267   8.3944094
  76.2969029  12.0275581   8.7830693  30.0119814  66.1331931  34.5999384
  30.8441671  65.6883160  34.7605085  29.4525512  65.8651838  35.3289390
  39.0918279  17.3094845  62.0983171  39.5792794  18.0838871  61.8173790
  38.2382345  17.6485240  62.3678780  12.7790356   5.8311927  18.4251797
  13.3173347   6.5513241  18.0967343  12.2720659   5.5452150  17.6652908
  28.9986848  68.7368861  45.3213358  28.1571364  68.6728749  44.8697519
  28.9129614  69.5099923  45.8791828  70.0861422  48.7630473   0.6096651
  70.8397023  48.6891125   0.0240757  69.3309895  48.8106464   0.0233986
  24.2471075  10.4715955  15.5232847  25.1424336  10.1453149  15.4329383
  24.3504310  11.3748097  15.8228850  38.6156774  20.4457259  56.9471025
  38.3564425  21.0763597  56.2752914  37.9663944  19.7454631  56.8815613
  41.6426598  68.2050035  46.8721628  42.1604585  68.6522934  47.5415277
  41.0687219  67.6188270  47.3653412  68.9151048  40.8291474  19.3704891
  69.2444944  41.4462272  20.0238991  69.6951269  40.3682390  19.0616834
  65.9277665  67.2843829  50.5977678  65.7171571  67.4134830  49.6729898
  65.0822043  67.1204636  51.0153627   4.2670489  45.4905723   2.6999332
   3.3167649  45.5748002   2.6218178   4.4555665  44.6057044   2.3873617
  43.1389689  63.3782378   9.4256252  42.5911426  62.6284817   9.6579683
  43.0651593  63.9699808  10.1743746   2.7300441  18.9627039  50.3680038
   3.0762318  18.2098913  50.8472300   2.5652775  18.6298716  49.4857883
  72.9726413  18.6182463  61.4196825  72.2039971  18.5306859  60.8559895
  72.6773897  19.1711605  62.1431065  57.6860992  47.0478211   0.4134085
  57.1669165  46.8085097   1.1811401  57.2326366  46.6338448  -0.3209112
  57.9135143  68.7670270  27.1359849  57.3399859  68.7763962  27.9022813
  58.0046778  69.6885756  26.8937683   3.0629236  30.1797771  42.0830965
   2.2724281  29.7283673  42.3790312   3.0113280  31.0446954  42.4898958
  43.3011476  66.1828338  25.5217983  43.7155668  67.0297347  25.3567364
  43.4423248  65.6859790  24.7159244  23.2561064   7.8277028  30.6890202
  23.1223655   7.3214078  29.8877645  23.5715199   7.1875805  31.3269782
  39.5328342  60.3900329  21.5641141  40.3415679  60.8410672  21.3217306
  38.9489257  61.0881093  21.8607140  72.8774479  22.9025221  46.6128588
  73.7811840  23.2173085  46.5927792  72.5596079  23.1422520  47.4833441
  12.7395713  23.6303592  37.5462031  13.2361865  23.8455939  36.7567229
  12.7685392  22.6748061  37.5943089  45.9778118  18.7185740  23.2566118
  46.6680050  19.3816876  23.2444549  45.8040094  18.5368073  22.3330379
  30.3200269   7.0697069  34.4732451  29.5455003   7.5890785  34.2573953
  31.0562706   7.5982761  34.1653633  77.3983865  52.4188280  11.1972046
  76.8960288  52.9338551  10.5658436  77.1941865  51.5090752  10.9806788
  56.6745377  22.3413372  21.1635208  56.8251276  23.0473328  21.7921090
  57.4906206  21.8411040  21.1651230  46.8992823  50.6426564  25.3584647
  46.5481799  51.4101950  24.9069738  46.2370121  50.4273072  26.0151649
  65.6675505  51.2483564  49.1702890  65.9120344  50.9188381  48.3054924
  64.7202074  51.1194411  49.2166948  24.6551450  69.1367090  46.6235542
  23.8227018  69.5465792  46.8586588  25.1850208  69.1976196  47.4183846
   4.3982824  37.3355356  32.9350114   5.0295099  36.6283551  32.8020453
   4.0441783  37.5076953  32.0625424  60.1763504  62.1151558  39.3912268
  60.9756505  61.7548696  39.0071106  59.5332240  61.4108149  39.3104529
  58.1973839  37.7389288   0.6493996  57.9462910  38.5077477   1.1613569
  59.0959549  37.5528383   0.9217583  24.3736243   4.8785892  50.0675249
  24.3585563   5.8087957  50.2927351  23.6926246   4.7822756  49.4017935
  70.1871156  47.6006261  61.8456507  70.1980030  47.0806900  61.0420465
  69.6323060  48.3522478  61.6371202  23.9261030  50.1711868  13.8370420
  22.9886387  50.1327239  14.0265514  24.3415809  50.2402781  14.6965982
  74.2604939  47.3076783  34.0161564  74.1149346  46.5718924  34.6108486
  73.4960190  47.3049282  33.4401275  60.3940897  65.0023499  34.3613744
  59.4628476  64.8641560  34.5343542  60.7919627  64.1413287  34.4901013
  12.9660285  31.4240479  30.1486492  13.0993497  31.6786146  31.0616946
  12.8352177  32.2516847  29.6859002  12.7882107  73.4577168  43.0006409
  13.3277067  72.9948773  42.3595858  12.6191577  74.3105603  42.6002550
  24.8262739  11.4135420  40.4500675  25.0630426  10.8933663  39.6822190
  23.9851952  11.8091261  40.2213049   1.0297704   1.9863588  21.8359590
   1.6370565   2.5579432  21.3661432   0.4883435   1.5963949  21.1496520
   6.7536076  36.8449918  50.6653404   6.9036707  35.9185592  50.4770947
   7.1641358  37.3074189  49.9346828  75.2662014  46.1062280  10.1412547
  75.9603309  46.0805026  10.7998538  75.4339170  45.3443280   9.5866257
  45.1785497  22.7775739  17.4581959  45.0157217  22.7165733  16.5169193
  44.3627898  23.1232987  17.8204681  22.1132445  31.4622974  56.2784719
  21.4934206  31.0913444  55.6504202  22.7494144  30.7630420  56.4286804
  65.6910049  70.1817525  63.8806772  65.3636753  69.8965916  63.0275869
  66.5019941  69.6882758  64.0031958  48.4349569  63.5406044  62.0064831
  47.7084812  63.1874064  61.4929533  48.2830318  63.2131985  62.8930283
  14.1070016  67.5244090  15.3379381  14.1770490  67.5831488  14.3851137
  14.6963962  68.2045922  15.6638110  61.0970354  11.3437510  62.3262882
  60.7143641  11.7481244  61.5476513  61.8368006  11.9083428  62.5503731
  31.6610694   0.4413981  44.7186565  31.9673252   1.1814833  45.2427912
  31.3481140   0.8371885  43.9052439  14.0991104  10.4487729  26.6975045
  13.8936841  10.3097904  25.7729959  14.6669292   9.7140175  26.9297719
  42.4682188  13.0242300  12.8979194  41.9211006  12.2980762  13.1972432
  42.8810310  12.6991200  12.0978439  49.1800547  13.8132715  64.0465403
  48.8951159  13.4711397  63.1992006  49.7345448  14.5623350  63.8281965
  61.2559414   5.5725533   1.4637208  61.1583185   5.5513209   2.4156931
  60.3639793   5.6812829   1.1338505  32.9828644   3.9748889  36.5382791
  33.5459661   3.2049286  36.4588404  32.5246692   4.0241069  35.6993103
  59.5351298  25.1155023  58.2535122  60.3228481  25.5181603  58.6190264
  58.8730247  25.8056419  58.2929127  66.4898014   0.5171484  28.8386059
  66.3935328  -0.3039379  28.3561301  66.4708090   0.2573621  29.7596812
  13.5188031  34.2350292  52.1223736  14.3556488  34.2912197  52.5836372
  12.8951335  33.9524388  52.7912617  76.7852140   6.8664199  36.1511803
  76.4001235   7.0254713  35.2894163  76.5144970   7.6189923  36.6770887
  65.6953144  12.2161019  12.7563632  65.1972294  11.7722094  12.0699966
  65.1357698  12.9446924  13.0252409   9.7520530  17.1199226  60.0225830
   9.9482292  18.0536175  60.0997877   9.4072157  17.0202053  59.1352415
  23.7528452  60.5333093  14.1784263  24.0063747  61.4374343  13.9926505
  23.7664875  60.1005057  13.3247709  62.1319962  17.9678535   3.1176507
  62.4375582  17.1020341   3.3882433  62.0761681  18.4675062   3.9321828
  23.8105441  61.2838970   2.3577596  23.6777926  60.9401594   1.4743282
  22.9301549  61.4986859   2.6659967  23.8851581  71.3884221   5.6705429
  24.3973496  71.2173687   4.8802044  24.2080600  72.2320019   5.9873058
  34.7300172  16.9266546  40.1958513  35.5592895  16.4865398  40.0091982
  34.0661764  16.2475359  40.0760889  29.9946483  69.6637598  11.8567598
  29.3686374  69.7549776  11.1384118  30.0226959  68.7231604  12.0320261
   4.3213254  22.0489812  58.3761883   4.6052450  21.5371895  59.1336107
   4.8992598  22.8120065  58.3724403  68.2209598  67.9446128  31.8186235
  67.4904155  67.5401113  31.3507390  67.9729378  67.8917006  32.7416158
  53.5118532   1.4216447  51.6727924  52.9876471   2.1895967  51.4454412
  53.7811232   1.0572883  50.8296061   4.7023138   8.0392438  45.8357430
   5.2306589   7.3041159  45.5248165   4.8234591   8.0365729  46.7852449
  56.8265486  14.5351362  19.3819416  57.1293259  13.6300266  19.3088937
  56.2745857  14.5406771  20.1639485  35.6197000  24.5121288  54.4126844
  34.8548150  24.8568773  53.9518881  35.7514215  25.1161408  55.1434708
   9.6310576  61.6273108  15.4276466   9.6177300  61.6460505  14.4707227
   9.3389925  62.5007728  15.6884003  16.6351748  59.2428003  28.3320667
  17.3920537  58.6642991  28.4253742  16.6885949  59.5637952  27.4318744
   8.4551366  67.0780531  62.4999714   8.7121709  66.9665590  63.4152460
   8.1739124  67.9910204  62.4396753  21.2249168  57.4534467  58.1519222
  20.8223899  56.7226830  57.6826811  21.7927774  57.8704611  57.5039530
  34.0791965  20.7035947  49.5140409  33.8219166  20.7049203  48.5920668
  34.2093658  19.7790623  49.7250509   3.3491946  57.0336066   1.6194155
   4.3017197  57.0852219   1.6985704   3.1492902  56.1046074   1.7344286
  14.0107807  52.8705111  29.5725989  14.9091419  52.7384940  29.2696881
  13.6185773  53.4456411  28.9156127  21.3391280  29.4633651   0.8301157
  20.5934453  29.7698760   1.3461009  22.1056604  29.7052574   1.3498721
  32.4340868  11.1846519  29.1492796  32.0770335  10.4681194  28.6245656
  33.3706498  10.9955978  29.2070651  27.2480965   3.9400956  39.3494153
  27.5534892   4.7637016  39.7297311  28.0486393   3.4443879  39.1772604
  74.9360783  19.7222529  15.4532863  74.7487266  20.2497767  14.6768524
  75.2438290  18.8852130  15.1056005  26.9605383  69.5668510  12.7770793
  26.1033615  69.5286486  12.3527944  27.5711139  69.7622964  12.0662844
  73.1001616  17.0244277  58.8608503  73.6434317  16.4446878  59.3946934
  73.4652281  16.9500649  57.9791307  69.3091678  63.8087276  55.6583452
  68.5853111  63.7395946  55.0358629  69.5552277  62.9019514  55.8412218
  44.1982126  14.6204221  42.4257565  43.6055279  15.2313864  41.9879436
  43.9432049  14.6583748  43.3475828  26.8392539  15.8608568  17.7805400
  26.5638161  16.3187766  18.5746908  27.3519802  16.5081537  17.2964418
   6.2442359  71.5931142  45.2924156   5.6700023  72.2873636  44.9691486
   5.8480962  71.3206268  46.1201000  24.7755051  11.2820530  19.2729080
  25.6866741  11.4225292  19.5303404  24.3429565  12.1155298  19.4585145
  20.8144164  15.6065679  55.7984018  20.3510523  14.9593544  55.2667618
  20.2537060  16.3819766  55.7743645  54.0467882   3.0371818  63.8047504
  54.3122864   3.2439452  64.7008514  54.0791702   3.8764766  63.3456564
  61.1178310  66.5220528  60.5605082  61.7348011  66.1984663  61.2169151
  60.3841479  66.8657069  61.0702561  19.3829568  64.4413337  63.1717300
  20.3240236  64.4060651  63.3431339  19.0138849  63.7470916  63.7176657
  27.1705365  21.2235641  34.4174647  27.4310112  21.7297268  33.6479306
  26.4549398  20.6682777  34.1079283  39.5553136   7.7329844  33.9963222
  39.3414354   7.8525710  34.9216270  40.3871584   8.1924081  33.8814545
  31.9707990  13.6995173  48.2498217  32.5549674  12.9946768  48.5294247
  31.2033463  13.2489169  47.8973913  61.7116063  57.4114624  38.4344172
  62.1622323  56.6106728  38.7025642  62.3837029  57.9264847  37.9880190
  67.1275293  64.1693941  17.0467675  67.9701268  64.3769482  16.6428077
  66.7234396  63.5408834  16.4485061  70.5142291  17.5693469  57.5357567
  70.8270867  18.2466583  56.9360868  71.2965806  17.2910433  58.0118923
  70.7161138  32.7110553  45.4773760  70.0609967  32.2066355  45.9596729
  70.3487369  33.5934472  45.4258728  60.2146577  40.2774111  35.1255465
  60.8939039  39.6900812  34.7940326  59.4840031  39.6991316  35.3445625
  34.4153786  16.2268114  30.3205872  34.2263746  16.4751267  29.4156837
  33.8478303  15.4739547  30.4858899  34.6049452   7.1269554   4.7718337
  34.1261673   6.8027747   4.0090033  35.3093886   6.4917260   4.9001962
  38.9874268   9.7334653  19.0709901  39.9153399   9.9117088  18.9178908
  38.9535260   9.3908936  19.9641454   0.9547236   9.0270936  35.9337354
   0.0160024   9.2002606  35.8626914   1.1417007   8.4222186  35.2158237
  17.1449864  19.4900656  42.2533321  17.0207500  19.5486557  41.3060379
  16.8107831  18.6236978  42.4855900   2.3051692  33.5845398   2.5708105
   1.4603472  34.0238519   2.6683428   2.0822669  32.6625978   2.4420931
  38.3144855  19.8337734  31.0871100  38.3481526  20.7245708  31.4357901
  38.1182528  19.2862511  31.8473363  25.7092214   1.2912273  48.2571745
  26.6530871   1.1646733  48.3537912  25.6270528   2.0730932  47.7111292
  40.2942848   8.3840841  52.3990059  40.1503944   8.9619070  51.6495752
  40.7087040   8.9430416  53.0563164  16.7652354  39.0498421  16.8543960
  16.7787079  39.1535951  15.9029342  17.4970362  38.4619193  17.0416023
  18.9208114  14.8928964  45.0812674  19.5090592  15.6055987  45.3307676
  19.1493893  14.1756022  45.6724262  76.2371349  66.2249747  46.5653753
  77.1534895  66.4345041  46.7459965  76.2700128  65.6385765  45.8095360
  19.3004990  28.3404088  31.8933582  19.2261970  28.1230259  30.9641361
  19.5041943  27.5074267  32.3186612  38.7760099  67.6037672  47.3997927
  39.1823133  66.9898323  48.0115414  38.5394796  68.3582369  47.9392958
  53.2171154  24.6880460  32.5440216  53.4402132  25.3881907  31.9306231
  53.8632202  24.7693491  33.2455707  36.0645437  24.0799141  24.3342018
  36.2993455  23.8431644  23.4369540  35.1286435  23.8886237  24.3952751
  56.0501119  72.7309961  32.1634626  56.3371822  73.6217265  31.9624090
  55.8565339  72.3433465  31.3099480   7.8419646  49.9297086  54.1345215
   8.2730516  50.7744184  54.2643785   8.4199413  49.4551912  53.5370207
   3.8930273  23.9784074  49.7506428   3.1451309  24.2256451  50.2944803
   3.5033834  23.6805964  48.9286232  54.6375370   5.4334074  49.7892237
  54.1283989   5.0256383  49.0886974  54.9634838   6.2475818  49.4056749
  33.8990974  36.1116290  30.8073378  34.3778324  35.6588435  31.5016222
  33.7636447  36.9960952  31.1473417   2.8516786  71.5108948  55.2154837
   3.7107675  71.9016247  55.3752748   2.8813617  70.6712918  55.6741981
  61.6241074   9.2608500  29.3472815  62.1400738   9.1778111  28.5453367
  61.8081570   8.4578830  29.8347259  26.2124991  21.0611129  37.0167685
  26.2895465  20.9161067  36.0737586  26.0716248  22.0039177  37.1034002
  26.0569001  62.2530995  12.3120262  26.7844268  62.4179636  12.9118254
  26.3527755  61.5199338  11.7724373  18.1323135  19.0734744  38.0210447
  18.2493579  18.1373513  38.1829262  17.4613118  19.3429434  38.6482406
  41.4044651  67.8386751  40.4476452  41.9676002  67.8634844  39.6740174
  41.5020116  68.7050376  40.8427811  39.2750620  73.5825458  44.9878693
  38.3848678  73.2381265  45.0597095  39.1744327  74.4102130  44.5176888
  16.9328197  68.9563123  41.5314865  17.5367101  68.3677504  41.0785627
  16.0786232  68.5321209  41.4499807   8.1655701  59.7231558  54.4247007
   8.1694850  60.6724385  54.5474958   8.9749106  59.4246462  54.8395443
  34.4567370  10.9803975  38.6343765  34.8828721  10.1238227  38.6647391
  33.8508677  10.9204507  37.8957558  64.9029186  38.6624026  21.8481469
  64.5361605  39.1190863  21.0910726  65.7503656  39.0828514  21.9940567
  27.3137355  27.3499227  27.2360229  27.2108102  26.8855977  26.4053369
  27.5452065  26.6667223  27.8652191  27.5073465  66.4724663  42.9255247
  28.1522592  65.8986053  43.3390474  26.9312128  66.7403850  43.6414289
  20.0533438  19.9012923  22.6102686  19.3136501  20.0795388  23.1910539
  20.1262379  18.9469147  22.6012707  26.3871389  47.1432637  11.3934280
  25.6960409  47.8054939  11.4015915  26.0149286  46.4147584  10.8964683
  56.9057274  25.3884554  40.9033585  56.3125563  25.2243328  41.6364622
  56.3512802  25.3181171  40.1262665  15.5133296  42.6325517   4.2681600
  14.7981549  42.3537545   4.8400261  16.2689639  42.7109723   4.8504831
  56.7656024  61.6736226  51.1658929  56.7622598  61.1503630  50.3643821
  56.0499533  62.2981172  51.0472153  30.1729035  11.2858343  33.5489488
  29.4330621  11.8449068  33.3116698  30.6476474  11.7858112  34.2129302
  42.8626251  27.5359774  35.8384991  43.6518288  28.0750155  35.7853055
  43.1135130  26.7981958  36.3943481  49.7098016  23.3413998  53.5061979
  48.7890937  23.5468021  53.6684847  49.8328955  23.5144440  52.5728512
  57.0557928   5.2654022  45.3423882  57.5337315   5.3549129  46.1668825
  57.0071983   6.1563170  44.9957752  23.0402374   7.9429448  46.1397123
  22.2417307   7.4692202  45.9068966  22.7819610   8.5021842  46.8723631
  64.5934153  15.6700504  57.2703838  63.7296295  16.0701180  57.1701527
  64.4669437  14.7582138  57.0081043  11.1703801  15.3584337  62.0925188
  12.0340312  15.7433999  61.9437218  10.6619728  15.6048274  61.3198328
  34.2391157  28.1285048  33.2744670  34.2291784  28.2975197  34.2165756
  34.7839355  28.8268709  32.9115796  51.4443620  16.3419394  49.3221007
  50.6772549  16.3668280  48.7501202  51.0828049  16.3533716  50.2083157
  50.2987432  20.2050972  32.2653008  50.9028006  20.9427094  32.3505998
  50.1693296  19.8965526  33.1621194   9.0697837  18.4992039  48.5994816
   8.8415068  17.5800812  48.4604311   9.1934603  18.5747802  49.5456457
  47.9858462  47.3475610   0.4121067  48.7994901  46.9568907   0.7308389
  48.1310646  48.2913219   0.4788830  36.6905975  20.4782796  60.4292774
  35.7675076  20.5938244  60.6546307  36.7930269  19.5333409  60.3160000
  11.4511859  15.4423833  58.4747505  10.7782447  15.7483304  59.0828466
  10.9605622  15.0842261  57.7349949  17.8289008  14.8666739  29.8158312
  18.3477557  15.5168569  30.2894163  18.0357754  14.0364265  30.2449250
  22.0560813  19.2140448  18.2887065  22.7531004  19.8697472  18.3099091
  22.0366454  18.9144552  17.3798060  37.0396415  56.6086398   3.0044891
  36.2816481  56.0756289   2.7645351  37.1463696  57.2164093   2.2727396
  25.2767158  19.1572320  16.6920555  25.3646111  20.1071763  16.6138816
  26.0362458  18.8072884  16.2263441  45.5014753  21.1961341   1.3334565
  45.5635405  20.6236839   0.5688120  46.1815786  20.8776069   1.9269498
  51.2266254   2.2253151  41.3754940  52.1535540   2.3079391  41.1514235
  51.1656427   1.3896170  41.8382263   5.2055391  72.5345105  56.5501785
   5.8575233  73.0652689  56.0925293   4.8705777  73.1082261  57.2392988
  75.8268904  62.3239175  60.3101730  75.7265496  61.4397756  59.9573898
  75.0609922  62.4463180  60.8711147  30.5441698  70.2417073  32.4694514
  29.8070844  70.4345897  31.8900299  30.1664098  69.7068447  33.1676269
  68.0763784   1.5281385  27.0038939  67.5813046   1.2301515  27.7670026
  67.6577202   2.3516867  26.7534423  76.4262597  68.0360256   0.9814455
  77.0613686  68.6823903   1.2897970  76.0746828  68.4118138   0.1743461
  37.8568935  19.3933058  22.4026752  37.4670124  18.8546896  21.7141128
  38.3023334  18.7670410  22.9732943  48.2440615  19.4985652  58.7104368
  49.1133785  19.8990726  58.7213182  48.2356310  18.9660537  57.9150820
  39.8844699  43.0849819   0.6856729  39.3092076  43.2714157  -0.0563143
  40.7619313  43.2977162   0.3678133  -0.1083962  72.5929439  25.2836967
   0.2046808  71.7123297  25.4904151   0.4422554  73.1726040  25.8100128
  68.3057430  37.8167486  23.1028414  69.1978362  38.0473328  22.8435493
  67.9246095  38.6400938  23.4079170  35.0851748  62.3572598   8.6322548
  35.1453850  61.4249216   8.8404705  34.1811428  62.4801003   8.3426525
  58.2859682  62.5810448  17.8441525  58.5232686  63.3293179  17.2964227
  57.9386383  61.9347945  17.2293735  56.9156694  10.2545464  50.0402164
  55.9977722  10.1192379  50.2755737  57.2164869  10.9419632  50.6345224
  10.4498585  73.2718921  22.4237633  10.8706173  74.1102515  22.2331142
  11.1525854  72.6271341  22.3419404  14.2599201  16.5375590  27.5123477
  15.0753736  16.6239655  27.0185852  14.3718660  15.7344580  28.0210018
  54.1329367  55.5432669  23.0301666  54.0235681  56.3755539  23.4901309
  53.6877387  55.6721571  22.1926594  26.2782987  69.9929843  17.8569722
  25.5239423  69.4986195  17.5363755  25.9029611  70.7978219  18.2141685
  65.3467285  50.7218209  46.5872574  65.1100575  51.6210571  46.3601065
  65.6945788  50.3532973  45.7752085  26.3494968  30.6855464  35.7181859
  26.8223238  31.5127945  35.6269431  26.9845271  30.0891972  36.1148453
  16.4207089  23.6041951  28.4775472  15.7560265  23.2121563  29.0438795
  17.1406353  22.9733801  28.4810042  74.4912875  22.7744436  49.5746756
  75.4469854  22.8148270  49.5394230  74.2003384  23.4244633  48.9351034
  18.7275791   8.7310624  19.2650998  19.4373822   8.1527674  18.9858401
  19.1694021   9.5271575  19.5604920  76.7065159   5.7958913  14.9034750
  77.4608750   5.3379458  14.5327187  75.9682080   5.2071756  14.7467983
  35.6370425   2.1284470  28.9412880  36.3627744   1.6164157  29.2981744
  35.6403399   2.9374525  29.4528842  28.6896420   5.9283632  40.6507111
  28.8033009   6.0632288  41.5915251  29.3884802   6.4443040  40.2486420
  63.2794014  58.5810338  23.0442287  64.2103950  58.3626996  23.0868103
  63.1169740  59.0929829  23.8365413  70.1980463  40.0029601  15.2723171
  69.2981736  39.8759718  14.9717666  70.5924860  40.5738016  14.6129324
   3.8544115  67.7578727  50.4646301   4.5671161  68.3768025  50.3058434
   3.8198455  67.6716706  51.4173126  28.8870597  29.2642426  29.0104127
  28.2914233  28.8341784  28.3968210  29.7610331  29.0701199  28.6717105
  26.7345667   3.7040749  49.3989706  27.1556091   3.7301046  50.2582026
  26.0238528   4.3422431  49.4610834  24.2148209  14.3171144  12.7131033
  24.4336295  14.4804573  13.6305308  23.8828230  15.1559079  12.3930490
  60.8939647  67.0315042  45.4479599  59.9817669  67.2707072  45.6119967
  61.1785715  67.6312885  44.7584057  50.1639492  60.1966027  36.5370488
  51.1199498  60.1526431  36.5560865  49.9125018  59.6282831  35.8090234
   4.1232093  66.8705967  44.3114662   4.0068420  66.7518279  43.3688164
   3.5451015  66.2189344  44.7081470  14.5470604  69.6123350  59.4418097
  14.0127166  70.4048655  59.3907690  15.3999456  69.9179826  59.7506857
  28.2172680  34.3472147  29.5352650  28.5779095  34.6533203  30.3674126
  27.7724576  33.5282946  29.7537756  64.0748095  58.3826164  57.8351736
  64.8834407  58.8936869  57.8011894  63.9193355  58.1196967  56.9280195
  26.9090915   5.8256501  17.8407907  27.6038241   6.3122082  17.3971212
  26.4315176   6.4897108  18.3379614  41.5610456  16.9915926   6.2499154
  41.5046740  17.8547168   5.8399493  42.0355892  17.1450293   7.0669210
   3.3844385  32.3317242  26.7868590   2.8000152  31.7491412  26.3018060
   4.0882832  32.5327206  26.1700654  28.5209346  24.3406892  15.4746079
  28.1620455  23.6559129  16.0389757  27.7683711  24.8908591  15.2573657
  22.3808074  26.4367390  22.1104169  22.4043703  27.3771143  22.2875428
  21.4486575  26.2201595  22.0899200  17.2038388  12.6595104  52.5182533
  16.6144037  13.4029126  52.6453352  16.8647790  11.9822276  53.1035376
  48.7948123  30.8951359  13.5745670  49.6658794  31.2360196  13.7777235
  48.3468667  30.8634429  14.4198944  19.9372037  69.4984949  12.9039133
  19.7469123  68.7231228  12.3758805  19.8525175  70.2307755  12.2933197
  76.5460037  55.0529483  10.0811946  77.1095442  55.7120589  10.4864454
  75.6584834  55.3107563  10.3303432  70.1923752  25.3905702  24.8062658
  70.1256323  24.6589494  25.4198694  69.9440384  26.1583662  25.3210974
  48.0807400   2.4122970  39.3824244  48.4761286   1.7393708  38.8282847
  48.3373451   2.1708660  40.2724218  18.0527338  66.8447444  63.1888962
  18.4936508  67.0596811  62.3669338  18.5398944  66.0962764  63.5334206
   6.5940078  49.2474094  36.4398527   6.0273751  49.6876422  35.8063269
   6.6250595  48.3382073  36.1421657  35.2335867  69.1911108  44.6901083
  34.3829330  69.1923857  45.1289940  35.7928165  68.6559311  45.2532005
  61.8140793  27.2883701  57.1357059  61.9526815  26.6811562  57.8625584
  61.6929245  26.7241406  56.3720322  52.2572962   9.1072935  21.2345099
  53.1938043   8.9315641  21.1433911  52.2132722   9.9001837  21.7689443
  36.0070165  61.0762802  56.3489008  35.2987941  61.3312415  56.9402075
  36.0297807  60.1207415  56.4004564  54.8632907  67.6581928  14.6508861
  54.8348569  68.1893751  13.8551044  55.6678640  67.9306433  15.0920939
  75.1413941  59.3412474  17.7193356  76.0009479  59.7338632  17.5668526
  74.9138712  58.9313236  16.8848133  41.1543798  36.1006927   0.1572816
  40.7222605  35.2512074   0.2460373  41.7104626  36.1687946   0.9334022
  57.6777363   0.4648295  40.4007578  57.7807426   1.4149477  40.3469419
  56.9977617   0.2608826  39.7586703  24.0541490  44.1298977  61.1886215
  23.3609422  43.5076633  60.9683371  24.8277410  43.5851589  61.3336992
   1.4967957  24.2066097  28.4359264   1.4722291  23.8608408  27.5436997
   2.1179348  23.6411476  28.8949156  41.8608856   1.2293396  12.3106825
  41.0129452   1.1672721  11.8709385  42.0939064   2.1558818  12.2519279
  17.8340515  64.6525577  43.2512140  17.4083646  65.4478595  43.5713959
  18.2935127  64.3028620  44.0146542  67.0659319  46.3316594   1.9699575
  67.6033894  45.8161877   1.3685800  66.2854592  46.5545641   1.4626028
  31.4125321  41.9139694  14.8940136  32.3661331  41.8313791  14.8864939
  31.1489091  41.5683694  15.7468273  78.5145982  46.1909138  28.9496468
  78.2745869  45.4599224  29.5191000  78.1977017  46.9676684  29.4105814
   5.8983931  40.1312971  39.5160937   6.4894137  39.4926190  39.9148679
   6.4669070  40.8589458  39.2639995  30.8305240  23.1945920  42.2035980
  31.1643457  24.0473533  41.9250441  31.4684081  22.5657821  41.8660545
  65.0732914  63.5493837   3.3668615  65.4416648  62.7744995   3.7912275
  65.4914228  63.5726462   2.5061323  37.3198056  19.9163175  42.1735382
  37.2360682  19.7519374  43.1127930  37.8605819  20.7039881  42.1155119
  52.4682275  53.2463203   9.3215086  52.7035300  53.2899498  10.2483131
  51.8678705  53.9805077   9.1920044  54.8314428  23.1288266  60.0034857
  54.2788744  22.5824761  59.4445562  54.9992943  23.9131331  59.4810677
  36.1939836   8.6838418   9.7597682  36.3682055   9.6121353   9.9151719
  35.8290720   8.6534119   8.8753778  75.8373931   6.7852682  21.8177557
  76.1692599   5.9286374  22.0866036  76.6190238   7.3330611  21.7455912
  13.6775096  52.6983944  22.4788952  13.0768975  51.9685307  22.3279190
  13.1484493  53.3538214  22.9335856  62.1277063  42.5363484  29.8258567
  62.4684560  43.3884159  29.5536375  62.1554297  42.5617662  30.7823181
  18.4459507   6.2173748  36.0722351  18.9919412   6.2546444  36.8575621
  18.8090849   5.4933387  35.5621982  58.9582745  57.0957123   5.0939276
  58.2901613  56.4320634   4.9223902  59.6948282  56.8436109   4.5370056
  23.4230518  27.2082090  31.8874311  23.4188652  26.3124108  31.5501451
  23.3194876  27.1083140  32.8337526  15.9887433  11.9367933  61.2365484
  15.8439696  12.1644151  60.3181505  15.1513362  11.5770090  61.5290165
  72.2087144  63.1062809  20.0101089  72.9303383  63.3574406  20.5866599
  72.6084136  62.5201360  19.3675315  10.8978208  64.4407019  47.6701164
  10.5496534  65.0070796  46.9814777  11.0639819  63.6058310  47.2323799
  29.2217655  58.6009275   0.3719475  28.3565526  58.6067711   0.7813455
  29.0446723  58.6980258  -0.5637024  48.2575885  36.6860124   1.1702873
  47.6284615  37.3805859   0.9753563  48.1728593  36.0740082   0.4391910
  32.0071888  35.0540662  34.9522209  32.5018311  34.7960734  35.7300401
  31.7331433  34.2263627  34.5572066  35.5869508  14.1519463  33.5522342
  34.8601413  13.9419389  32.9658246  35.4721594  13.5615778  34.2968941
  77.6365864  11.8939388  32.3003626  76.8667220  11.6482913  31.7873335
  77.8550669  12.7752495  31.9973946  41.9559002  14.0299189  59.7404718
  41.6456842  13.9912283  58.8357639  41.7732286  13.1592548  60.0937510
  38.3714771   9.7412652  12.7843142  38.1935740   8.8007480  12.7810538
  38.0794191  10.0372803  13.6464691  58.3359528   9.8921537  28.5676670
  58.4532547   9.9744654  27.6212549  58.9399290  10.5343032  28.9406180
  33.3349061   5.1903307  62.1205521  33.4051299   4.3875337  61.6040039
  33.5481787   4.9199164  63.0136490  20.7949527  68.7641141  29.1955423
  21.4829477  68.0986169  29.1983151  20.4527315  68.7585458  30.0894570
  23.0706596   9.5677042  18.0608881  23.3759046   9.6080625  17.1545613
  23.6365223  10.1795840  18.5316694   2.6615342  64.8540864  62.5237417
   1.8909010  64.6182344  63.0402040   3.2390960  64.0940610  62.5945616
  68.9824557  67.0877841  46.1222124  69.2558526  67.8531412  46.6278934
  68.3002483  66.6796628  46.6553736  12.4483299  44.7518015  59.1169548
  11.5012693  44.6516466  59.2132759  12.5598049  45.6247997  58.7405539
  38.8028359   8.8170218  31.3098073  39.1352844   9.6521896  31.6387510
  38.7987494   8.2425749  32.0754600  67.1052504   2.7317879  40.8315897
  66.3539457   3.3234420  40.8730316  66.7766237   1.9591928  40.3718805
  11.4247370  29.5717502   5.4960907  10.7799983  28.9006472   5.2721167
  12.1792567  29.0801907   5.8205926  60.4486997  45.6938504  55.7702355
  59.9421628  45.1825480  56.4012848  60.9611781  46.2978177  56.3076554
  14.3580914  50.8954011  20.1722576  13.8126469  51.5862273  19.7961189
  13.8222600  50.5212663  20.8716442  32.5192142  37.4286294  33.4183240
  32.3020363  36.5594673  33.7554073  33.4674311  37.4983978  33.5290122
  37.7982664  25.3929710  31.2314939  37.6276565  25.7052612  32.1200871
  36.9791555  24.9772334  30.9623265  64.3444729  19.3742311  42.7786398
  65.0803614  18.7771058  42.6439476  64.7342396  20.1457763  43.1897736
  59.0081835  23.3414578  42.3398018  58.3327866  23.5577798  41.6969347
  58.7280416  23.7855053  43.1401634  53.6425384  60.1062540  49.1096401
  53.3373865  59.9316314  48.2193470  53.0122837  60.7359282  49.4596672
   8.7634310  11.8987358  63.6711311   9.2153487  11.1785316  64.1107988
   7.9321608  11.5204823  63.3845186  46.0114765  15.0539207  26.3739085
  45.4958677  15.4439628  27.0797729  46.6354704  15.7367158  26.1276221
  65.8020258  41.3679743  31.7947841  65.6303263  41.0146809  32.6676726
  65.0967407  41.9983912  31.6485596  15.8082640  22.4047780  36.3551974
  15.7379186  21.4797378  36.1194348  15.5223894  22.4417210  37.2679639
  35.4743505  24.2790246  30.9518123  34.7909355  24.6653008  31.4995050
  35.6646323  23.4366941  31.3647318  64.5581627  28.2156920  47.7412415
  65.4858923  28.1254911  47.9589748  64.3421745  29.1166353  47.9818249
  51.8834352  30.8945608  58.0178738  51.0035896  30.9866738  58.3834267
  51.7877960  30.2408504  57.3252392  38.0000687  18.2813203  50.0281382
  37.7833557  18.3892858  49.1020632  37.2216463  18.5874045  50.4935455
  22.3768234  28.9145470  38.2060671  23.1289268  29.2763567  37.7373791
  21.6792440  28.8828993  37.5513840  49.4542408  13.4937549  10.0703597
  49.3156433  12.9152858   9.3204290  49.1742086  12.9773915  10.8261263
  29.4417357  22.2608209  35.6808591  29.1428947  22.6877427  36.4837670
  28.7543297  21.6268063  35.4765868  34.1811633   2.1991079  41.3205194
  34.3978310   3.1293976  41.3825464  34.5930719   1.8054479  42.0896721
   4.3003099  53.4694986  63.8019067   4.6653478  53.6928050  64.6581266
   4.7876947  54.0145855  63.1841951  12.6378139  54.9395362  42.8683043
  12.5597867  55.1261726  43.8038874  12.4327525  54.0076748  42.7920532
  49.4708686  65.5426058  43.5319138  50.2833987  65.1364574  43.2301331
  49.7573858  66.2846056  44.0644312  50.8476162  17.0601606  34.2486548
  50.2880573  16.2887406  34.3383002  50.7975674  17.4927163  35.1010776
  51.8899632  20.3161812  40.2420616  51.2689018  19.5912635  40.1712894
  51.9233608  20.5124211  41.1783361  16.1891922  64.2161784  40.8723879
  16.7535003  64.3020639  41.6407728  16.0194095  63.2766620  40.8037233
  23.8286161  48.4615849  11.6334774  23.2250852  49.1647945  11.3937332
  23.8941341  48.5168265  12.5868370  49.5069599   1.5969639  36.5230083
  49.9718666   2.0352948  35.8102942  50.1018953   1.6581142  37.2703695
  30.0655293  26.3800454  31.0684061  30.0174952  25.5182600  31.4822316
  30.7494664  26.2893438  30.4049063  50.4130173  14.0123594  23.2669520
  51.2758207  14.4249821  23.2276368  50.0163794  14.3621421  24.0648007
  77.7947115  66.1959479   7.5641149  77.7719616  66.5479443   8.4539533
  77.7261280  65.2482203   7.6796144  71.2695344  40.7753308  57.0059256
  70.3689130  40.4865052  56.8586413  71.2614854  41.1437033  57.8893666
  30.6835818  18.4023988  43.0319214  31.5421057  18.5224044  42.6260042
  30.8587646  18.4211004  43.9727688  23.5567164  13.1097293  10.3292000
  23.5033655  13.9536619   9.8806888  23.9823270  13.3082509  11.1632729
   5.4191145  28.6087775  53.8752842   4.6082720  28.2430124  53.5217524
   5.2294192  29.5391583  53.9962769  34.5981717   9.6799558   2.0460366
  35.4654789   9.3046284   2.1981575  34.7109985  10.6167507   2.2070238
   6.3180741  70.0885609  57.8017092   5.9940704  70.8079711  57.2597694
   5.5280908  69.6317464  58.0906391  17.5573127   6.1289020  11.3465835
  18.4006898   5.6898112  11.2363531  17.5904004   6.8672700  10.7383444
  73.1778526  20.4277849  51.0493946  74.0959644  20.3703451  50.7848024
  72.8612995  21.2342381  50.6423855  45.6330538  11.3909340  38.5477710
  46.3282585  10.7370734  38.4743595  45.7659674  11.7861438  39.4093823
  45.0482178  24.5740628  43.1442976  44.9773455  25.0412416  43.9767361
  45.2236891  23.6665797  43.3931255  41.3710022   7.0140278  57.6878214
  40.5269241   6.8951941  58.1233072  41.7304659   7.8118294  58.0758047
  47.8963709  29.4854498  46.9176340  48.1069374  30.2194190  47.4948549
  48.3713055  29.6734738  46.1081171  39.1094446  10.8082652  62.8890228
  38.9325142  11.5766037  63.4317780  38.7692237  10.0722241  63.3976746
  77.5091791   2.0180482  59.1625881  77.2357559   1.7900416  58.2740593
  76.7930508   2.5539526  59.5034647   4.6445689   8.1910896  48.6700153
   4.2338499   8.5585719  49.4526339   5.3143820   7.5965291  49.0077734
  19.7832501  20.8497047  37.2308040  20.5521894  20.3666067  36.9281816
  19.1456413  20.1708865  37.4519229  15.2541479  65.6325326  36.6665697
  14.6421083  66.0991595  36.0974526  14.8907264  65.7370118  37.5459099
  34.8930152  61.5253774  48.7745285  34.2429622  61.8734053  49.3848848
  34.6116575  60.6248847  48.6127138  12.1864255  70.5807725  39.8589826
  13.0223926  70.9518424  40.1412964  11.6224297  71.3411281  39.7175646
  52.6215696   1.9458978  35.1169562  52.0063019   2.6177457  34.8231816
  52.1551132   1.4813274  35.8118129  64.1018581   4.1878894  56.9229937
  64.8185253   3.8518068  56.3847876  63.6364603   3.4051964  57.2179985
  23.1513628  73.2424426   9.5641297  23.6880573  72.5897086  10.0137126
  22.5831731  72.7302149   8.9887899   8.0434545  59.6699372  40.7620907
   8.5123404  59.9384061  41.5522194   7.8368648  58.7467876  40.9081984
  34.2241764  39.7021818  34.5112467  34.6489549  40.4468346  34.0854716
  34.7130680  38.9391685  34.2029858  41.8853474  15.4342663  39.4158912
  42.0962191  14.5053959  39.5105791  41.3080502  15.4722905  38.6533213
  56.0325098  30.4250097  51.7673731  55.3265095  30.8432913  51.2745905
  56.7935705  30.4806972  51.1895180  45.0664663  11.0986733  16.0244644
  45.1501036  12.0497668  16.0927212  45.5092144  10.8774889  15.2051473
  33.2075119  38.7595916  22.8464317  32.9144907  39.4862533  22.2965837
  34.1630530  38.7988615  22.8060627  33.5584483  45.7568781  17.8368904
  32.9243694  46.2888728  17.3560955  33.9519993  45.1931237  17.1709015
  33.3366251  11.5987396  49.3707848  34.0919614  11.0280561  49.5122719
  32.5946426  10.9990656  49.2927694  54.3183041   8.7499642  29.0324402
  53.7537670   8.0598903  28.6841154  54.4162989   8.5339361  29.9597788
  19.4293046   6.4055562  25.7101536  20.3529978   6.1555648  25.6872058
  19.3961310   7.1442628  26.3179731  71.2754265  65.6024800   2.1195747
  71.9677321  65.1447402   2.5964596  71.7221180  66.3327371   1.6912987
  58.1027126  23.8691950  34.6300817  58.2937384  24.7395086  34.9797869
  57.3285580  23.5813093  35.1138568  32.3203158   8.7416989  27.7332759
  33.2711935   8.8331467  27.6724505  32.0624900   8.3580643  26.8950725
   0.4180861  70.3545271   8.9572002   1.1867572  70.8690582   8.7109520
   0.6846429  69.8905979   9.7508957  11.7359718  57.3916295  33.9099932
  12.4064072  57.1388200  34.5446849  11.7781957  56.7147103  33.2345462
  53.0653095   6.4232081  43.6066818  52.6103306   6.9742030  42.9697895
  53.6709785   5.9001786  43.0814838  72.1588849  72.7431012  37.1536493
  72.6096939  72.0180787  36.7208147  71.7831742  72.3541832  37.9434681
  15.2203679  20.7570481  60.4181480  15.2282870  19.8379362  60.1509380
  14.9063087  21.2281585  59.6463633  49.5120764  10.2684414  42.4396372
  49.5970869  10.9434819  41.7663431  49.1176319  10.7216895  43.1847620
  10.9808040   9.5430028  28.0637455  11.4525497  10.3658569  28.1925845
  11.6669941   8.8766021  28.0279016  21.0816145  22.5535846  44.9580526
  20.2282143  22.2105145  45.2230835  21.5180802  22.7721953  45.7814217
  30.2664495  10.5199242  37.1692896  29.6713042  10.1453149  36.5199018
  30.0201225  11.4437473  37.2151613  39.5414090  15.3983963  60.0504684
  39.6807098  16.0026872  60.7796192  40.4162550  15.0726795  59.8388529
  59.1712332  21.4602661  21.8552566  59.2684364  20.5962133  21.4550114
  59.8677015  21.5003514  22.5106621  24.3737268  30.6844282  24.2694497
  24.4842482  30.8870697  25.1984024  24.9814773  31.2731504  23.8219237
  77.1159029  27.3374176  53.3633232  76.5540981  27.2313333  54.1310215
  76.8322992  26.6487980  52.7619886  46.4021254  33.6831164  33.7316990
  47.2438765  34.1380906  33.7054849  46.2058973  33.4894490  32.8150654
  60.7205915  10.8972752  43.6015463  60.6568289  11.8341708  43.7869978
  61.5103579  10.6150043  44.0628719  25.1066041  38.7351680  24.4296646
  24.8628497  39.6568370  24.5153475  25.7595563  38.7241697  23.7298346
  37.1476054  27.2919655  37.0216012  37.9862261  27.6923299  36.7921352
  37.0333052  27.4913239  37.9508066  23.2711332  25.2477069   6.9445850
  22.9320733  25.2195735   6.0498907  23.7679593  24.4349046   7.0381071
  33.7265277   6.6541719  36.1705852  32.8511786   6.8972075  36.4721370
  33.7052965   5.6986088  36.1188245  52.3744965   7.3073816  27.6826620
  52.5906372   7.2153080  26.7547417  51.8034649   8.0746579  27.7205873
  71.7435932   4.2824379  25.4892445  72.1249676   5.0943011  25.8234024
  70.9021854   4.5480469  25.1181459  71.8759600  33.0961962   3.4559681
  72.0792166  32.6097973   2.6570083  72.3120705  32.6055192   4.1525842
  22.0383819  69.8948288  46.2315464  21.6476520  69.4600696  46.9895363
  21.5070804  70.6811089  46.1061954  45.0317574  31.2221670  34.3967295
  45.3805304  32.1134520  34.3826079  44.0821695  31.3370991  34.4327974
  33.8870478  13.8916862  43.9807129  33.8035274  13.1099176  44.5266962
  33.0870247  13.9034772  43.4553051  34.3047285  16.2922490  27.3340869
  34.1151333  17.2012269  27.5665617  34.0474057  16.2214577  26.4148474
  30.2406025   9.4244260  62.1461916  30.3933573  10.3557539  61.9864225
  31.0401487   8.9949447  61.8420506  50.1633644  43.2839727  58.3315849
  50.7094955  44.0233374  58.0645466  50.6776810  42.5105000  58.1003952
  68.5581923  28.5516858  51.2096691  67.9289675  28.5931468  51.9297981
  69.2665482  28.0002999  51.5419865  42.3074532  24.2020559  34.6156716
  42.0032024  24.9790192  35.0847030  41.5787745  23.9688897  34.0404391
  68.4849930  15.2579570  59.1039371  69.1572714  15.8084834  59.5054293
  68.5500622  15.4450297  58.1674528  67.3387181  71.2859762  37.2116470
  67.8124153  71.5863993  36.4360261  66.9025862  72.0702762  37.5446558
  33.1428170   3.0893081  27.0772982  32.4499750   3.5587126  26.6126919
  33.1468010   2.2169164  26.6834092  56.8890905  11.9540358  60.7085705
  56.6650200  11.0399282  60.5341291  56.1106062  12.4456227  60.4467869
  69.6160507  45.8902025  33.0490398  68.7450743  45.7865047  32.6657891
  69.7590351  45.0816822  33.5410595  73.6776257  62.7587700  61.5367413
  73.4274578  61.9700861  62.0180178  72.8906107  63.0014133  61.0489225
  51.4203645  52.7816771   3.3323767  50.6188584  52.3489188   3.0382063
  51.2963200  52.9011475   4.2739536  51.3951015  34.9766397  40.0376320
  51.9249296  34.6075940  39.3310070  51.1137342  35.8292603  39.7058153
  10.7300600   8.4293389  45.5740261  10.8949980   7.7369332  46.2140274
  11.3749632   8.2758474  44.8835468   9.4618258  34.1841912  26.7326880
   9.8767027  34.5445728  25.9489584   8.5678801  34.5255542  26.7089558
  42.4534512   8.5761213  39.2775226  42.4325037   7.6332754  39.4413352
  42.5303936   8.9686590  40.1471376  64.1434240  29.3156266  39.0511823
  63.9819193  29.0949726  38.1338716  63.9555788  28.5075116  39.5285702
  68.6318541  12.7124155   6.9367230  69.0089273  13.5684800   7.1397084
  69.3244743  12.0881999   7.1532071  69.2067242  55.2937508  25.4074836
  69.2910242  54.5435572  24.8189807  69.9047089  55.8901834  25.1367283
  51.4055490  45.6543064  36.4053726  50.9446764  46.0850763  37.1252823
  50.9125090  44.8479843  36.2537551  63.1962204  32.2849751  55.9206915
  63.0385303  32.5880384  56.8148518  64.1470671  32.1906257  55.8639574
  64.6551943  33.1640601  45.3309298  64.4834518  33.4701777  46.2214518
  64.5873785  33.9508152  44.7899580  60.9732819  46.7326832  47.9942417
  61.0050678  47.6752710  48.1577826  60.4805136  46.6476870  47.1780396
  64.8986816  44.8101377  39.3801832  64.5169020  45.5126572  39.9064422
  64.2975426  44.7100544  38.6420465   3.2122359  44.9424410  48.8268328
   4.1177878  45.0037766  49.1308832   2.8199896  45.7804585  49.0719795
  71.2559080  41.9457865  52.3259449  71.5946865  42.0962763  53.2084513
  71.6985083  42.5995922  51.7847633  63.0987453  61.3721609  38.1746054
  63.7864923  60.7450628  38.3981705  63.5517502  62.2132540  38.1148124
  59.3506193  28.6030650  32.9700708  58.4459162  28.8950896  33.0817485
  59.4357014  28.4408760  32.0305562  65.2283955  12.1543515  43.1813860
  64.7165537  11.9469595  42.3995686  66.0594797  11.6974926  43.0517197
  75.9908438  27.3175573  12.4338901  75.4716921  28.1202936  12.4821615
  75.5258131  26.7692113  11.8019891  58.0518198  35.2139831  27.4701071
  58.7207365  35.8886480  27.3534298  57.8560829  35.2302575  28.4069395
  75.4599094  16.0202157  34.6299672  75.3757763  16.3107049  35.5381370
  75.4116106  15.0654650  34.6784401   6.1083826  36.8269110  38.3519483
   6.0049090  36.9228578  39.2986894   5.2557978  36.5153790  38.0481791
  55.9412003  60.0470686  27.4333405  56.2245131  60.4740620  28.2418203
  55.2411366  59.4548130  27.7078867  56.1182022  53.1526756  37.4413395
  56.2993622  52.2697258  37.1191359  55.8681774  53.0269909  38.3567190
  38.2733798  17.4264896  41.0434437  38.7386274  16.9957745  41.7605639
  37.7743936  18.1249559  41.4669847  65.9590435  53.7994814   3.1711277
  66.1602402  53.6331654   2.2502097  66.5206337  53.1919193   3.6524945
  70.7646561  52.3138762  42.9914045  70.6484032  52.2690678  43.9404631
  70.3047228  53.1119823  42.7311802  64.1849756  65.5667400  43.5776567
  64.5523787  65.9053135  42.7611923  64.7195196  65.9654570  44.2643309
  70.5639696  34.2488909  52.0429230  71.1413527  34.9828577  51.8327951
  69.6889019  34.5577002  51.8081427  41.8567562  30.4041409  37.4866343
  42.2586107  30.0996661  36.6729760  42.5929594  30.7043195  38.0196738
  59.7913647  42.1708870  31.3145733  59.3076801  41.3901997  31.5843964
  59.6385813  42.2333384  30.3717113  21.3565573  49.8550177  22.7014589
  20.5334791  50.2190018  23.0274820  22.0286402  50.4545164  23.0256987
  77.1229219  73.1283045  50.8452702  77.2998285  73.8186359  50.2062225
  76.7626476  73.5896349  51.6026402  50.1018620  45.1247931  31.3836384
  49.7642469  44.4615412  31.9855881  49.4800425  45.8492708  31.4522696
  17.7720389  37.1842051   0.4674788  18.4062895  36.4846706   0.6243713
  17.0746550  36.7663193  -0.0377469   0.4486260  42.2716856  42.8394175
  -0.1947370  41.8576860  42.2641563   1.0974058  42.6456738  42.2432184
  52.2227812  48.9680433  54.6485758  51.6402531  48.5116053  55.2556658
  51.7066240  49.0646124  53.8482666   5.2035174  42.4451828  55.4249096
   4.8531660  41.5703583  55.5927467   4.5183024  42.8851366  54.9217701
  58.4354591  67.4369812  31.0198641  58.3911514  68.3711243  31.2239361
  59.3518448  67.2028637  31.1670446  58.2638264  49.6335268  60.5496645
  58.1107330  50.3969574  61.1064148  58.3128548  49.9899387  59.6626472
  52.1779823  56.4810324  37.3627234  51.6724062  57.2117043  37.0067191
  52.1986246  56.6412354  38.3061957  46.1760140  10.7013878  51.7677593
  46.6199685  10.3365406  52.5332832  45.8342458  11.5436157  52.0678854
  70.6197023  46.4604521  12.7350056  70.5101871  46.0920143  13.6116409
  71.5452671  46.3248348  12.5321054  55.9048176  40.7488346  18.3105659
  55.6646252  39.8895502  18.6572254  56.7958212  40.6333828  17.9803956
  53.5491943  25.9446287  29.6533370  54.2960405  25.5889297  29.1717458
  53.4171343  26.8163776  29.2807221  72.9448891  23.4867597  30.8844876
  72.5935316  22.6248693  31.1079240  72.1870899  24.0705442  30.9186673
  63.0075598  48.4297466  12.8281367  63.0609512  48.6014128  13.7683022
  63.8986874  48.1854248  12.5782871  63.1086969  49.3775606  56.4195871
  63.9215469  49.8727274  56.3180494  63.3888531  48.4632301  56.4613342
  20.2805933  38.1900716  24.9128771  20.3610262  39.1434765  24.9408436
  20.4934916  37.9581642  24.0089250   3.7339529  68.8167572  46.3442421
   2.9145655  69.2266655  46.0670996   3.9365038  68.1917143  45.6481600
  51.6441917  46.7824984  57.1350098  52.0556593  45.9341288  57.2999144
  50.7045126  46.6052866  57.1777344  77.9096270  54.7850513  44.1238260
  77.6141262  55.5117846  43.5754061  77.2468424  54.1058254  43.9989185
  77.8810167  31.6647601  45.8571959  78.5275173  31.6548538  46.5630102
  77.1635008  31.1207676  46.1819649   0.1760086   6.8228877  27.2637987
  -0.2320114   5.9603119  27.3393941   1.0993513   6.6694677  27.4641395
  64.9006367  56.1558437  34.4014072  64.9573708  56.7090893  35.1804662
  65.4454422  56.6002560  33.7518549  63.7764835  17.0936465  27.1615529
  63.1913757  17.5877964  27.7357459  64.3025064  17.7622902  26.7228699
   3.5718378   9.6631050  16.8095040   3.3681998   8.8346922  16.3753450
   3.5167631   9.4636035  17.7440619  61.4599371  52.2080851  52.9735470
  61.6471863  51.2897778  52.7789211  60.5064344  52.2475863  53.0477524
  74.6026389   9.4532819  15.4591801  73.8920943   8.8119502  15.4669954
  75.3784339   8.9482780  15.2155687   8.7456259   4.0934840   3.7120569
   8.3690581   4.7175232   4.3325406   9.4146475   3.6294073   4.2153314
   5.3235484  66.7985784  13.8238193   5.7043410  67.6646911  13.6786463
   5.2039242  66.7454063  14.7720243  53.9031219  44.5473003  38.6369205
  53.7272024  43.6935043  38.2415485  53.2734442  45.1373672  38.2227278
  62.2024202  51.1830902  43.0139542  62.7858639  50.4254389  42.9716539
  61.3217497  50.8084106  42.9977083  75.2900457  69.7740316  52.0327616
  76.1787319  69.4188881  52.0513821  75.0913382  69.8735285  51.1017132
  54.6364880  61.0401106  22.0379472  54.7067928  60.6582546  22.9128599
  53.8133383  60.6955194  21.6916585  56.8509197  26.3276744  28.8611770
  57.4449968  26.3091350  28.1108689  56.7825031  27.2546840  29.0896535
  66.4918137  38.2235646   2.8860834  66.0447359  37.4238205   2.6090199
  67.1633959  37.9227328   3.4982184  72.4790907  27.8438711  45.9180593
  72.7437210  27.7357841  45.0045347  71.7211580  27.2677994  46.0176229
  47.5404358  64.7621250  25.1879668  47.5657177  65.0749683  24.2836857
  47.4712563  65.5581903  25.7149625  63.9515734  41.4918804  17.7575290
  64.8699856  41.7383480  17.6479924  63.5549402  41.6597652  16.9027019
  62.4337435  21.5027070  29.0033197  62.2026539  21.8581700  29.8615003
  63.3876514  21.4263082  29.0246868  35.8750058  71.6699539   8.9071609
  36.4361096  72.3173963   8.4803058  35.6423379  71.0574351   8.2093622
   2.2465262  48.5198355  39.0475535   2.8132376  49.1457605  38.5966802
   1.7962393  49.0404034  39.7127461  62.8701162  35.8286190  24.6011567
  63.5112238  35.2572823  25.0239825  63.2897377  36.6887856  24.5849776
  55.6925106  49.6395826  49.0017748  54.9392986  49.3687487  49.5267105
  55.4238939  49.4796228  48.0970716  76.5466261  55.8060217  37.9354048
  76.3883924  55.1454067  38.6097836  76.2774467  55.3844213  37.1192980
  50.9420999  22.6439942  57.5327007  50.8134111  23.4008445  58.1044070
  50.1023038  22.5354136  57.0863984  60.3228378  51.6637659  11.7901230
  59.5583677  52.1175528  12.1449423  61.0594940  52.2398138  11.9944167
  11.5963492  58.5797691  46.7091799  12.0058760  57.9078817  46.1641312
  12.1451315  59.3544817  46.5871525  77.1267144  14.2066177  55.8004045
  77.1370665  15.0786385  56.1949873  76.3532845  13.7839493  56.1737490
  20.0431666  41.1505461   4.0760607  19.6278700  40.4168797   3.6227459
  19.3424353  41.7938757   4.1825727  44.5777131   8.6932453  22.1975708
  43.7626553   8.6582741  21.6968822  45.1815034   9.1821274  21.6384172
   6.6956934  68.1775284  22.2068548   7.4042448  68.4041882  22.8091955
   7.1195635  67.6595592  21.5225434  67.1782494  54.0379190  38.8500929
  66.5295124  54.2871761  39.5083022  67.1524715  54.7471523  38.2077932
  50.1826429  59.6583271  30.5269814  49.2895603  59.4336748  30.2659011
  50.5195665  60.1832390  29.8009109  63.0580950  37.4808264  32.1458435
  62.7132559  36.6662383  31.7801094  63.5006380  37.9050016  31.4106798
  51.1783314  54.7027969  42.1400547  50.5074072  55.2190113  41.6932631
  50.6950092  54.1937494  42.7908230  68.3755700  18.8976845  26.2906456
  68.5674349  18.5676083  27.1684122  69.2266098  18.9239296  25.8533025
  61.4353800  41.6998863  37.2758770  62.3227596  41.7612505  36.9222903
  60.9444427  41.2199450  36.6088915  51.0216284  44.5453453  63.8617754
  50.6206703  44.7406244  63.0148220  51.2173223  43.6091280  63.8239622
  18.3822951  50.0898027  49.5255423  17.5116667  49.9287939  49.1617870
  18.7157759  50.8360195  49.0273571  56.3458395  53.5651207  26.3161612
  55.6280375  53.2227802  26.8488836  56.1580467  54.5000792  26.2335944
  74.1033459  62.0219421  37.9377770  73.9092970  61.7644644  38.8390446
  73.4670115  62.7099466  37.7429461  10.0820208  10.5493053  25.5791378
  10.3881789   9.7696384  25.1158667  10.1211453  10.3087029  26.5047812
  70.1589441  64.2348480   7.0656168  70.1421928  63.3225775   6.7762911
  70.1602268  64.1830063   8.0214107  62.4619579  50.9891939  38.7958908
  63.3312893  51.1650610  39.1558504  62.1403694  50.2421665  39.3006325
  19.6499094  55.9659576  23.7655830  19.5653662  55.0302076  23.5826731
  18.7485823  56.2737656  23.8608861  56.2518024  56.5140343  26.5610671
  56.7076159  56.7275000  25.7468820  55.3358459  56.7303944  26.3865876
  47.1075042  52.1617164  50.8022485  47.6323732  52.9620208  50.8182059
  47.0978674  51.8999328  49.8815928  60.1696396  54.7464132  39.3239665
  59.2166185  54.6603107  39.3479276  60.4917002  53.9733171  39.7874570
  34.1394567  73.8874626  38.3927369  34.4006085  73.5472631  37.5369930
  33.1918263  73.7560606  38.4236908  75.4054546  66.5510130  18.7337720
  75.5794525  67.2033739  18.0552554  75.0256014  65.8099651  18.2617688
  35.2798891  67.7758598  29.4602442  34.4782877  68.1384516  29.8373294
  35.9867382  68.2424736  29.9061918  17.0119509  58.9296389  60.5769110
  16.6333136  59.5066547  59.9136448  16.6273150  59.2274952  61.4012671
   1.4505038  53.9760113  31.7105556   0.7648978  53.4115076  32.0676351
   1.5948996  53.6458302  30.8237863  47.3355596  11.1760278  26.4485981
  47.6288478  11.6439385  25.6667663  47.4709670  10.2518125  26.2395050
  72.3136854  30.1556468  42.0388174  72.7228260  29.4141889  42.4849987
  73.0359221  30.5907059  41.5856838  62.2161007  40.1724100  43.1637001
  62.7349043  39.7424698  42.4838305  62.5385332  41.0735703  43.1770802
  12.4950537  55.0363159  24.1382766  12.1171126  55.9112263  24.2273116
  13.1682333  54.9959517  24.8175621  38.5348392  65.9393978  13.5796726
  39.1411304  65.2986860  13.2080102  38.1666613  66.3897705  12.8195155
  65.7492924  51.2628555  52.9688215  65.2652264  52.0844316  53.0520105
  65.4162836  50.8692598  52.1623325   2.7504000  38.0153370  30.7142282
   2.0530638  37.5771666  31.2020540   2.4413142  38.9153433  30.6108403
  53.2868099  59.2324924  31.3867521  53.0447578  58.8941479  32.2488236
  53.3407927  60.1804447  31.5080142   3.4437816  49.9671311   1.3260462
   3.4972303  50.4114957   0.4799320   3.9982598  49.1933675   1.2256576
  22.5688871  17.8272809  58.6676274  21.7975696  18.3595885  58.4728376
  23.2702859  18.2238282  58.1508873  57.1740007  52.0915413  61.7583370
  56.3423443  52.5516462  61.8718529  57.4836063  51.9328833  62.6500797
  73.6317396  57.7952242  57.7578163  73.2074356  58.4859896  57.2488546
  73.1768847  56.9935989  57.4994802  31.3813003  22.0925559  55.5754302
  31.7890676  21.9551743  56.4304660  31.8547901  22.8353394  55.2008418
  72.8557634  43.3180618  50.3442621  72.9948807  42.6685333  49.6550703
  73.7266350  43.6770582  50.5143642  15.4965926   8.8469299  49.6557808
  15.2624846   9.6885094  49.2644262  14.8501731   8.2327923  49.3076181
  58.2713795  53.6686659  32.9875612  58.0730009  53.6950684  33.9236069
  58.0634785  54.5487404  32.6737499  55.2550077  62.5059700  60.1441908
  55.7300138  61.8570232  59.6250916  54.7021055  62.9620504  59.5097446
  71.6719198  72.1534634  19.2411864  71.2003851  72.9556179  19.0166032
  72.1681738  71.9382763  18.4514678  31.6901017   1.3069567  14.4363070
  31.4457513   0.6117472  15.0472212  31.8118191   0.8585485  13.5994399
  56.1108732  13.5572660  11.9447851  56.3468742  14.0816116  12.7100277
  56.4280605  12.6777720  12.1500027  77.3481432   9.9512943   0.2022883
  77.9442851   9.2854198   0.5450085  77.3210350   9.7862419  -0.7401838
  33.1020388  35.9417224  22.4292183  33.1912169  36.8924904  22.4949622
  33.8496241  35.5967116  22.9173827  78.3839655  50.6635237  19.7004402
  77.8483200  50.7983398  18.9186823  78.5948515  51.5472984  20.0016165
   0.8082136  44.3691874  23.8858223   0.1899609  44.1785240  24.5912600
   1.3613304  43.5896349  23.8348985  77.1545172  62.8962183  15.8930480
  77.8466272  63.0113983  16.5441585  77.0462608  61.9476843  15.8237994
  59.7836685  28.0182266   2.8655267  58.9449787  27.5773859   2.7295569
  60.2435827  27.4678040   3.4993634  32.8745969  36.2803496  62.9337673
  31.9831642  36.0826768  62.6465305  32.8556999  36.1480750  63.8815951
  61.7768383  50.9308577  46.7636442  62.5246096  51.4012289  46.3950968
  61.8043661  50.0709486  46.3440847  47.7360503  52.3242135  18.7505962
  47.2779004  52.0723291  19.5524074  47.0409887  52.4319310  18.1013538
  60.8173513  47.3618841  42.7236080  60.5496407  46.9150400  43.5266590
  60.3043461  48.1699705  42.7167463  66.6640568   8.5152134  36.8522906
  66.9109345   8.9528259  37.6670218  65.7307912   8.3284267  36.9540215
   1.1903319  10.7091415  22.9906178   1.5932688  11.1259496  22.2289443
   1.7838511  10.9084558  23.7146616  75.9984064  34.8356819  45.5293465
  76.8986893  34.7962189  45.2066088  76.0859585  34.8478198  46.4824581
  59.5077658  63.3061504  23.1499887  58.6880302  63.5778379  23.5628486
  59.4525385  62.3512459  23.1134200   9.8841414  28.6477613  15.9018362
  10.3522429  28.8956285  15.1045418  10.5407748  28.7131381  16.5952253
  67.0526028  60.9048653  36.0067391  67.3287058  60.3658772  35.2654648
  67.8705263  61.2178612  36.3930893  55.9890509  19.9034178  34.0041924
  56.7150354  19.8482144  34.6255898  56.0598612  20.7818341  33.6305571
  32.7440246  15.1216687  40.4239772  31.9802841  15.0822343  40.9996341
  33.0149635  14.2092217  40.3226755   0.6276211  25.6000972  31.6397786
   0.3247341  26.5052581  31.5678406   0.9554276  25.3870678  30.7660532
  51.7489862  43.2303715  21.7755294  51.7878485  43.6210442  20.9025478
  52.6642513  43.0780554  22.0107317  52.3391628  65.3743982  51.5834045
  51.4350986  65.2914381  51.2800550  52.6655388  66.1633778  51.1507130
  70.0617123  40.2402878  42.6532888  69.1857910  40.6235218  42.6993942
  70.6412363  40.9856081  42.4955559  67.8241825  39.7731233  30.7284641
  67.4742270  39.5633721  29.8625731  67.2030306  40.4045773  31.0913134
  70.1687384  54.3864346  33.6731648  71.0392761  54.1989756  34.0242362
  70.1081467  55.3416872  33.6804461  74.7169113  45.1526690  26.3907599
  74.4270897  44.7857523  25.5555344  75.6681061  45.2184486  26.3062859
   9.4676718  52.9786730  61.6964293   9.9454436  52.5455284  62.4037886
   8.6612162  52.4710274  61.6061687  46.2190866  54.9194384  45.6418610
  46.8152046  54.7631598  46.3742924  45.9600496  55.8361721  45.7352781
  70.3326225  57.7059460  54.8256540  70.7579184  58.2859421  54.1940260
  70.9408379  56.9736195  54.9256849   1.1692509  44.2557144  57.1600056
   0.4968962  44.9174786  56.9980478   1.0451302  44.0073586  58.0760527
  75.2922392  69.8341990  23.6351895  75.4519606  69.0003157  24.0771770
  74.4424868  69.7207022  23.2094312  68.9972178   8.4933647  12.8497767
  68.6869542   9.1352352  13.4885001  69.8963753   8.3040031  13.1179059
  70.8779383  41.4473009  59.5295000  71.4414310  41.1250353  60.2329540
  70.1669884  41.9018650  59.9813318  75.6881062  12.4552902  38.2789230
  75.1451508  12.1986469  39.0242839  76.5268628  12.0204338  38.4325933
  24.4949985  43.0750084  16.6190624  24.4097400  43.9538240  16.9887137
  25.1445103  43.1701708  15.9224212  56.2417984  32.9483485  39.8440456
  56.6485310  32.7804422  38.9939809  55.3199530  32.7241230  39.7169566
  43.6361456  55.8257389  50.2094889  42.7887821  56.2347317  50.3853559
  43.4287691  55.0745535  49.6536589  52.6919270   0.8391508  25.2088976
  52.1161271   1.6037783  25.2145982  53.5684300   1.2003454  25.0765371
  23.6452708  59.3569517  25.1726556  24.1103014  59.9847984  24.6196747
  22.7215704  59.4866896  24.9577665  71.1732197  65.6395483  48.1383514
  71.1689377  65.2937794  47.2457981  71.8411922  66.3250446  48.1264544
  73.8542620   1.2942108  56.8731642  73.7876145   1.2057528  55.9223938
  74.1988818   2.1769794  57.0080090   7.5523028  59.4120550  59.9233437
   7.0639357  59.4879627  59.1036081   8.4234270  59.7498369  59.7153234
  64.0648270  47.1485710  32.4328589  63.4946489  46.6104507  31.8837166
  63.6750221  48.0221510  32.3990369   9.4231257  52.4253464  53.8481998
   8.8990435  52.8118038  53.1466103  10.2995905  52.7881622  53.7201071
  70.4730606  41.3283300  48.9381075  71.2021446  41.8363428  48.5823107
  70.2220488  40.7390785  48.2267618  64.8414803  38.3431625  37.5356007
  65.3152037  38.8699102  38.1793022  65.3529978  38.4307766  36.7312980
  14.7372660  58.3886862  46.5038395  14.1623148  58.5128498  45.7486868
  15.6033835  58.2415438  46.1238098  63.5330629  72.9737425  62.4874449
  62.9126692  73.6998415  62.4232435  64.0139723  72.9957485  61.6601133
  33.6433697  66.9970036  41.3116264  33.0257487  66.9957113  42.0429087
  34.4331288  67.4057055  41.6658545  52.5083256  60.7531166  57.9895592
  52.5755453  61.6369677  57.6282787  52.2719049  60.2056503  57.2408152
  69.3204927  51.4563322  14.0442431  68.9084148  51.7164230  13.2203662
  70.2082872  51.1977816  13.7968409  56.6904736  64.7095680   1.5573555
  57.4436474  64.1818666   1.2918483  55.9359503  64.1373396   1.4177680
  66.7535750  43.8862118  29.8696470  67.4391238  43.6229214  30.4835939
  66.4660899  44.7431263  30.1847291  72.7274561  70.6457567  33.1254625
  72.9195642  71.5693998  32.9635549  72.4691534  70.3014040  32.2705173
  39.0333367  -0.1256100  38.0021143  39.1803361   0.1337799  38.9116955
  39.2811585   0.6444391  37.4904108  57.7132559  71.8437767  22.0523810
  58.1166077  71.0516405  21.6973329  56.9826746  71.5239334  22.5817108
   7.6335081  54.6562529  62.7222109   8.2700667  54.0884495  62.2879124
   7.9001459  55.5433798  62.4810886  69.1581821  48.8749266  51.7723751
  68.2730436  48.5105848  51.7762709  69.7008753  48.1817293  51.3966131
  58.2221047   4.6554455  62.0082760  58.9232007   4.4231113  62.6171398
  58.5380284   4.3588480  61.1547804   2.3825392  26.5802622  12.3763847
   2.0163855  25.7781029  12.7488220   2.1959624  27.2545409  13.0296588
  18.0314271  73.3982401  46.6376851  17.6067130  72.6889257  46.1552702
  17.3262088  74.0189032  46.8212019   5.0305399  36.6379046  17.1518064
   5.7683214  36.5105700  16.5554047   5.0481543  35.8693409  17.7220964
  58.0193567  55.4463053  54.6011162  58.1470919  54.5193672  54.3993616
  57.6557350  55.8184099  53.7976551  58.2885408  44.4570208  31.8616605
  58.9730310  43.7880945  31.8461561  58.2138443  44.7444057  30.9516835
  75.1147699  15.3952539   9.4462073  76.0390520  15.6166101   9.5599669
  74.8678350  14.9688780  10.2668524   5.1895747  58.5217142  42.4983311
   5.7909807  58.0480909  43.0729818   5.4845747  58.3067369  41.6134596
  60.2835766   1.0882839  33.7401557  59.4369666   1.0398516  33.2961559
  60.0789253   0.9382280  34.6631026  58.5726261  71.9797039  60.3802013
  58.8574457  71.1105013  60.6623316  57.8418970  72.1924448  60.9607315
   8.1394896  70.5030823  55.2620077   7.7239832  70.4355383  56.1216736
   8.8008436  71.1867905  55.3686953  12.9239465   4.5912108   7.7355516
  13.1823540   4.6781811   6.8180043  13.5904074   5.0790581   8.2193506
  69.7959487  41.2479205  12.0061065  69.0953891  41.7940660  12.3627188
  70.5519836  41.8325801  11.9530441  16.8670385  40.8164163  10.0848438
  17.3228137  41.1879344  10.8401443  17.2401778  39.9403806   9.9870540
  62.1711731  37.3884368  38.2483125  62.5361013  36.6886258  37.7067184
  62.8337622  38.0788732  38.2259440  37.7159071  58.6283016  15.5483055
  38.5175180  59.0484476  15.2366567  37.2351503  59.3279409  15.9905803
  48.9146233  54.6655703  50.5989933  48.6871910  55.3520775  51.2260580
  49.8455381  54.5019436  50.7501554  37.1080256  60.3114128  50.1752949
  36.5013123  60.9052134  49.7331095  36.6759038  60.1000595  51.0028410
  62.4765396  29.4040322  36.8021774  62.0297766  29.9660945  37.4352002
  61.8924093  28.6534572  36.6941881   4.9394259  53.5894823  30.9563375
   5.4566988  52.8445864  31.2625933   4.7348913  54.0820217  31.7511964
  76.5482664  49.8512554  48.8941956  76.0968685  49.0650272  49.2013168
  76.4971685  49.7993612  47.9397726  64.4126892  64.0072870  38.5842586
  64.7984362  64.3985653  37.8004646  65.1525402  63.6070967  39.0410972
  68.9332962  54.1448784  60.6553698  68.5806751  53.4204006  60.1386261
  69.7666264  53.8155794  60.9920549   3.9801630  36.1595668  58.7136875
   3.0612596  36.1565627  58.9817182   4.1035732  35.3193797  58.2720010
  48.1410074  53.3614349  53.5431814  48.6828899  54.1501617  53.5656214
  47.5315523  53.5100508  52.8201962   3.1313945  20.3389820  38.2322001
   2.9295684  20.1467976  37.3164678   3.7044287  21.1048302  38.1955338
  64.9471712  28.8947821  36.1651802  64.0811586  29.1580391  36.4765429
  64.8763084  28.9194345  35.2109265  36.3928914   8.0201846  33.8391781
  36.1285353   7.3422557  34.4610786  36.8659496   8.6609405  34.3701029
  14.7670969  55.9546614  15.7348108  14.1668162  55.2674866  15.4455233
  14.2658266  56.7649031  15.6428063  62.0985556  63.0367994  35.5459261
  61.7453003  62.6298046  36.3369989  62.8044653  62.4519587  35.2704501
  62.5672340  50.4116297   9.9877989  62.0134640  50.8509398  10.6332278
  63.1752157  49.8885441  10.5102682  58.2098341  62.8643703  44.3488359
  59.0794563  62.4647236  44.3654823  58.1532288  63.3491468  45.1722574
  63.8052988  59.4788837  10.8669758  63.6899996  60.2221394  11.4590120
  63.2897806  59.7067213  10.0933063   2.7257952  62.7088642  53.3195782
   3.5277304  62.9660177  52.8646088   2.4445662  61.9088411  52.8756046
  14.2681361  18.6474022  55.5717659  13.5334349  19.2581352  55.5129719
  14.1531134  18.0616173  54.8235321  40.6779242  57.9084110  56.7798328
  41.2323093  58.6574459  56.5611267  39.9625087  57.9464912  56.1450386
  54.7712135  35.6128550  35.0938916  54.3668079  34.7600484  34.9344993
  54.1535711  36.2437034  34.7240520  46.6596460  64.7235870  43.4717226
  47.5257444  65.1309443  43.4846163  46.5536165  64.3584204  44.3501520
  62.1737480  30.6088924  40.6387711  62.8698444  30.3337407  40.0421333
  61.5886497  29.8530030  40.6889915  46.0403538  69.9691057  60.1746798
  46.0828161  69.0223026  60.3088140  45.4203558  70.0813532  59.4540977
  65.3035069  45.9522724  46.3319397  65.2773809  45.7502556  47.2672176
  64.8779297  46.8065929  46.2594604   7.0967627   0.6018719  41.2293243
   7.0830918   1.5458902  41.0715818   7.2721673   0.2180037  40.3701925
  40.6160069   6.0072693  49.4265938  40.2527810   5.1261839  49.5159626
  41.2300587   6.0883507  50.1563883  15.3141627  29.8254585  10.6393588
  15.5802950  29.9011421   9.7230178  15.6267390  28.9618492  10.9090006
   4.3117524  14.7650894  47.5358343   3.5595847  14.1809734  47.4394608
   4.9755669  14.3992313  46.9512510  74.4543076  31.2955165  36.5163422
  75.1084661  30.7081127  36.1378384  74.4144297  32.0334268  35.9079576
  65.9372807  65.6826639  13.8386476  65.0981188  65.4743052  14.2492962
  65.7018089  66.1366081  13.0295002  72.0825863  71.9945812   8.9188731
  72.7054596  71.8145847   8.2146972  72.1027803  71.2076569   9.4634569
  34.0609503  68.3577204  21.9726586  33.8691521  69.2397928  21.6542459
  33.2412148  68.0627060  22.3691821  28.1716697  16.3250299   3.5152389
  29.0943401  16.5290446   3.3626129  28.1771676  15.4297395   3.8538458
  77.3484961  48.1309017  20.3179693  77.7880207  47.6874527  21.0435009
  77.9464404  48.8363632  20.0709295   2.0400175  39.1569519  26.7645454
   1.6236719  38.4559536  26.2630558   2.8993353  38.8062000  26.9985771
  15.0988198   7.5409016  58.2998419  15.8723641   7.0672974  57.9939699
  15.1613045   8.3985600  57.8794146  49.5910041  18.0996223   8.1961109
  49.8132722  17.6487823   9.0107061  48.6666314  18.3282991   8.2934524
  46.2384415  63.5108709  19.3628216  47.1809053  63.4441137  19.5162404
  45.8433247  63.0150652  20.0799632  40.7448530  17.9842031  42.4311543
  41.6794586  17.8371263  42.5764751  40.6955528  18.8667250  42.0637894
  34.9289513  69.1459608   7.3008466  35.1871467  68.2694197   7.5858778
  33.9730406  69.1136694   7.2631288  74.8739719  34.5917487  28.0238891
  75.4213715  33.8159418  28.1451797  74.2851686  34.3595457  27.3058200
  40.0022618   4.2809577   3.9230015  40.6254451   3.7396855   3.4383394
  39.1504352   4.0620132   3.5452606  68.9672343  24.8278089   5.1551725
  68.9734046  25.3214021   5.9752704  69.8230426  25.0028939   4.7637989
  10.8284220  68.4793186  38.8300109   9.9620089  68.4538555  39.2361116
  11.3078055  69.1401958  39.3296742  59.6793604  48.5228252  50.0308037
  58.8300896  48.2154083  49.7138357  59.4645739  49.1932678  50.6793451
  68.0933475  44.0673065  53.4942579  68.6333847  44.2996168  52.7388620
  68.7135220  43.9992285  54.2201900  44.0406974  71.9818890  38.1978989
  44.8050388  71.9992662  37.6219583  44.3770345  72.2574729  39.0506363
  66.2311935  58.5555029  23.0505681  66.0704613  58.0930090  23.8730621
  67.1830416  58.5422277  22.9503775  12.6608023  64.5309496  55.5231619
  12.8168806  64.7497797  54.6044779  13.3670172  64.9699402  55.9972668
  62.7821350  23.7105441  34.5883489  63.3987427  24.4276476  34.7359419
  62.1286249  23.8102889  35.2805996  33.7104735  63.0448246   2.7871615
  33.6607966  62.2112989   2.3191845  32.8197798  63.1951427   3.1038746
  58.7670263  71.0182453  39.4305849  59.5069154  71.6041954  39.5901442
  59.1435751  70.1393533  39.4752240   6.4513398  62.3183380  13.9506389
   6.6126967  61.5867840  13.3547975   6.5079499  63.0962025  13.3957054
  57.2732782  35.6185675  57.6061440  56.8244267  34.9517608  58.1258869
  56.6462660  35.8504796  56.9210863  61.7205667  35.1502061  31.2240005
  61.7057085  35.4320550  30.3093576  61.9183540  34.2145538  31.1831188
  65.9547583   4.8856339  19.4446433  65.3859345   5.1811108  18.7337554
  65.3528205   4.6469292  20.1495719  21.8862630   9.7280010  26.0445452
  22.4809886  10.4694637  25.9315562  22.2186805   9.0606865  25.4441953
  64.9032545  33.5508823  12.7748311  64.5825148  32.9529977  13.4500289
  65.8422327  33.3723211  12.7232087  62.7822256  28.2907724  45.4582071
  62.9537916  28.5472918  46.3642931  63.0586863  29.0459371  44.9390459
  73.7950993  51.3590860  27.3560119  74.3087912  50.7131481  27.8409028
  73.0809593  51.5915728  27.9494643  47.6906061   8.6297446  24.8563218
  48.6161852   8.6766976  25.0957704  47.6936293   8.3403248  23.9439297
   0.1065096  40.1337147  28.0981994   0.8727536  39.6887016  27.7361655
   0.0125536  39.7706532  28.9788771  52.4142711  29.4040055   2.6266863
  53.1082027  29.7064872   2.0408584  51.7907397  30.1297422   2.6541569
  44.9511179  60.8842734  14.3909657  45.4795393  61.5778652  13.9960802
  45.0877079  60.1261726  13.8227582  41.9690657  68.9164209  12.9703581
  41.4782238  68.3493757  13.5651374  42.6184559  69.3441200  13.5285699
  22.8833390  12.1735939  38.7063217  22.9415179  11.6257366  37.9235721
  22.1625663  11.7956432  39.2101741  12.6062203   7.7413925  43.5510111
  13.0890465   6.9955334  43.9071131  12.7465630   7.6882633  42.6056480
  16.3640468  15.6654162  -0.1763294  17.2283952  16.0633273  -0.0723980
  15.8172481  16.1073585   0.4732324  76.5191492  24.7351588  52.7415322
  75.8447202  24.0929402  52.9627464  77.3450979  24.2677392  52.8662716
  48.4488010  61.2594271  45.0294828  47.6856184  61.6556358  45.4499626
  49.1420889  61.9120836  45.1276064  54.1714430  42.4954748  22.4872923
  54.9722338  42.0538568  22.2045660  54.0622139  42.2316504  23.4009099
  36.2976742   3.7363466  38.5247016  35.7304955   2.9908642  38.3277345
  36.7257691   3.5007128  39.3477750  14.8279318  48.4632111  31.9567323
  15.4415163  49.1284990  32.2684002  14.3967947  48.1447268  32.7497745
  67.3679495  61.2897825  52.0925188  67.2318792  60.3635836  52.2922182
  67.1465397  61.3697958  51.1647224  60.0823975  43.8992357  42.8692102
  60.9797621  43.8770247  42.5368261  59.9865437  43.0800056  43.3549118
  67.3180580  65.6937313  47.7502966  67.9994249  65.1870203  48.1921244
  66.4966679  65.3239775  48.0740690  48.5292006  59.1172361  16.7035651
  47.6083279  59.0066719  16.4669096  48.6776590  58.4728813  17.3956621
  51.1188539   9.6277226  52.5603960  51.6066202   9.7361554  53.3768259
  51.7639240   9.2900123  51.9390498  65.7541561  33.3068657  27.8981113
  65.7516050  33.8171101  28.7079716  65.8945990  32.4042630  28.1841421
   6.9217126  11.4845510   3.4518959   7.1827714  11.4241405   4.3708278
   7.7006428  11.8127627   3.0027010  12.1709761  23.4183431  43.5185146
  11.7207655  22.6705503  43.9113808  11.4867243  23.8845539  43.0382252
  73.0922747  40.5461359  19.4036996  72.7970791  40.6602192  20.3070712
  72.2870541  40.4127264  18.9036429  66.0140276  15.9654260  46.6403389
  65.4401827  16.6374087  46.2724018  66.8772745  16.1622846  46.2766314
  46.8439770  68.7183666  36.3152385  46.8265772  68.8828039  37.2580481
  47.4954033  69.3327236  35.9769416  61.0201740  24.7549438  13.7279248
  60.5011177  24.2414904  13.1089103  61.8779278  24.8368979  13.3110654
  53.1237173  37.1893334  38.1126714  52.8628349  36.3134074  37.8281999
  54.0756655  37.1393585  38.1994581  30.8557510  65.6512308  38.2240009
  30.4081154  66.3688755  38.6721539  31.7867160  65.8502626  38.3236051
   4.0419325  36.8684077  28.4678364   3.6629614  37.3981786  29.1692352
   4.9849066  36.8955016  28.6300063  18.7011576  19.5278725  59.9351454
  18.6109162  19.7810825  60.8538294  19.0540934  20.3070339  59.5055103
  64.3965244  71.1638880  46.9460440  63.5890293  70.6664848  47.0755339
  64.9353981  70.9481335  47.7071619  67.0924759  51.5487146  37.8372622
  66.4532328  51.5962315  37.1263909  67.1490383  52.4448824  38.1688094
  15.3287348  56.0342884  55.4130173  15.8879694  56.8077135  55.4857969
  15.1409754  55.9616852  54.4772243  59.2809248  56.4495564  59.9258184
  59.0232611  56.1848593  59.0427685  58.5671711  56.1435699  60.4854250
  23.6377558  56.7258549   6.2256157  23.8396868  57.6612616   6.2038970
  22.9599318  56.6426611   6.8963307  37.4690057  10.9905514  14.8776281
  37.8272343  10.9884914  15.7652664  37.0211030  11.8331131  14.8020697
  49.5927589  64.0782027  53.8366924  49.6835010  64.6686177  54.5846282
  50.3968494  64.2044358  53.3329676   7.1281847  52.2955656  38.7584591
   6.7392859  52.9193354  39.3715668   7.7822813  52.8055191  38.2806087
  42.2536373  61.0736322   3.5901472  42.9223061  60.6632853   3.0417624
  41.6388178  60.3669834   3.7873164  38.2181804  37.2142739   0.9672262
  38.5767333  37.0145078   0.1024916  38.4071033  36.4354177   1.4906074
  76.5590382  44.4668722  61.6535711  76.4422846  45.2968788  62.1158361
  75.6715441  44.1236258  61.5497732   8.2998276   2.4031529  56.5454006
   7.8024150   2.6259645  57.3322725   8.3721066   1.4490017  56.5699148
   9.4286665  52.7102661  42.5655174   9.8091254  52.0479345  41.9886303
   9.7848353  52.5075579  43.4305525  30.1078130   8.3620247  44.4552517
  29.4073678   8.8611874  44.0351915  30.4426575   7.7908596  43.7639666
  14.5033964  28.4385467  38.4205270  15.0360331  27.6793957  38.6576295
  15.1281866  29.0646195  38.0545998  14.5635176  21.9018444  30.1070189
  14.9913979  21.1165794  30.4483557  14.3015767  21.6644177  29.2174983
  30.9696103   4.5222506  64.1064453  31.3570882   4.8494705  63.2946491
  30.0254060   4.5629152  63.9545727   4.8007966  42.6529678  32.4276638
   4.9894477  42.9194912  33.3274436   3.9815236  42.1619209  32.4900937
  66.8278551  65.9708452  29.5728421  66.6174221  65.0535965  29.7477794
  67.2927666  65.9545851  28.7362862  14.6837267  60.7639980  60.0648689
  14.3473753  60.0139570  59.5744276  14.4403204  61.5242290  59.5366383
  77.5889635  32.2890949  51.0769653  77.5430250  31.3865876  51.3925648
  76.9896078  32.7724743  51.6456032   2.4049919  21.2898721  52.1502934
   2.0169800  20.6684436  52.7663289   2.7052086  20.7479848  51.4205955
  43.3196164  13.4107193  22.5219131  42.4340058  13.0729660  22.6554990
  43.1930352  14.3325409  22.2972798  46.1423302  72.5383472  26.5146756
  46.8155813  73.2187366  26.5205693  45.6508255  72.6947260  25.7083273
  42.6162752  16.9636191  57.8757970  41.7843326  17.2985829  58.2103155
  43.2821497  17.4145831  58.3949075  18.7227107   2.9161629  16.4046252
  18.9996768   2.1199640  15.9512031  19.1356850   3.6269936  15.9143138
  64.4363689  70.6731844  31.6734004  63.8149214  70.8079052  30.9579396
  65.2916479  70.6407070  31.2448311  72.1815729  51.5287304  12.6092470
  72.8332567  52.0518541  13.0760252  72.5220919  50.6348419  12.6444793
  53.9411990  30.3238721  10.2917673  54.5847003  30.9983535  10.0744821
  53.9574306  29.7273679   9.5433332   5.2601942  70.0548458  25.6789517
   5.2550539  70.9993553  25.8342314   6.1879286  69.8271370  25.6182814
  75.2016449  53.8946104  43.2258749  74.5905685  54.1867495  43.9022446
  74.9183989  54.3512869  42.4337626  31.3889003  51.0973406  12.1315682
  31.2011600  51.8521690  11.5737021  30.9244823  51.2815285  12.9480374
  70.6773901  36.4821839  33.4045839  70.4460430  36.3856077  32.4807954
  71.5503168  36.0957408  33.4745455  31.6980267  65.0233173  45.0095797
  31.8428612  64.4380379  45.7530165  31.0547686  64.5669270  44.4672155
  62.1640062  59.0132952  20.3429341  61.3287735  59.4514084  20.5062366
  62.6612091  59.1364908  21.1515403   5.3708586  64.2606878  46.8843985
   4.9320540  64.4870853  47.7044153   6.2015948  63.8710403  47.1569300
   0.1959786  29.2297053  12.7420783  -0.5165926  29.3636847  13.3669949
   0.9927210  29.3105316  13.2663858  14.8195109  52.6487017  25.8396912
  13.9393172  52.2852659  25.9366322  15.2461466  52.4697876  26.6776705
  13.5694981  18.5391792  39.5924163  12.9272557  18.4042248  38.8956070
  13.0516101  18.5463127  40.3973818  17.8865147  11.8796715  49.8536110
  17.5521231  12.1392616  50.7121181  17.3048163  12.3129257  49.2289925
  37.5772953  72.2712374  47.4153900  36.9657469  73.0039167  47.4890280
  37.1793056  71.6913986  46.7660618  30.1970863  73.2863235  60.8755827
  29.7365165  74.1175365  60.9904194  31.1002302  73.5376501  60.6821918
  36.2726879  67.4407244  59.4850397  35.6475210  68.0170059  59.9246979
  35.8256030  67.1695662  58.6832762  69.2599344  63.5410881  48.8466597
  68.7570477  63.5949755  49.6593285  69.9526930  64.1935062  48.9499712
  21.8561364   8.2038673   9.3435746  22.6528407   8.2185253   9.8739356
  21.7644454   9.1015514   9.0242296  23.1443072  36.2117943  31.0804367
  23.9159537  35.6555828  30.9735727  23.4995414  37.0869907  31.2356138
  56.9697285  56.2866783  52.2559929  56.9441032  56.2422180  51.3001680
  56.7824507  57.2033358  52.4582291  46.6047574   6.1834892  50.6409597
  47.0231057   5.3260597  50.7185555  47.3167992   6.7765888  50.4012489
  16.3990451   9.8947033  21.5292335  16.1166764  10.5232700  22.1936178
  17.3541165   9.8916897  21.5929294  11.1024126  54.4099522  35.8184695
  10.2994093  53.9363861  36.0356164  11.6601786  53.7554836  35.3979945
  61.1939001  26.8741941  43.9894676  60.8953094  27.6964855  43.6009884
  61.6638231  27.1395159  44.7800398  40.7415628  60.8757353  17.3584437
  41.3525677  60.1393986  17.3316848  41.1349440  61.4910269  17.9772341
   2.5946173  35.2800655  12.2652805   2.0416579  34.7869682  11.6592050
   2.2492537  36.1721969  12.2328210   7.4156317  49.2353058  46.7073631
   6.9716963  49.4351006  45.8832073   7.7501139  50.0795460  47.0100355
   8.9298853  69.9960041  29.1063213   8.1154856  70.4907227  29.0154934
   8.7383684  69.3404484  29.7769928   5.2897391  46.7188072  44.8534775
   6.0283503  46.2984467  44.4130516   5.0638613  47.4583769  44.2893410
  32.3673726   7.8071198  25.2971864  31.5803529   7.6887688  24.7653723
  33.0409528   8.0746731  24.6719313  12.7601752  64.3431377  32.2857881
  12.1090636  63.6867237  32.0380044  13.5925230  63.8705587  32.2757363
  19.2019654   3.2860550  44.3955374  18.3086777   3.5587057  44.6051168
  19.1413356   2.3382601  44.2762184  35.0086976  13.3118996  26.8939734
  35.1187325  13.7181362  27.7536774  34.1248608  12.9449352  26.9138241
   0.6750012  11.9810375  55.3418446   1.4820815  12.4952396  55.3206921
   0.0100899  12.5918850  55.6596375  76.2846756  73.9454126  46.6420364
  76.8366766  73.1732845  46.7659283  76.5535450  74.5460796  47.3371220
  16.3000060   4.6511778   7.0658350  16.3545180   3.7002167   7.1603096
  16.1731387   4.9736342   7.9581124  69.9810044   3.6767038  55.6086206
  70.7656352   3.9480576  55.1322222  69.4876591   4.4866022  55.7386351
  66.0082960  27.5067067  43.9016438  66.0958862  28.3746433  43.5076284
  66.7234039  27.4584079  44.5360851  23.0817191  46.5020413  15.2593948
  22.2599666  46.0824628  15.0046350  23.6444537  46.4133782  14.4901754
  13.1354937  47.1343327  39.2149544  12.4117979  46.9499159  38.6162138
  13.5499701  46.2836170  39.3589115  51.5766176  47.7510680  60.6140314
  51.5698656  46.7941512  60.6362630  52.3562177  47.9967250  61.1121370
  22.0486022  11.3432201  46.2405348  22.7562285  10.8193764  46.6161489
  22.4167443  12.2234997  46.1642933  30.8274587  12.6687325  64.1521954
  31.2973007  11.9567384  63.7179755  31.4045986  13.4269513  64.0614146
   8.7209257  60.5829334  38.1735039   9.5621142  60.1364756  38.2700276
   8.2769141  60.4406118  39.0094662  59.6474171   6.4807018  38.6752725
  59.1157819   5.6875786  38.6078215  59.6035100   6.8733486  37.8034139
  38.0285716  66.1255598  29.3146443  38.4876060  66.4357996  28.5340858
  37.6413059  66.9143867  29.6941376  74.1165924  52.1323490  39.8469448
  73.8834238  51.7415142  40.6890345  73.2842493  52.2114086  39.3809152
  69.0436172  65.7933378  27.7597928  68.7096882  65.5358458  26.9004798
  69.2518282  64.9658918  28.1936240  53.7122727  14.0519985  40.3265095
  53.6597920  14.9439224  39.9830770  54.4783307  14.0609917  40.9003687
   8.6833319  43.4524632  52.0425034   9.2390951  43.0719805  52.7226400
   7.9115614  43.7680483  52.5126123  73.6562586  67.6587868  12.3934877
  72.8619623  68.0116510  11.9924736  73.3821011  66.8243217  12.7739358
  65.3262607   6.5432152  54.9645805  66.1363260   6.6547379  54.4669962
  65.4537789   5.7283196  55.4502916   4.5232870  22.4350209  24.4947674
   4.9055006  21.5732045  24.6603634   5.1041128  23.0458016  24.9484493
  20.0200034  18.0294785  44.1507196  20.7323266  17.7146038  44.7072029
  19.4980002  18.5904583  44.7243452  40.2787304  57.2552681  26.1705780
  39.9323988  57.9457903  26.7357945  41.2292671  57.3502588  26.2313485
  78.0429427   3.6105379  44.9088287  78.6273400   3.8257536  45.6357336
  78.0578629   4.3883595  44.3511486  49.9711466  44.2155075  50.4709816
  50.0281382  44.2572689  51.4255667  49.5304871  43.3845139  50.2934790
   8.4337267  42.4553251  34.1079211   7.8295836  42.5091362  34.8484206
   8.4001002  41.5377188  33.8375664  49.8186731  33.1526875   5.4622042
  49.0793037  33.2098651   6.0674298  50.1294374  34.0541005   5.3778833
  18.1420645  24.6141315  43.7559128  17.6645121  23.9984846  43.1998968
  17.4835619  24.9462461  44.3660831  56.2541389   4.7289273   8.6294883
  56.0623646   5.2236664   7.8328151  55.7832623   5.1952350   9.3201888
  13.6711343  45.9717384  14.2754006  13.1468757  45.1734248  14.3392825
  13.9915451  45.9763256  13.3734310  26.7461944   8.4484792  52.6097250
  26.6078496   9.1670704  51.9927025  26.8503904   7.6743883  52.0564079
  76.3128948  41.6960612  54.2372656  76.8937849  41.0538546  54.6451473
  76.6261696  42.5411502  54.5596218  20.9233737  25.2255774  43.6965084
  20.9040165  24.2689800  43.7244129  20.0024533  25.4847765  43.7274075
  39.0053654  15.8757067   5.6533325  39.8549461  16.2786603   5.8324218
  39.1327333  14.9486637   5.8548325  75.2223849  41.5367428  38.3724952
  74.8220181  41.5338508  39.2419362  75.3161144  40.6107608  38.1488872
   2.0542964  57.0528642  15.8582675   2.8554615  57.0532504  15.3344691
   2.1088251  56.2514058  16.3787711  16.3078912  54.5274213  34.8453116
  15.7343563  54.9383405  34.1984487  16.3539585  53.6100117  34.5761061
  66.6166639  19.5552111   6.2618977  66.3459730  20.4723287   6.3049924
  66.3730526  19.2747831   5.3797150  25.5616832   6.5825140  13.6525226
  24.6744394   6.9416851  13.6577177  26.0516977   7.1630889  13.0702424
  59.8968132  19.9288671  57.8082315  59.6376045  20.7683318  58.1881569
  59.9431618  20.0961070  56.8668948  73.1666374  58.1708780  40.1825237
  72.9050135  57.2608653  40.0423050  73.5668897  58.1737653  41.0520172
  20.7530713   6.4476138  50.3772402  20.5859137   5.8213371  49.6729231
  20.0381112   6.3065499  50.9978628  34.5669317   1.6310024  44.1168118
  34.9471140   1.9354767  44.9408197  34.5889330   0.6762258  44.1812277
  30.7444143  30.8882642  30.8293462  30.6950998  30.2542138  31.5447354
  30.7337260  30.3543663  30.0349474  71.6750479   6.4597434  21.6371679
  71.1899757   6.5001053  20.8129692  71.2127399   5.8008093  22.1551490
  45.0262674  62.7808705  37.2627926  45.1627716  61.8443182  37.1197248
  44.4196542  63.0430308  36.5703177   4.1579660  43.5175553  12.3889923
   4.7973808  43.8742224  13.0055690   3.7350091  42.8049079  12.8680277
  75.3997278  17.2128952  30.3008962  75.5831289  17.9853249  30.8356357
  74.9728203  16.6017818  30.9013319   6.6221365  63.2795039  35.4350662
   5.9886702  63.9690307  35.6338239   7.0772775  63.1264642  36.2631106
  40.5766662  70.4146099  29.2888856  40.9723266  71.1537889  29.7507262
  41.0885080  69.6556774  29.5686555  30.0011778  12.2102332  47.5120687
  30.2675414  11.5517890  46.8704033  29.4591904  11.7295051  48.1376743
  30.0276351  27.0387030  19.5526206  30.3297353  27.8894424  19.8707533
  30.8176422  26.4989114  19.5252728  54.5635986   6.0702771  52.6706505
  54.0039301   6.7212665  53.0939865  54.7083998   6.4154834  51.7896843
  30.3330064  25.8367276  23.6972785  30.5379319  26.4582682  22.9987621
  30.2290344  24.9977088  23.2484269  58.2571212  54.1101168  17.3271896
  57.9175512  53.3345960  16.8805458  57.5233070  54.7247158  17.3312427
  60.8962686  46.4006232  51.6548894  60.3578742  46.5378092  50.8754383
  61.7868955  46.6048990  51.3697861  40.7495689   7.1931839  46.9201899
  41.3347721   7.8760195  47.2480679  40.6776524   6.5713525  47.6443338
  51.8091822   1.2134628  13.6321700  51.8842220   2.0049158  13.0990624
  51.8566465   1.5275136  14.5351374  32.1096420  22.6324296  11.6954684
  31.6593122  22.9118538  12.4925613  32.1662784  23.4251380  11.1619568
  58.8306379   1.4543459  47.4818754  58.0860472   0.8695608  47.3410130
  58.7674522   2.0970306  46.7753363  24.6000370  43.6084953  22.3235583
  25.0070270  44.3922821  22.6927066  25.2842029  42.9404441  22.3666310
  13.4457835  48.5859385  46.1366701  12.6976331  47.9969421  46.0387564
  13.7350353  48.7567726  45.2403545  75.5438200  33.9309825  10.8245184
  74.9833933  34.5870067  11.2389900  75.7193009  33.2939004  11.5170242
  46.5568670  72.0629609  56.2401724  46.1520370  72.6707469  55.6213522
  45.8608182  71.8576333  56.8643427  74.2096424   0.6895478  16.9775951
  74.3691492   1.3450289  16.2985265  75.0831032   0.4385722  17.2781134
  39.1151690  30.9244251  37.3157620  40.0611401  31.0354733  37.4108267
  38.9089298  30.1583266  37.8512907  20.7873821   8.0594587  15.9951699
  20.5918145   7.4203956  15.3099084  20.0080824   8.6138266  16.0351419
  52.2086525  29.8799562  51.7193413  51.4568090  29.8468065  51.1278534
  51.8923998  30.3646421  52.4817705  43.5641941  43.3904448   4.3121627
  43.8014921  42.6506797   4.8713326  42.7108892  43.6744181   4.6399668
  11.7119949   2.1827765  12.4464704  12.2450654   2.9681320  12.5701048
  12.2865765   1.4607782  12.7010443  51.1031008  25.4980993   9.5730853
  51.9945240  25.5845428   9.2352635  50.9580946  24.5535064   9.6273869
  65.9690523   1.1640675  19.9293363  65.1106358   0.7829737  19.7446287
  65.7973719   2.0993796  20.0386500  25.8231997  43.6615801  12.5477290
  25.8107829  42.8974724  11.9713485  26.7506623  43.8037634  12.7370155
  14.4796499  61.3251236  43.2488251  13.6421617  61.1794380  42.8087997
  14.8610290  60.4512552  43.3333015  27.1715260   9.5496523   8.0513060
  26.2550235   9.2950308   7.9444450  27.5687551   8.8204247   8.5274029
  32.2405243   3.8017923   3.5759586  32.7284932   4.5410568   3.2131836
  32.2495437   3.9497718   4.5216078  53.5643768  13.5427988  17.6339459
  52.6610804  13.8420558  17.7375352  54.0039682  13.8260698  18.4356630
  56.8515921   9.1254181  22.4212193  56.8659353   8.2656944  22.0006227
  56.5788126   8.9472157  23.3212566  35.2441645   8.3657271  38.1979585
  35.8268785   7.7040762  37.8252745  34.3731356   7.9716140  38.1509089
  58.4811679  21.0361467   5.5877401  57.5307480  20.9579025   5.6702663
  58.6434761  21.0004245   4.6450760  57.2888251  71.1932731  49.7378111
  57.1290862  72.0178593  49.2787075  57.8847121  70.7113663  49.1642952
  49.5005989   5.2995187  26.4642739  48.6107826   5.3613007  26.8116117
  49.8312664   4.4661653  26.7995572  11.7723072  31.8611169  19.7041130
  11.8892324  32.6553869  20.2253556  12.6378989  31.4526439  19.6925402
  62.3136591   6.6172542  59.2055677  61.5626632   6.0968722  58.9201949
  62.1690565   7.4798144  58.8165824  42.5339842  12.7859712  40.0309753
  42.6082420  12.0707619  39.3991566  42.7699995  12.3899639  40.8698463
  11.5462717  12.9396272  17.4254644  10.6558070  13.2167006  17.2097564
  11.4555773  12.0227635  17.6850152  63.5883176  63.1751564  21.5941358
  62.9276251  63.8557247  21.4655137  63.9580750  63.0325786  20.7228255
  55.8308840  24.5872927  43.4205675  56.0800743  24.3190908  44.3049908
  55.3792095  23.8254166  43.0575705  51.4095886  48.4552793  47.2224401
  52.1071751  48.0236642  46.7291723  50.8398707  47.7406065  47.5068615
  34.1563129  16.4668119  44.3976927  34.1913629  15.5655146  44.0772772
  33.9679623  16.3815999  45.3322983  40.3464270  17.5368023  22.4849296
  40.4864216  16.9115567  21.7738032  39.7521853  17.0871437  23.0856919
  54.9589157  16.1120331  45.0169325  54.7246933  15.8562958  45.9091043
  55.8749294  16.3829589  45.0781059  62.1747494  25.6702805  22.9071522
  61.8429327  25.2473760  22.1151423  62.5716877  26.4837980  22.5959301
  52.5432444  13.7461424  48.7200022  52.5593233  14.6442556  49.0507030
  51.6136074  13.5211182  48.6830616  56.4456034  12.6988399  48.1072140
  56.7310524  12.0614922  47.4525881  55.9508228  12.1830201  48.7438869
  29.5065960  66.1418876  53.2286024  29.2751678  67.0274404  53.5087252
  30.3721984  66.2350610  52.8307581  31.4324498  17.3727536  33.2214928
  32.0595050  17.9457593  32.7802467  31.9647503  16.6560853  33.5668540
  66.0429716  27.2238445  -0.1285524  65.8541441  27.8585434   0.5626303
  65.2210665  26.7479348  -0.2477674  42.6035961  68.3647028  50.1780415
  41.7855819  68.8596097  50.1317072  43.0523809  68.5663739  49.3569708
   8.0097765  31.4773297  51.4288187   7.3732233  30.9523249  50.9436369
   8.4886044  31.9576669  50.7533693  70.7652699  64.2492375  17.9429734
  70.8267593  65.1988373  18.0464685  70.7734083  63.9097455  18.8379097
  21.9235627  13.5157518  56.7649923  21.6737716  14.3490391  56.3656567
  21.7680757  12.8656654  56.0798315  27.4132872   6.1164176  32.8809309
  27.5551009   6.3194227  31.9563174  28.2772899   5.8630097  33.2057643
  41.3431915  49.5938173  11.6881466  40.7553896  50.3259936  11.5020335
  41.6859230  49.7781459  12.5626683  42.8704309  11.0029900  37.9121709
  43.8161802  11.1157751  38.0074430  42.6908922  10.1470780  38.3012867
   6.3682017  35.2410769  32.7092719   5.9988531  34.8003387  31.9440508
   7.1361765  34.7181201  32.9393983  35.3864765  21.1490893  16.9509852
  36.1628747  21.7060757  16.8943644  35.4806328  20.5324292  16.2249708
  45.0615152  64.6137765  49.2705154  45.1840910  65.3049830  49.9212408
  45.9165891  64.5271698  48.8491201  46.1932516   6.8944609  26.3081932
  46.2232304   6.2013495  25.6487012  46.4682961   7.6826882  25.8399200
  11.0781797  70.6416992  26.4643526  11.4558323  71.3919816  26.9233584
  10.6441744  71.0218510  25.7005763  22.2418404  47.3830174   6.9574596
  21.6002465  46.9338481   6.4071514  21.8630982  47.3578511   7.8361799
  57.3406966  41.2630059  43.7352966  57.9607041  41.0946785  43.0257271
  57.0047696  42.1413122  43.5565112  64.0973711   8.7278330  40.8047152
  64.3329620   8.5870171  41.7217207  63.8958263   7.8531748  40.4721737
   7.1287664  66.7368016  25.0167561   6.9651016  66.0878471  25.7010841
   6.8848666  67.5720999  25.4155302  68.0185175  23.6111307  31.6816497
  68.6234856  22.8772831  31.7898726  67.4053526  23.5257220  32.4116969
  53.0046463   2.2183163  31.4335108  53.8168001   2.4071315  31.9036055
  53.2324505   2.3239310  30.5098319  11.6611576  32.8901696  43.2576084
  11.6377485  33.4183860  42.4596882  10.8834136  32.3351336  43.2003164
  25.5929645  55.9419397  14.7757232  25.4338916  56.7230240  15.3056622
  24.8864683  55.9427169  14.1298914  43.3036089   0.4982097  62.4340153
  42.5427580   1.0489657  62.2496128  43.7003613   0.8904605  63.2118082
  46.0571718  14.1538727  37.4003959  45.5806398  14.9796486  37.4855113
  45.5896425  13.5472608  37.9745626  13.8691743  56.3678053  21.6818237
  13.3858951  56.0008672  22.4221134  13.5409030  57.2633806  21.6017389
  77.8910398  58.2096604  54.0058136  77.0811891  57.7219084  54.1557217
  78.5658454  57.6955119  54.4491196  31.1680388  29.5745683  20.4302716
  31.6578507  29.8596811  21.2016511  31.5035200  30.1196861  19.7185588
  15.4745706  62.3992673  54.6634293  15.6591161  61.7096368  54.0257883
  15.2710517  63.1687990  54.1317940  48.7226915  18.8563919  27.0820332
  48.5576773  19.7302091  26.7278481  48.4533787  18.9147246  27.9987121
  50.0590134  16.8357086  10.7452881  49.3682814  16.8137097  11.4075875
  50.5791283  16.0503769  10.9154856  68.4032456  53.6550056   0.4484655
  68.2735363  52.7479862   0.1714756  68.6358229  53.5916160   1.3748123
  29.4326910  56.2436191  27.4259901  30.1890167  56.2384335  26.8393278
  29.4912180  57.0816389  27.8848267  39.6192122   7.2167104   3.7533361
  40.3796244   7.4100143   3.2050300  39.5543671   6.2617475   3.7448630
  41.3988972  20.3459573  30.6944609  41.5661097  20.0985432  31.6038871
  40.5140448  20.0263238  30.5181003  12.6773056  49.0668455  36.4472032
  13.3567699  48.4999004  36.0823274  12.0054587  48.4626809  36.7631793
   4.8864635  53.8405791  47.3372364   5.4753312  53.6888162  46.5980291
   5.4415186  54.2386499  48.0078220  73.3892202  43.6859703  20.4706812
  73.4386778  42.8130770  20.0810122  74.2555666  43.8273096  20.8523846
  66.7514292  42.2761010  17.7504017  67.3406712  41.9097971  18.4098388
  66.2791315  42.9701291  18.2102920   0.9943207  67.0753518   2.2145973
   0.8498081  67.9893324   2.4595217   1.7109355  67.1076522   1.5808378
  67.1908728  40.0543816  23.8070537  66.7414204  40.2543537  24.6281673
  67.4437109  40.9090917  23.4580852  24.6690583  18.3081150  36.9976854
  24.8301268  17.8965628  36.1486197  25.4664016  18.8062501  37.1775055
  32.7908158   6.6795582  14.8166144  33.4361434   5.9848827  14.6854234
  33.0211282   7.0637834  15.6625223  66.9787470  19.0244936   0.4459526
  66.7897335  18.0963157   0.5837538  66.4514128  19.2658280  -0.3155611
  77.2009182  41.0940123  46.2229109  78.0856848  41.4381456  46.3453484
  76.6283226  41.7730379  46.5796947  31.9912704  72.8422477  19.3237710
  32.5027355  73.6024900  19.6006560  31.1068185  73.0189728  19.6443129
  75.5969118  73.0876215  13.0152941  76.4455437  73.5147371  12.8985560
  75.2910709  72.9151463  12.1248198  37.1973308  48.4115544  20.1797342
  37.3278507  48.1160108  19.2787063  36.4525589  49.0107599  20.1297474
   5.2431044  17.1903157  14.1826546   4.3392119  17.2385740  14.4939232
   5.3677782  17.9972172  13.6830568  34.0421852  70.9872386  42.1624374
  34.3262371  71.5500155  42.8827333  33.1416496  71.2597534  41.9863605
  67.7954133  39.5739003  63.5009310  68.0989011  39.0950065  62.7297057
  67.3578961  38.9123582  64.0368172  14.6172583   1.2627791  54.5123196
  14.3456221   2.0342892  55.0095320  14.6731019   0.5647288  55.1648808
   8.6736266  14.4641142  63.4345868   8.5383479  13.5170250  63.4654974
   9.0730922  14.6766548  64.2780824   6.7427977  72.6226135  50.4079056
   7.2183331  72.6236983  49.5771837   7.3468503  73.0277193  51.0301924
  18.7397313  26.8346739  45.8743906  19.5097840  26.3521051  46.1750221
  18.2721305  27.0639277  46.6775274  72.8811661  44.0817247  17.6782467
  72.7914492  44.5007949  18.5341408  73.8261191  43.9992164  17.5498344
  13.1998062   5.3376234  44.9384642  14.1054368   5.2840167  45.2437401
  12.9412389   4.4272935  44.7946787  37.0536685  18.4317589  17.9974091
  36.1412430  18.5842299  18.2433021  37.0593953  18.5019100  17.0428014
  22.3170360  72.0245606  18.9855003  23.2422050  72.2546895  18.8998759
  22.1555027  71.4110467  18.2687438  25.3508043   9.6827072  38.4172225
  24.5032024   9.4089460  38.0667114  25.9282494   8.9360762  38.2580686
  53.6685181  17.2161591   2.6925769  53.7579918  16.3671851   3.1255537
  53.0075550  17.6791048   3.2074013  52.4042702  11.5367770   8.6920959
  51.9806576  10.7379484   8.3779955  51.8236494  12.2430682   8.4087873
  62.7038622  25.4305673   6.1339378  61.9650221  25.7487774   5.6151956
  62.8302860  24.5277715   5.8420306  62.9787922  12.3447275  52.4720478
  62.5793219  11.5686440  52.0791721  62.8410435  13.0378652  51.8264341
  32.3033738  12.2721612  58.0646133  31.5183806  11.7707610  57.8441238
  32.7552652  12.3893833  57.2289801  61.5428972   0.2242870  29.3883085
  60.6069851   0.4242759  29.4057512  61.6378355  -0.4163218  28.6834407
  69.2995246  14.0290241  62.5565262  68.5746844  14.6536641  62.5821984
  69.7712071  14.2424278  61.7514117  13.9167579  67.2603759   1.2662917
  14.1105827  68.1140831   1.6533938  14.7669776  66.8242422   1.2101704
  57.1596289  37.5131345   6.0776031  56.5076113  36.8756795   5.7864773
  56.6903400  38.3473134   6.0896099   1.8656262  67.0376662  30.1895666
   1.4517506  67.8756562  29.9828959   1.6991671  66.9122777  31.1238050
  34.2835832  25.5820489  61.8269968  34.1511989  24.6400547  61.9335604
  34.6807289  25.6716156  60.9606934  63.7194732   3.6130425  41.0996771
  63.0437031   3.3427712  40.4779720  64.2500344   4.2464235  40.6163931
  69.3527352  62.8080371  40.7853222  68.7794494  62.1955911  41.2462807
  69.3109738  63.6116305  41.3037109  10.3170049  12.4597502  52.2332191
  11.1173642  12.5890565  52.7420807  10.6103194  12.0273006  51.4312315
  53.6438052  47.2681259  20.8755733  53.8427512  48.1447886  21.2043812
  54.4236270  47.0149027  20.3816273  15.2238834   2.3573427   9.9923474
  15.1211905   3.2773915   9.7490448  16.0589385   2.0983258   9.6027011
  74.7123095   2.1609925  14.9408102  75.2075976   1.9912076  14.1395020
  74.5255533   3.0993748  14.9126554  44.0714598   5.5841208  33.5385203
  44.2135668   4.9784875  32.8110290  43.1194258   5.6503868  33.6125183
  29.3133736  14.2569733  36.8344402  28.6690021  14.3954992  37.5285792
  29.8189092  15.0694573  36.8113065  55.2306557   6.1104125  16.5813684
  55.0813723   6.1099631  17.5268567  55.4096508   7.0261031  16.3675869
  25.5594858  30.7269302  31.5870261  25.8987316  29.9045816  31.9404221
  26.2390026  31.0265032  30.9830880  35.6104922  27.9981160  17.2267389
  35.8712077  28.6052656  17.9192901  35.7884693  27.1303606  17.5894487
  74.1297054  10.5054855  40.0461292  74.0455246  10.6729400  40.9848022
  74.3065214   9.5667326  39.9852157  77.4170589  27.3990655  27.6901770
  76.6524744  27.9741096  27.6591492  78.1323290  27.9668856  27.9768920
  44.7569418  23.9585876  35.7096744  43.8625002  23.8793302  35.3781319
  44.7590017  24.7812867  36.1989522  13.6782225  56.2442902  59.3148613
  13.0246481  56.1243025  58.6258936  14.4480594  55.7706550  58.9998150
  46.3158178   2.8926209  30.3481960  46.1452723   2.9337922  29.4072127
  47.0689487   3.4683940  30.4805303  11.6780567   1.6841306  31.2743688
  11.1421549   2.4377798  31.5214610  12.5790000   1.9728836  31.4198089
  77.4951346  57.4137382  49.3068026  77.9859193  57.7934127  48.5779629
  76.6175635  57.2668700  48.9539109   7.2861775  60.7919672  34.8876882
   7.0126566  61.6494552  35.2134705   8.2257851  60.7562545  35.0668359
  36.3357544   9.9483365  25.2621722  35.6015277  10.5611384  25.2219677
  37.1060824  10.5047345  25.3772759  61.0730457  12.3490572  15.8622837
  61.7487574  12.6958525  16.4448440  60.4805660  13.0866587  15.7168722
  73.0063581  23.2458496   8.5552764  72.9647064  23.9893174   7.9538149
  72.1460533  22.8321767   8.4846836  42.3228021  72.9029279  42.8924821
  42.2080775  73.8219361  42.6506303  42.1862109  72.8856950  43.8397310
  14.6291002  12.5272311  56.2917290  14.4122156  13.2740821  56.8497686
  14.9912866  12.9191817  55.4971032  73.5163546  28.9812303  32.4849463
  72.9223824  28.3284569  32.8555036  72.9591799  29.5212460  31.9244385
  66.3717890  27.7718306  26.8030953  65.7121468  27.5214791  27.4499559
  66.1882925  28.6928678  26.6180182  24.1100105  64.6594695  24.7943115
  24.3003830  63.8395289  25.2500391  23.6909708  64.3878976  23.9776826
  60.2225876  25.2214074  53.0126095  59.4589806  25.1554513  52.4392128
  59.9013186  25.6829572  53.7871981  47.4320364  23.9609718  12.5664902
  47.2336817  23.0316329  12.6814473  48.3759737  23.9868140  12.4098170
  45.7922268  23.3547211  38.8121629  45.0443649  22.7678061  38.9238358
  45.6866074  23.7121725  37.9305148  23.2737494  10.7301700  61.7264318
  22.6653814   9.9911922  61.7321491  23.8556862  10.5670702  62.4687099
  67.8312016   7.1443528  19.9039125  67.4919224   6.2805247  19.6695614
  68.1558084   7.0396245  20.7982802  68.0656894  37.3611970  59.4891663
  67.5562270  38.1714890  59.4788773  68.9395125  37.6312539  59.7715427
  28.5015655  12.3049867  25.6976175  28.3690095  11.3927579  25.9554911
  29.0936589  12.6580024  26.3617253  53.8804674  16.5572667  19.3740404
  53.9599180  15.7795453  19.9263716  54.1043234  17.2860074  19.9528825
  74.5484352  17.9925740  19.1874087  75.1554966  17.3140526  19.4829047
  75.0143194  18.4395075  18.4807026   4.2429194  33.8925362  19.0813327
   4.1512999  33.1330562  19.6566808   4.0907702  33.5465503  18.2019150
  52.7748474  66.0474858  25.7969499  53.5727247  66.4862058  26.0921597
  52.1926960  66.0726455  26.5563607   6.1905798  19.5790315   7.5829619
   6.2855181  18.6273062   7.5450343   6.2301382  19.7866631   8.5165334
  48.2440320  23.3643781   9.7040941  47.6034442  24.0674959   9.8113491
  48.9563767  23.5964237  10.2998688  73.5625648  33.7123632  20.8323216
  73.6305046  32.7593136  20.8899140  74.1692352  33.9538670  20.1324201
  51.3010597  47.7715826  11.7304122  51.3932037  46.9645023  11.2240875
  51.9025326  47.6622343  12.4669635  52.9120874   1.0979202   2.2873908
  52.1581745   0.6456447   2.6659390  53.5536957   0.4048907   2.1315686
  69.8973036  32.2169638   9.9714345  69.3261480  32.3710346  10.7239449
  69.4599724  31.5239787   9.4767195  60.3344727   5.1295727  57.6247692
  59.5558977   5.6515390  57.4308348  60.5557156   4.7112226  56.7927456
  74.5109987  15.6190836  40.6004333  73.9998627  15.5496597  39.7941136
  74.0210867  16.2378478  41.1420488  15.1516946  70.5893496  36.0583329
  14.9923023  71.4620483  35.6988573  15.0920566  70.0045729  35.3028774
  42.1271038   1.7409615  36.1074924  41.7561865   0.8949660  35.8566046
  42.0539141   2.2780153  35.3185368  64.4920540  22.6252961  15.6613147
  63.8685894  23.2672143  16.0011125  64.6044493  22.8643250  14.7412801
  11.7943796   3.7549299  35.9987068  12.4607024   4.2014152  36.5211034
  11.3236365   3.2080799  36.6276646  44.3415054  54.0696445  58.5162115
  44.5356020  54.5682755  59.3098879  43.5467847  54.4737330  58.1678391
  51.4766296  60.9491924  42.8574419  52.1817335  61.3485912  42.3479891
  51.9152578  60.5761543  43.6220837   2.7606425   8.5513121  55.7067394
   3.0270705   7.8745282  56.3290024   2.0319208   8.9986980  56.1368990
   5.7539686  65.6779835  27.4485874   5.8334907  64.7592470  27.1920133
   5.9207114  65.6787262  28.3911514  54.6530104  24.8037434  51.0144615
  55.3738880  24.5308208  51.5819883  54.3303251  25.6135583  51.4098167
   8.3063254  22.3543620  34.5013714   9.1588053  22.7452111  34.6930432
   8.5042319  21.4440846  34.2812371  47.1900702  22.8412652  35.1080585
  46.4127254  23.3614135  35.3115654  47.9243755  23.4310007  35.2790570
  60.5844593  11.7767143  28.9043474  61.1877823  11.0392547  28.9959335
  60.2643442  11.9359779  29.7922635  29.6228409  35.8341217  31.8847847
  30.3190017  35.2009559  32.0599699  29.5546889  36.3445282  32.6916742
  35.7451820  12.9167891  14.7956312  35.9459424  13.6530650  14.2178559
  35.5250597  13.3232021  15.6338477  45.4917860   6.8405795  56.4031172
  45.0318289   6.1990392  56.9445038  45.6082726   7.5982106  56.9764042
  64.4087934   7.8908122  38.1708908  64.6013689   8.3921713  38.9632201
  63.7600708   7.2440213  38.4484816  52.2045183   3.6628574  50.8764696
  52.8607750   3.9377952  50.2361822  51.6836452   4.4494313  51.0384178
   7.5950592  59.6434871  16.7250812   7.1385830  59.3870452  15.9237707
   8.3742397  60.1075116  16.4188182  38.9345773   6.7730273  58.6903678
  38.3601173   6.2046994  59.2034261  38.3953746   7.0540942  57.9511176
  45.7557663  49.3658057   6.5349817  45.4773696  48.4599939   6.6700071
  46.6391452  49.4020835   6.9018084  14.7392575  18.1035285  52.6438473
  14.1137187  18.8074307  52.4722217  14.4145696  17.3640244  52.1300934
  67.5588512   9.6062398   7.6111007  67.7525187   9.3327278   8.5077143
  68.4127665   9.6342295   7.1794987  10.3105482  28.7093677  53.2914625
   9.4352325  28.3266534  53.2316242  10.7839449  28.3424367  52.5448130
  49.4233084   8.4776270   1.5450595  48.4882402   8.5262418   1.3462840
  49.8545694   8.7624288   0.7393702  46.4361238  -0.0655594  61.5959311
  46.4200974   0.8170825  61.9659519  45.5149317  -0.3205279  61.5446424
  10.4454455  21.6984296  25.9073544  11.3150915  21.7061615  25.5074906
  10.4822478  22.3843360  26.5739965  17.2240655  54.2342811  45.6405411
  17.9113738  54.4722752  45.0182889  16.8575732  53.4211140  45.2931557
  43.6258316  11.6073620  42.5261736  44.3352222  11.2428999  43.0554771
  43.8532972  12.5315714  42.4245596   7.7329334  67.2630373   6.9362324
   7.0198830  67.1125236   7.5568259   8.5191067  66.9753346   7.4003327
  54.8255968  19.8702478  18.6132443  55.2446270  19.0238190  18.4576666
  55.1125240  20.4175162  17.8822148  26.4208540  70.9752935  22.1400476
  26.3530286  71.5787869  22.8799319  25.6450876  70.4192770  22.2125983
  70.3856134  15.0398016  12.9892778  69.9459267  14.3284833  13.4550381
  69.6972132  15.6868255  12.8353322   0.4260620  66.3995055  13.7608826
  -0.3146903  66.0903809  13.2393825   0.3868397  65.8802191  14.5640230
  73.4319592  36.9152188  36.0064816  73.7650061  36.3569593  36.7090917
  72.5155592  37.0686603  36.2364888  60.1071270  34.7532261  60.1685418
  59.4481380  34.1587918  60.5271695  59.8181279  34.9177750  59.2709698
  68.1037569  15.6014609  41.2584114  69.0249968  15.7381058  41.4794779
  67.7572441  15.0839090  41.9852543  49.7460079   0.2408607  55.9057331
  50.0398254   0.8271277  55.2084589  49.0396309  -0.2685622  55.5085516
  60.8267450  34.7929907  46.0705137  60.2117395  35.5146122  45.9391212
  60.6681108  34.5036983  46.9690561  28.2085228  33.8382363  35.6098366
  28.3447528  34.5113373  34.9430466  28.7008238  33.0818963  35.2907467
  60.4073620  17.6156044  23.6023903  60.7798195  16.7969751  23.9300418
  60.8842850  18.3003390  24.0713429   0.5922350  20.5551720   9.1466612
   1.5411600  20.4338145   9.1791469   0.3507218  20.3163028   8.2517624
  50.5493879  24.2346334  12.6439810  50.6699419  24.3857026  13.5814655
  51.4299011  24.3039727  12.2750318  67.8027058  19.8934865  22.2515512
  66.9561291  19.6584070  22.6313901  68.3517599  19.1225708  22.3945880
  60.1563406  27.7140903  15.2490950  59.2262459  27.5442314  15.0997448
  60.2173901  28.6666632  15.3205740   7.8758145  15.0722681  10.9377529
   8.0921078  15.9407292  11.2772085   7.8789473  14.5058929  11.7094042
   3.6569247  13.1593299   9.5149916   4.2442068  13.1551349   8.7591344
   3.3470949  12.2561896   9.5825833  50.2777433   1.9664729   5.2389807
  51.1053610   2.4473569   5.2333641  49.6321201   2.5971398   4.9201366
  48.3242115  52.9247490  15.3756106  47.7043088  53.5853258  15.0664222
  49.1842731  53.2792250  15.1500702  77.7764893   7.9663879  29.4631219
  77.8807402   7.5881279  28.5900354  78.2275105   7.3543739  30.0447130
   7.9797228  73.5688405  39.0117908   8.5261639  72.7832195  38.9909315
   7.7421864  73.6709719  39.9334073  69.0623713  27.1032119  26.6955900
  69.2458963  28.0112028  26.9366312  68.1073284  27.0402741  26.7086959
  38.5666990  12.8248501  57.0561886  38.2348061  12.8238940  56.1583710
  38.1203771  13.5603762  57.4757481   2.3772701  64.7043982  33.0374360
   1.8152531  65.4156229  32.7299833   1.7859944  63.9584497  33.1383634
   1.4755316   4.4025066  17.1639299   0.6370655   4.1782981  17.5675845
   2.1318039   4.0235463  17.7486753  31.2478399  15.1702368  12.2115839
  30.9938574  14.2481279  12.2495472  30.5340791  15.5959058  11.7366278
  41.1016035  21.7530870  24.4859695  40.9768391  22.5901413  24.0387511
  41.2696171  21.1276484  23.7811089   0.7482657  43.4378338  10.3516710
   0.6275639  42.5006628  10.1988101   0.3209957  43.6003208  11.1926639
  51.3415021  61.4672259  50.0384808  51.0256179  62.1604374  49.4589043
  50.6172993  60.8428267  50.0819349  63.7133821  65.0667516  15.0833559
  63.9908155  65.1796225  15.9924889  63.7262853  64.1197178  14.9448216
  46.3248682  25.1782227  10.3616595  46.4055109  26.1183572  10.2008033
  46.4281225  25.0875854  11.3089466   1.1847027   4.2265119  56.7156808
   0.8792480   4.5276536  55.8599685   1.8479451   3.5663117  56.5145091
  65.8217907   6.5628141  50.3486109  65.6770706   5.6193310  50.4202223
  66.7474651   6.6800320  50.5621910  62.2228909   0.5991150  47.3038244
  61.6665888   0.7404383  48.0698442  61.7249393   0.9688003  46.5747118
  66.3163471  24.2242169  25.0134778  67.0233154  24.3129301  25.6526637
  66.6733456  24.5983982  24.2080140  22.3086214  31.7741513  13.8893735
  21.7310333  32.4270415  14.2847943  21.9664574  30.9344912  14.1961741
  50.5271101  26.5502357  50.2481270  50.1881409  27.2853279  49.7372723
  50.4490089  26.8350887  51.1586142  26.1053205  10.7245731  13.1810510
  26.5453291  11.5735245  13.2247341  25.1724005  10.9364116  13.2128823
  48.6993313  30.0736308  44.4570589  48.7914896  30.9263015  44.0319777
  49.3311453  29.5123816  44.0075636  77.9329157  20.2781034  20.9208202
  78.0035782  20.4339480  21.8625998  77.4322557  19.4654047  20.8494353
   4.7961172  73.1890706  11.6622543   5.7307800  73.2276383  11.8651092
   4.5481309  72.2831807  11.8469131  61.4835350  24.7010981  10.4259016
  62.1842877  25.0985871   9.9090053  61.0296933  25.4433881  10.8249809
   9.5563108  15.7649279  42.4459982   9.7096241  15.6407642  43.3826447
   8.7871766  16.3330531  42.4024343  65.2268553  28.8217449  14.1453755
  64.7164202  29.5692229  13.8339794  65.4326868  29.0347791  15.0555849
  24.0126419  33.1737661  28.3790159  23.8734317  32.6141644  29.1430163
  24.4794607  33.9357352  28.7221122  62.2275734   2.5673404   2.7750477
  61.5151691   2.8614232   3.3426991  61.7881680   2.2305253   1.9942090
  42.8024769  28.0310130  12.5649643  42.5829649  28.5292697  13.3522296
  43.7593746  28.0303884  12.5409567  24.7246440  66.4987555  31.3359642
  25.2395090  67.2376600  31.0116720  24.1083845  66.8897161  31.9553232
  41.4024544  21.5108943  60.0785351  42.1710157  21.1861253  59.6094179
  41.7315912  22.2435069  60.5992842  69.7937333  69.7193924  25.6671143
  69.6681237  69.2248464  26.4769769  70.7368945  69.8777244  25.6269979
  20.5708679  68.7833992  48.2634926  20.5950292  67.9098907  48.6541700
  19.6404680  68.9552084  48.1183529  52.3855957  70.5909878  18.3259034
  52.2635349  71.0155225  17.4767244  53.2284864  70.1435942  18.2510579
  57.6388168   4.6695241   0.4976483  57.5985479   3.7142414   0.5428733
  57.2615147   4.8850423  -0.3552466  36.7196035  29.4975281  19.3295646
  36.5455794  29.0890837  20.1775742  37.6176429  29.8213625  19.3994772
  37.6475112  61.9463735  59.2532502  38.2441775  61.2050681  59.3566324
  36.8002288  61.5463667  59.0574609  68.5287237   6.9792491  22.5281620
  68.8219309   7.8350520  22.8409958  67.6387215   6.8915510  22.8693819
  37.9302955  16.7826033  24.3818665  37.6871610  16.1550188  25.0624943
  37.8459692  17.6378083  24.8034620   5.8577761  14.0948546  28.2666111
   5.8571181  14.8260605  28.8843250   6.1042342  13.3354640  28.7946439
  72.7366152  15.2626038  38.6692071  72.3134211  15.7254326  37.9460692
  72.3105630  14.4056380  38.6870933  58.3219910  20.7290745  46.2851000
  58.5941315  21.0223436  47.1546793  59.1363764  20.4699802  45.8539677
  55.7418299  39.8532772   5.9105474  56.0079432  40.7682562   5.8198518
  55.0650597  39.8666334   6.5873301  65.2459002  22.9722643  40.0247145
  65.4884863  22.0661950  40.2155638  65.1224184  23.3734345  40.8849716
  34.2855263  16.9145131  33.3502293  34.4492221  16.1289704  33.8721085
  34.6368527  16.7046940  32.4849105  46.0546049  73.0586566  62.1752405
  46.8012127  72.5635438  61.8380880  46.2363561  73.1595148  63.1095982
  55.3811121   2.0131999  35.5731678  54.4368172   1.8603148  35.5390811
  55.5485058   2.6364666  34.8662376  54.8829229  53.3816366  62.5779889
  54.2312057  53.6668162  61.9375446  54.4931920  53.5925012  63.4264454
  40.2918673   9.2393488   1.0412905  39.6820402   9.9593133   1.2025223
  40.9858227   9.3637204   1.6887373  66.5371084  29.2432833  59.5031214
  65.6152821  29.0633702  59.3184471  66.6626978  30.1525903  59.2317867
  57.7637537  53.2937794  59.3829731  57.4595125  52.9114847  60.2060897
  58.0950530  52.5491075  58.8810406  30.0904068  71.4058492  20.6972551
  30.3616985  71.1232609  19.8238838  29.5848163  70.6693441  21.0410118
  53.4871101   1.2194436  59.1704035  52.7049828   1.5152349  58.7045574
  53.2219696   1.1911287  60.0897121  49.8500236  58.8171807  45.3581858
  49.4634040  59.6097234  44.9858475  49.7021946  58.1438235  44.6941280
  67.1854305  27.7909780  48.6564207  67.6759005  27.8932667  47.8408146
  67.7699614  28.1345034  49.3321037  39.8589611   2.3534773  45.4329157
  39.4607139   1.5054625  45.2366924  40.7690477   2.1471304  45.6459808
  54.6114302  18.1988263   0.3162739  54.4680023  18.1371593   1.2606558
  55.0738049  17.3915434   0.0910203  44.6936417   6.6851443  48.8021755
  45.2263927   6.4443189  49.5600796  43.8967323   7.0586616  49.1785383
  71.9019043  54.6311501  23.2548833  72.5126361  55.3635696  23.3373427
  72.3503804  54.0086034  22.6825738   0.1172957   4.2105907  11.8538475
   0.2962193   4.6352553  11.0148728   0.9397492   4.2814636  12.3383844
  61.3596058   6.0508168  27.5878787  61.7062664   6.0640216  28.4800005
  60.8873606   5.2204716  27.5266910  50.9972048   8.8535100  30.5094838
  50.8523703   9.4930327  29.8121572  50.5331326   8.0695748  30.2156925
  50.9879971  20.5607724   7.9049116  50.1239538  20.9406734   8.0640864
  50.8626270  19.6200132   8.0293512  50.2547693   1.9099034  49.8112202
  50.9705830   2.5165206  50.0005865  50.6691504   1.1928014  49.3313408
  39.6288189  64.4571314  44.5358086  39.5083507  64.1081611  45.4189491
  39.4229492  65.3884718  44.6161413  15.9792456   8.6518162  27.8834653
  16.6076884   8.3617574  28.5446405  16.2446818   8.1962520  27.0845675
  67.5885089  53.6626046  63.9782385  67.0603831  54.4431345  64.1458324
  67.4063285  53.4417312  63.0648613  52.4998601  60.0951043  11.0316575
  52.8245433  60.0366024  10.1331079  52.9278549  60.8722964  11.3908553
  38.3063778  73.6181329  22.6354170  39.0686019  73.4371488  22.0854235
  38.1521162  72.7999738  23.1076980   4.2060122   4.1707444  56.7714453
   4.4422087   3.5573107  56.0756445   4.2896017   3.6619362  57.5778913
  67.6863512  73.0621006  21.5502524  67.7869543  72.4380644  20.8314395
  68.2548746  72.7241129  22.2421885  35.8909178  25.2780437  35.7105589
  36.1296344  25.9076738  36.3908601  35.0615263  24.9053025  36.0095692
  49.3774843  14.8058212  34.0005827  49.0542793  14.0857708  34.5421505
  49.1958857  14.5300019  33.1021523  50.2690172   5.7765859  29.4471240
  50.6304359   6.4400220  28.8593650  50.1197290   5.0154370  28.8862348
  39.6672948  64.2583207  17.3878598  40.5982860  64.0603707  17.2863615
  39.6473869  65.1632890  17.6990962  19.2660206  10.2304305  46.9265149
  20.1630466  10.3005351  46.5999113  19.3618458   9.9064578  47.8221105
  21.0323636  27.6688557  62.2645463  21.2865893  28.1611781  61.4840208
  21.6034667  26.9007080  62.2597719  30.5950006  70.0525612  18.4439361
  29.7937997  69.5300886  18.4804726  31.1221584  69.6353281  17.7625763
  62.1353912   6.4110142  30.2963185  62.6148844   6.3745761  31.1239624
  61.3494492   5.8871675  30.4515862  75.2611923  52.6334858  31.9095516
  75.4470539  52.0663548  31.1611867  74.9780798  52.0339441  32.5999355
  20.8294138  25.3167486   8.2914692  21.6405806  25.5873942   7.8613746
  20.2190718  25.1555109   7.5719392  40.5849441  57.3996237  14.8815787
  41.3777431  57.9168776  15.0235236  39.9722704  58.0085996  14.4692564
  61.1642615  50.3512214  24.4026424  61.2698952  51.1024724  23.8189461
  61.5145437  50.6490778  25.2421715  72.7715111  13.8641000  35.4365087
  73.7042570  13.6524272  35.4740834  72.3511553  13.0471826  35.1678514
  63.4154415  41.1632204   3.5617614  63.8793612  41.7884445   3.0048922
  63.0232382  40.5414963   2.9486790  32.8969415   1.9398226  38.7390755
  33.1289276   1.0135020  38.8049792  33.6299976   2.3999895  39.1478608
  62.6024532  26.6989946  19.2126369  63.0710888  27.4424338  19.5919943
  63.1800556  25.9504175  19.3617749   0.8313021  16.6315222  39.7353482
   0.6536564  15.6915247  39.7681737  -0.0000873  17.0231950  39.4677424
  56.9956827  47.9730177  18.0578303  56.8075895  47.6818752  17.1655917
  56.6413260  47.2804213  18.6154807  67.8413820  16.5383708  38.4556222
  67.8408957  16.3299310  39.3898511  68.3502531  15.8344376  38.0534291
  44.4179010  46.3701963   9.5297301  45.0037098  45.8096027  10.0384462
  44.1372108  45.8213425   8.7974697  73.8444710  43.6097860  24.1606665
  74.3384218  43.0211830  23.5898900  73.7334442  43.1174278  24.9739861
  64.2059565  38.2612634  24.2756248  64.1694927  39.2030001  24.1081858
  64.5378304  37.8856754  23.4601355  39.5692968  39.0296674  11.0080588
  39.9768686  39.4033909  10.2267480  40.0476694  38.2148576  11.1612833
  43.0478954  47.1689272  12.0820582  42.4517298  47.8925896  11.8893433
  43.4802771  46.9861746  11.2478662  74.9114180  46.7321253  37.2573733
  75.4531670  46.2772560  36.6125178  75.2548218  47.6254988  37.2712255
  74.8960209  32.0281935  12.7043593  74.0175104  32.3130560  12.9559755
  74.8821163  31.0781384  12.8202546  57.7794488   7.8271188  49.2563329
  57.1532377   8.3754958  49.7289596  58.3556875   7.4801291  49.9373482
   3.6083063  19.7708762  22.3716784   3.7100157  19.2470264  23.1663275
   4.4865736  20.1063871  22.1919346  48.5336447  30.4463315  10.7679927
  48.5833597  30.5797696  11.7145419  47.6204205  30.2088189  10.6072342
   4.3000190  68.8703422  37.4973963   4.5919149  68.1763010  38.0884407
   5.0548761  69.4540911  37.4221729  43.9189482  16.9603515  40.2035332
  44.3617582  16.7344022  39.3855476  43.0493116  16.5689707  40.1211452
  50.6668329   6.1459339  16.9334316  50.4402018   6.0005766  17.8519857
  50.3524160   7.0304275  16.7462337  71.7419434  30.3804779  31.1879706
  72.1338034  30.6696749  30.3639293  71.3133907  31.1621141  31.5367079
  11.2518439  51.4877653  37.6214623  10.5323920  51.4584255  36.9907880
  11.9503531  50.9773064  37.2118855  64.1668034  32.1205902   3.5128969
  63.8342905  32.9216003   3.9179325  64.4048214  31.5598369   4.2512298
  69.9565935  23.6404037  18.1079090  70.6726599  23.7851739  17.4894261
  69.1702890  23.6163068  17.5625849  35.6539504  59.2992644  59.5946525
  36.1298720  58.9739041  60.3587718  35.3606479  58.5091476  59.1408674
  58.2848120  32.5568795  60.8815241  57.7420950  31.8414855  61.2130308
  57.7287769  33.0032396  60.2429152  68.4511137  50.9048462  53.5700321
  68.6275053  50.0981474  53.0859375  67.6219130  51.2223196  53.2124472
  51.0080957   6.0314244  51.1975479  50.8037233   5.7260430  52.0814085
  50.1585007   6.0834515  50.7596922  60.5975485  20.2280498  45.1750278
  60.8853340  20.1903486  44.2628908  61.2290573  19.6861017  45.6480169
  62.2216320  36.8691921  57.1718359  61.3574219  36.5373445  57.4152470
  62.7918625  36.6044927  57.8936434  24.2959897  66.3250761  45.4789684
  23.3920400  66.6013460  45.6299041  24.8122995  67.1232181  45.5913184
   4.7514567   2.3146853  21.1079025   5.2586588   3.0655849  21.4163327
   5.3917727   1.6069822  21.0345721  22.5774194   2.9886326  45.5158806
  22.2678614   2.1391949  45.2014637  22.5121499   3.5643372  44.7539520
  64.8623037  10.7350361  35.0108600  65.5435896  10.8859861  34.3556547
  64.1817188  10.2522492  34.5418644  65.7810736  55.6463814  63.7052298
  66.1429977  55.6385517  62.8191280  65.8892202  56.5505743  64.0001392
  25.2280363  27.6078033  29.5890284  26.1588415  27.3886466  29.5465112
  24.9582228  27.3376536  30.4667830  63.5641193  12.4481905  36.7305112
  63.0985641  11.8732738  37.3379326  63.9461327  11.8545878  36.0840368
  36.8886598  66.2973646  26.0755467  37.8281148  66.2476275  25.8989573
  36.8280634  66.7192111  26.9326377  11.9625220  23.3538866  20.3869200
  12.8003439  23.5916901  20.7840776  11.8540701  22.4257159  20.5942059
  43.9628410  12.9706419  57.7377653  43.9454031  12.0217764  57.8626013
  43.0596924  13.2000577  57.5188589  30.1027807  12.4251594  61.5981568
  29.1908058  12.6556624  61.4209468  30.2238687  12.6234950  62.5267221
  44.1288376   1.8910411  18.3127511  44.3080330   0.9859368  18.5675180
  44.4382954   1.9512087  17.4089551  58.1803656  42.1883678   5.0135767
  57.5355387  42.8099489   4.6758354  58.2075453  42.3592615   5.9550059
  47.3302698  14.8873043   9.8003227  48.2149982  14.5487618   9.9377131
  47.4605322  15.7230890   9.3522954  22.9051845  66.3691049  50.1840077
  22.3379819  66.6774540  49.4773005  23.3207814  67.1627383  50.5211328
  75.1476431  21.1084962  21.2819910  74.5323801  21.6100693  20.7471037
  76.0113001  21.3728261  20.9650350  53.5564837   5.5575496  14.1868329
  54.1370901   5.6116492  14.9459124  53.8122877   4.7468266  13.7469232
  70.6490469  10.4469287  42.5379705  70.4090881  11.0137236  43.2710409
  70.5521488   9.5583868  42.8805113  15.1350817  13.3807790  31.5490270
  15.5594763  13.1692994  30.7175255  15.7199320  13.0195487  32.2151279
  64.0437508  30.8624578   1.0680915  63.8532162  31.4092016   1.8303259
  63.2473135  30.3478479   0.9373549  49.0733671  54.6030331  31.2393928
  49.0182161  54.2160320  30.3656530  49.7762251  55.2492332  31.1712003
  32.3325190  44.8168087  22.2336602  31.9421419  45.3152514  21.5157533
  33.2653746  45.0271606  22.1917915  62.7032566  20.4468393  15.1485586
  62.5352526  20.0718093  16.0130572  63.0637455  21.3148117  15.3299558
  10.2617367  68.3642826  42.9376793  10.8389100  69.1193188  43.0518103
   9.5378145  68.6944631  42.4055672   7.5375383  51.1458032  61.6769233
   7.8669374  50.3279536  62.0495495   6.8617360  50.8714979  61.0570179
   4.7376952  53.0506277  12.5755930   4.8929629  52.3128223  13.1653130
   3.9818606  53.5023403  12.9509723  56.0430241   7.7105221  43.8936520
  55.3235818   7.0983299  44.0480947  55.7507039   8.5294804  44.2937708
  14.6701162  53.0892317  53.8116239  14.8743360  53.2418697  54.7342436
  13.7954776  53.4603326  53.6953400  52.1957588  50.7267857  18.7710357
  52.1630812  50.8252954  17.8194797  51.2783289  50.6656647  19.0371466
   9.1132769   7.7213317   8.4372973   8.2511458   7.5618452   8.8213813
   9.5026240   6.8509734   8.3529425   7.7385268  19.3058825  46.3669586
   8.4742483  19.3979490  46.9723177   7.2628626  18.5377681  46.6831541
  78.0485582  39.7617507  55.1769733  78.3909702  39.5576453  56.0472202
  77.4934959  39.0137362  54.9564934  69.6997976   6.0382986  24.8027587
  69.6744871   6.8244308  25.3482723  69.3518925   6.3220906  23.9573836
   5.5904517   0.9209957  29.6638870   5.1136431   1.1077994  30.4725862
   5.0810084   1.3552824  28.9797115  55.4077967  72.5569086  37.9186652
  55.7041891  73.3474140  37.4675725  55.6692775  72.6888685  38.8299535
  40.2508402  24.8906827  13.7474763  40.1198006  23.9437890  13.6979592
  40.6068420  25.0377107  14.6237624   9.8912097  50.9399532   0.7840444
  10.0718451  50.7415949  -0.1347874   9.1872407  50.3378521   1.0251476
  77.4597120  53.1146336  49.8479700  76.8852139  53.0807352  49.0830946
  78.1182814  53.7721443  49.6239138   4.2480501  22.9707932  20.4683733
   3.3416209  22.7655816  20.2392316   4.3629965  23.8818741  20.1982808
  72.0381117  29.7531199  47.9194403  72.2999287  29.1584873  47.2165251
  72.1671438  30.6281233  47.5534487  51.1854649  23.9126062  46.4426184
  50.5978107  24.6293306  46.6817808  50.8288479  23.1489348  46.8963337
  34.3871149   8.6197609  51.5708113  34.5416579   9.1231918  50.7714939
  35.2566561   8.3221424  51.8383074  15.9545359  12.8692329  18.8678694
  15.2979121  13.2508028  18.2852197  15.9775671  11.9427001  18.6286223
  36.0882251   3.7198491  11.3439276  35.9726445   4.6552510  11.1769153
  37.0323484   3.5788150  11.2733652  13.7937578  15.7239890  32.1366334
  13.9354643  14.7774196  32.1491766  12.9729113  15.8369553  31.6573811
  67.1190119  38.4375095  35.6441236  66.5955734  37.9660773  34.9960566
  67.6044989  37.7526212  36.1039805  42.5653458  30.9370017  12.9409754
  42.5837564  31.8553615  13.2102525  41.6549063  30.6690621  13.0656207
  39.4354185  71.3917098  18.9053535  39.5857509  72.2406060  18.4894133
  39.8579963  70.7611034  18.3222616  74.4506598  15.4953754  12.1468282
  74.1465569  15.5233467  13.0540049  75.2554941  14.9782813  12.1798503
   2.9895052  18.7459481   0.5989812   2.9216418  18.9603496   1.5293884
   3.8350806  19.1059315   0.3312993   6.8236098  40.6701374  23.7443042
   6.8474802  41.0932398  22.8860211   6.6757139  39.7444081  23.5509562
  24.7447109  52.4009657  12.5753045  25.1365089  52.8578568  13.3196008
  25.0191212  51.4901638  12.6819324  49.8715687  11.1618304  36.9617581
  49.8853636  10.6986308  37.7993059  50.7943296  11.2592363  36.7266989
  49.3765593  19.2904794  20.8821774  49.3446159  19.7523308  21.7199755
  50.1743603  18.7636745  20.9293628   1.6570982  32.5477815   5.6316990
   1.1640009  32.1802402   4.8982129   0.9975228  32.9902196   6.1659676
  71.7024136  25.2264547  41.6831112  71.0701799  25.6595612  41.1095810
  72.5115967  25.2020025  41.1723709   6.4750037  25.5173755  14.4645393
   6.0808405  26.2002730  15.0072372   7.3507342  25.8471704  14.2631423
  73.5589059  69.7682396  42.5058889  72.6056417  69.6878857  42.4731636
  73.7356504  70.1801372  43.3516598  35.1607728  61.3406467  29.9375749
  35.9860134  60.9892559  30.2718425  35.1350784  62.2409725  30.2615952
  27.6877944  54.4970660  56.4499788  27.0175473  54.0457027  56.9630824
  28.4790485  54.4387572  56.9854609   1.9634661   8.1573778  31.3346100
   2.8990683   8.1038409  31.1396289   1.8896136   8.8804281  31.9574881
  61.7621517  38.1014109  46.1805010  62.2141933  37.4093366  45.6978750
  60.8459949  37.8244829  46.1945391  69.0371227  45.3163433  24.9075031
  68.3555508  45.3623486  25.5780077  69.7325850  45.8876562  25.2333236
  11.4218935  12.7430224  22.3253226  10.6753382  12.6217937  21.7386556
  11.4528403  13.6868572  22.4816942  11.9382573  20.4658543  20.2630760
  10.9956599  20.3065585  20.3116848  12.0867778  20.7511245  19.3615200
  55.7951403  57.1603251  -0.2009800  55.2393532  56.4448309   0.1078985
  56.5143394  57.1943712   0.4297528  75.0086546  73.4522200  26.9355583
  74.1192150  73.6460924  27.2314405  74.9060154  72.7123928  26.3369346
  24.3683943  13.4224629   2.6335973  23.5781607  13.4649420   3.1720787
  24.1692766  12.7644718   1.9675404  76.0705137  29.3445230  42.0909309
  75.5277061  29.5405555  41.3272762  76.4351320  30.1910138  42.3492718
  77.6137686  62.2196293  37.5359273  78.1277752  62.2259235  38.3433867
  76.7079544  62.3222637  37.8278184  67.3680671  37.5448188  53.7292336
  67.2113068  38.4624176  53.9521025  68.3213075  37.4578484  53.7291179
  68.5937405  42.3701429  45.5191040  68.7449741  41.5607738  46.0072470
  68.2511330  42.0796013  44.6738577  62.3715353  15.3102899  60.1400375
  62.9122782  14.8068070  59.5314884  61.4818001  15.2236676  59.7978401
  39.6892762  24.2223310  17.7746165  40.5941916  24.5343399  17.7773333
  39.2591572  24.7290206  18.4634531  61.8800385  31.5244125  61.1068143
  62.1312030  32.3908763  60.7868306  61.4823730  31.6907154  61.9614702
  77.3858070  49.5559359  16.7074871  77.6432991  49.6076488  15.7870221
  78.0274582  48.9658785  17.1029031  69.9920893  62.7979660  21.7355108
  70.7182550  63.0430841  21.1620736  69.7380686  63.6157608  22.1632004
   4.5847544  25.5022264  19.9215448   5.1311144  26.1691403  20.3374100
   4.7946963  25.5673933  18.9899290  62.0039749  44.1677761  14.2692566
  62.4481630  44.4110727  13.4570158  62.1533489  44.9096251  14.8554122
  64.3226194  24.7519565   2.8717211  64.1010046  23.8345337   3.0312645
  65.2737713  24.7534060   2.7642837  68.3539343  62.2078037  46.6966105
  68.3501625  61.2508678  46.6744232  68.6878586  62.4258852  47.5667667
  61.0837793  40.6692123  61.2196255  60.8206367  40.6470633  62.1396780
  61.8729210  41.2108612  61.2091827  26.6569185   0.8053330  38.2242250
  26.1395168   0.0945507  37.8456545  26.4459777   0.7842744  39.1576552
  65.2684593  37.3881555  18.2167482  66.0378933  37.6293564  18.7325239
  65.5694628  36.6712475  17.6584744  62.2459173   3.6765307  15.8143020
  61.3764524   3.3682039  15.5589509  62.5227118   4.2387715  15.0907671
  64.2892408  41.8851233  61.0362911  64.4346857  42.4925709  60.3109741
  64.2958260  42.4385977  61.8172264  42.3106702  69.3848026  10.0643337
  42.3859199  70.2863813  10.3769433  42.1543201  68.8692317  10.8555174
  56.6493416  40.8241749  34.4878602  56.0654736  40.2552414  34.9895024
  56.5366697  41.6895437  34.8811436  48.5416937  14.4668412  31.4832926
  47.9766417  15.2387953  31.5154314  48.1865740  13.9397120  30.7675719
  46.4640427   4.5798286  40.4362774  46.5367413   5.4338488  40.0101376
  46.9171620   3.9780983  39.8456573  78.2835150  44.7762537  59.7257948
  78.0751610  44.8784781  60.6544352  77.4314404  44.7530365  59.2902946
  54.8654254  68.0264382  62.4004188  54.2623384  67.9772572  61.6587311
  55.0634773  67.1134810  62.6090222  66.4598656   4.1365391  52.3442173
  65.9774923   4.2306399  53.1656122  67.3598623   4.3751132  52.5663090
  17.7018103  28.8741064  24.1171360  16.9912562  28.3084154  24.4193578
  18.4817442  28.5339642  24.5555902  14.3516875  26.9547066  33.9468193
  13.7923575  27.6654991  34.2601299  14.9783135  26.8125233  34.6562982
  68.3430482  55.6833063  21.2487652  68.4120751  56.6344546  21.3311436
  69.2041970  55.3571473  21.5100719  18.7516165  52.4660669   7.1740009
  19.1029549  51.5783011   7.2422888  19.5204068  53.0331706   7.2338535
  45.6226587  51.5133047  12.1928680  45.4264450  51.7477322  11.2857985
  46.2804222  50.8212709  12.1244788  69.3974876  57.5641441  16.4340472
  69.7445202  58.3479595  16.8599927  70.1525497  56.9814634  16.3528657
  64.1897774  16.5759814  14.0426648  64.1468287  17.3945916  14.5368958
  63.3859777  16.1121559  14.2771900  12.4946627  12.1154904   6.2864888
  12.0351347  11.3077080   6.0572428  11.9282564  12.8143537   5.9593636
  22.3155245   7.7547741  36.1145997  23.0742297   8.3358711  36.0605216
  22.3365912   7.2566998  35.2974629  72.8004742  37.5222468  21.7180729
  73.2817650  36.8278432  22.1679568  72.7429724  37.2243762  20.8102179
   1.8869337  27.4618697  63.0807018   1.8413195  28.3114529  62.6421118
   1.9673571  26.8282723  62.3677349  72.2640705   2.4326377  35.9482932
  71.6308641   2.6939574  35.2797174  71.8522263   2.6774687  36.7769527
   6.0839781  23.0594969  13.2219577   5.1301798  22.9827762  13.1973898
   6.2511477  23.7717938  13.8391447  76.9931936   9.4739777   6.1398292
  76.9919395  10.2336657   6.7221558  76.2585640   9.6265805   5.5454677
  37.2888470  53.0919670   0.6506492  37.1881295  52.8211711  -0.2619074
  37.3434926  54.0468441   0.6124927  65.2889347  39.4682097  49.7291422
  66.1456347  39.0952969  49.9370623  64.9758244  39.8267198  50.5596018
  63.3381844  30.5755448  12.8199804  62.4106884  30.5992961  12.5845730
  63.4042883  31.1397982  13.5903585  60.6694603   7.0418602   4.7548512
  60.8463335   7.9491699   4.5063818  59.8084831   6.8545961   4.3808445
  23.4544389  64.0101008  44.3140815  24.1433732  63.4379988  43.9759968
  23.8895099  64.8507886  44.4561670  62.0158958  28.6531687  32.8830743
  62.3123264  27.7910995  32.5911856  61.1291456  28.5032225  33.2108235
  77.8207874  55.4228830  22.8090000  76.9734383  55.8343649  22.9790401
  77.7305174  55.0405312  21.9361377  59.0001202  18.4752059  49.0713835
  59.6488190  17.7736890  49.0139389  58.2593155  18.1593537  48.5540056
   2.8896078   6.2634742  37.3085260   3.6224589   6.0656524  37.8916454
   2.1120676   6.1576205  37.8566551  52.4195385  44.4761324  30.1346588
  52.9689217  45.2207756  30.3794360  51.5365887  44.7319794  30.4014397
  60.7957840  32.0695662  17.7696466  61.3986588  31.5043449  18.2526553
  61.0392427  32.9577732  18.0305111  64.0859365  66.2757015   2.9253760
  64.7715950  66.4055777   3.5805345  63.9078045  65.3355026   2.9482481
  68.4591103  16.1724842  44.9614048  68.0290222  15.4499042  44.5040894
  69.3759918  15.9047139  45.0235224  17.5395998  10.8621466  25.9853363
  18.1053194  10.0918555  26.0387111  17.2203097  10.9872019  26.8790054
  32.3200274  45.4494667   5.8657855  32.2451210  44.5013142   5.7579690
  32.3635006  45.5801153   6.8130302  69.2681885  48.6725807  11.7029405
  69.5531321  47.7605104  11.7592287  69.9341631  49.0987015  11.1633801
  75.9067154   2.9931617  10.0794172  76.3414431   3.5081396   9.3996811
  75.3840590   2.3525295   9.5970774  75.6497145  67.2944689  25.1079774
  75.1403952  67.4914885  25.8941126  76.4254570  66.8377829  25.4333901
  25.9960294  26.7194390   8.2288718  25.7264972  26.6366386   7.3141426
  26.3230872  25.8505225   8.4617871  70.4719639  17.3678350   8.1884980
  70.6451559  17.6666665   9.0812099  69.8554230  18.0098128   7.8363985
   6.1382517  20.2129793  10.4491127   6.9937166  19.8639119  10.6992400
   5.5208620  19.5161796  10.6716681  15.1889722  39.6339946  63.0802761
  16.0397069  39.8711841  62.7111836  15.4007976  39.1449869  63.8754078
  12.5336584  54.6680593  51.4508867  12.3276076  54.0017080  50.7953358
  12.5256380  55.4926825  50.9649181   4.2024741  35.3467536  21.9768095
   3.9112601  35.4177618  21.0677528   3.5637316  35.8581042  22.4735665
  31.9135571   4.3713459  49.1309595  32.8165055   4.3084320  48.8195944
  31.7695046   3.5575804  49.6139431   8.7950548  50.8835554  21.2602043
   8.8159785  51.5846825  21.9115186   8.5087141  51.3136339  20.4544306
  10.2350363  71.6239691  13.2774663  10.5046686  72.5216913  13.0834866
   9.8949560  71.6638803  14.1713274  75.7476807  56.7251492   7.7683806
  75.0749207  56.3241339   8.3186620  76.1815453  55.9854460   7.3431325
  70.1728344  59.4818592  18.6139715  70.5205870  58.6000586  18.7471306
  70.8868170  60.0630093  18.8761330  26.0368777   9.4476303  24.2650390
  26.1088515   8.5998138  23.8265514  25.9275580   9.2299923  25.1907349
  10.6943831  29.0003419  10.9948075  11.2296423  29.7515106  10.7389343
  10.7291445  28.4131432  10.2396762   8.8101038  19.8132503  11.2824309
   9.5581087  19.2944074  11.5782762   9.1522440  20.7037902  11.2042522
  57.0212460   4.2922962  27.0319748  57.1163416   3.3797947  27.3049760
  57.2815990   4.8005098  27.8002000   0.3915724  62.5550842  26.5093613
   0.9724697  62.8992701  25.8308864   0.7425675  61.6868401  26.7073274
   0.7328924  40.3473330  20.2264667   1.6626105  40.3771973  20.4522395
   0.4799446  39.4358945  20.3731894  44.0429497  16.6412815  24.0598488
  44.4817734  15.9298214  24.5262098  44.7342206  17.2829804  23.8967419
  68.8165712  29.4716215  42.4893665  69.2287159  29.2778015  41.6474628
  69.2046356  30.3036952  42.7600956  16.9041857  11.8753791   6.6449875
  16.0445055  12.2118759   6.3920963  17.5245032  12.5122476   6.2902522
  50.3250122  17.7579761  40.6137800  50.4650450  16.9649649  40.0963306
  49.5260096  18.1417465  40.2524662   7.7175650  63.1193972  47.8032494
   7.3314986  62.4912167  48.4136343   8.2127508  63.7206316  48.3596134
   8.8856062  50.9459496  13.6546767   9.0300211  51.7303753  14.1838741
   9.6019396  50.9501123  13.0197918  70.5446482  30.0489378  27.9147577
  71.4369440  30.3900838  27.8542686  70.5088758  29.6222615  28.7708545
  66.6818714  26.5937424  14.7989976  66.1846876  27.3682451  14.5359600
  66.1094666  26.1405158  15.4180074   8.8321909  43.1465960   8.8194811
   7.9605040  42.9865360   8.4578514   9.2399153  43.7537479   8.2019335
  11.1390337  57.6414204  20.6466746  11.0027251  57.6764870  21.5934706
  10.5968985  58.3501530  20.3002334  32.7223111  26.2933716  14.1728497
  33.5889722  26.0133728  13.8783550  32.8367997  26.4882645  15.1029778
  76.2606509  60.6976085  25.3905175  76.5955861  60.5354528  26.2724231
  75.8795054  61.5744452  25.4365347  68.5312653  43.7090588  38.6901498
  69.2873859  43.1466770  38.8581991  68.5255098  43.8250685  37.7400231
  19.9938632  13.7237438   7.9595089  19.8825408  13.2313236   7.1462661
  19.6563102  13.1415161   8.6401659  24.3244585  28.1627178  19.1696978
  24.6716818  29.0099740  18.8907170  24.8320135  27.9412031  19.9504375
  68.8547961   1.0948558   3.4793426  68.5636108   0.6426401   4.2711403
  69.2680328   1.8966336   3.7996818   9.4048724  48.2538700  20.5157590
   9.7398218  48.4216785  19.6349192   9.1206202  49.1116714  20.8313656
  66.9550689  62.9046922  54.1259031  66.2413533  62.3452358  54.4322507
  67.2512467  62.4923091  53.3144520  58.8487053  28.9372349  43.5367107
  58.6995554  28.5656834  42.6672649  58.0415249  28.7536478  44.0173244
  29.5492173  60.9698807   4.0829183  29.3294621  60.0537883   3.9134504
  29.1322709  61.1648999   4.9221803   6.0438761  11.6666412  30.5923510
   6.4752516  12.4042249  31.0237598   5.1215681  11.9193935  30.5510378
  52.7994967  34.6967030  37.3904872  51.9730759  34.2711878  37.1620202
  53.4706354  34.0514755  37.1680236  24.3761174  70.8202033  58.9853327
  23.6913840  70.1542621  58.9229052  24.3870704  71.0664992  59.9102376
  53.4594965  33.7166214  33.3250356  53.5257912  33.1088257  34.0615296
  53.9247179  33.2799530  32.6115084  65.4199632   4.3900527  64.3013693
  64.4999727   4.2217483  64.0975952  65.8982690   4.0570916  63.5420304
  46.5147798   9.3473334   3.9562227  46.8999307   8.6073012   4.4255211
  47.1453540   9.5464177   3.2641413  37.6865578  71.5876961  14.9664867
  36.8147540  71.3184929  14.6771431  38.0436397  70.8140993  15.4026890
   3.6188063  33.9372277  28.9706969   3.3510432  33.4418797  28.1966400
   3.8639960  34.7979736  28.6312342  16.5325738  56.5021001  21.9502212
  15.6108762  56.5135501  21.6922046  16.5364695  56.0729395  22.8058101
  19.5034234  66.9669013  60.7959302  18.7872188  67.2286825  60.2173473
  20.2592675  66.8764572  60.2156280  59.1311836  25.0697708  44.4153690
  59.7240829  24.3731546  44.6971893  59.6944904  25.6923556  43.9556932
   1.1381659  37.4801612  49.4846582   1.9726691  37.8038740  49.1454744
   1.1928067  36.5294576  49.3876743  26.5510654  41.9838190   4.9279276
  25.9914351  42.7495432   4.7986817  26.0222721  41.3874054   5.4579270
  60.7004007  24.4713439  49.1174172  61.6194185  24.7388257  49.1073702
  60.6101354  23.8958491  48.3578871  61.7016411  42.2663641  33.5101509
  61.1980200  41.8882275  34.2309880  61.1317587  42.1758080  32.7464366
  39.1574931  63.6263704  24.7293210  39.3863487  64.4906378  25.0712204
  39.9941516  63.2445717  24.4638729  66.3909753  21.4096297  57.5711284
  67.0705350  20.8595838  57.9608653  66.2124475  22.0760240  58.2346622
   9.2144045  73.0874920  33.7231803   8.4485373  72.6664162  33.3328176
   9.6740851  72.3786831  34.1732001  54.8131752  39.4870615  35.9596729
  54.3706608  38.8297892  35.4226398  54.1027498  40.0058031  36.3370824
  33.3273777  12.4445332  62.9279128  33.1252893  11.9373740  62.1416677
  34.0831121  12.0000256  63.3119792  28.0940661  48.1862926  20.6861758
  27.2378573  48.5327673  20.4350090  28.6891588  48.5023642  20.0063300
  71.3768625  43.3639383  12.6368380  71.4495564  43.1522179  13.5674953
  72.2718430  43.2939434  12.3046637  32.4163564  25.1473893  54.9207036
  32.7118763  25.1668109  54.0104709  32.5671419  26.0368957  55.2405081
  57.1989155  54.1764832  29.7814631  56.5435505  54.4325733  30.4304218
  57.1524715  53.2206869  29.7584581   1.6241869  34.2984247  30.8499742
   0.7770476  34.7225237  30.7131147   2.1779188  34.6368623  30.1463604
  74.7129536  26.1664200   4.6002385  75.5142212  25.7672143   4.2613679
  74.0066004  25.7160902   4.1370982  13.2978854  34.8008871  21.2102032
  13.1278452  35.7325912  21.0714698  13.6197695  34.7475600  22.1100831
  76.5356159  29.7527742  14.7939146  76.5411139  28.9050770  15.2384484
  75.6319094  30.0584149  14.8721981   9.7978720  59.4019318  22.6818848
   9.4969973  59.7376680  21.8375015  10.5234751  59.9774885  22.9236960
   3.0538019  23.0052400  55.7984543   3.6265501  22.9182673  55.0364637
   3.5241350  22.5605178  56.5036106   2.5628234  16.6135487  35.9030247
   3.1175996  16.5371212  35.1267433   1.7381621  16.9710049  35.5738091
  11.6327318  63.7789106  24.4567132  10.8115324  63.6983013  24.9418616
  12.1966872  64.3026972  25.0257778  51.5535831  11.4503729  34.7430563
  52.0486689  10.6771076  34.4725275  50.6365681  11.1889744  34.6594882
   5.9562525  70.5309296  28.5804796   5.6009135  69.7308969  28.9676690
   5.8311304  70.4171038  27.6383448  29.0738583  17.4345669  34.7400665
  29.8464680  17.5736984  34.1923857  29.4242573  17.3163685  35.6229472
  69.8471165  21.6088343  60.4591703  70.3776979  21.9451022  61.1814117
  69.4937944  20.7816172  60.7864428  67.7930880  19.6754611  41.7658424
  67.6053143  20.5698609  42.0504856  67.4979925  19.6468282  40.8557177
  28.2073212   0.8569178  29.7226977  28.4539033   1.6058525  30.2653980
  28.8771630   0.1979670  29.9052620  63.9420669   3.8138719  12.2960140
  63.1112353   3.6624713  11.8454124  63.9315765   3.2000203  13.0303909
  66.3140535  62.4122429  40.1197529  66.6729259  62.9502535  40.8254385
  66.1746454  61.5540218  40.5200720   5.0314936  24.9623632  31.5044880
   5.4319891  25.2199459  30.6741309   4.3490156  24.3381882  31.2577963
  69.5818647   3.1339587  59.0151988  70.1644167   2.5818361  58.4936397
  68.7058004   2.7904381  58.8398944  69.1088295  48.0749083  37.7011013
  68.2718706  47.6878977  37.9579139  69.6559715  47.3263264  37.4634337
  15.8906381  70.8752851  63.8422219  15.8894794  70.7269125  64.7878522
  15.4395167  70.1128988  63.4796057  59.7483206  58.9589214  36.8569660
  59.4861460  59.0226889  35.9385824  60.6857729  59.1522884  36.8524098
  25.1779494  36.5188885  34.2430115  25.2384505  37.3541832  33.7794876
  25.8025202  35.9496832  33.7934041  46.7458089  25.5230226  62.3766747
  46.8515476  25.4958285  63.3276277  47.4785694  25.0077285  62.0393759
  76.1133528  46.3552999  15.5494654  76.5188265  47.2202206  15.4883325
  75.7613993  46.3180876  16.4388323  75.0423765  35.5753088  30.6460738
  74.9144888  36.4429712  30.2626181  75.2396345  35.0100780  29.8991919
  78.0219793  11.1486506  38.5716820  78.6807966  10.8034658  37.9691529
  78.4762383  11.2134981  39.4117260  45.8149513  21.7875375  59.6535574
  46.0679849  22.6080312  60.0766389  46.6241487  21.2775649  59.6167217
  60.2515975   7.7376064  36.3209057  60.2706233   8.6072239  35.9213662
  61.1436454   7.4065384  36.2166214  44.4305038  61.9713068  51.7867327
  43.7962103  61.3832140  52.1966648  44.0794992  62.8481436  51.9422674
   1.3511357  35.9322190  52.6575041   1.5764651  35.4542518  51.8593788
   0.8938059  35.2899623  53.2002640  68.8652277  41.0271692   8.5583991
  68.4405899  40.4290628   7.9434317  68.2177162  41.1579466   9.2511171
   8.1738982  41.5105009  39.9942541   8.5527548  42.3491383  39.7308326
   8.8211092  41.1315775  40.5890369   0.7874665  58.7539291  33.9461803
   0.7787070  57.9158974  33.4837365  -0.1283184  59.0323114  33.9547992
  57.2466469  43.8704634  43.0890036  56.8304300  44.5252895  42.5284719
  58.1813478  43.9523554  42.8996229  56.2177610  39.8954082   9.0557313
  56.5384674  39.0161347   8.8550973  55.2674580  39.8312235   8.9606798
  72.5105254  31.6735311   1.0562946  73.3351962  32.1457715   1.1709215
  72.7254646  30.9579225   0.4580166   4.4668707  60.4048920  24.4730353
   5.0168261  60.2464008  25.2402759   4.1347250  59.5396900  24.2335820
  69.6126747  28.3372593  46.9724703  69.1280508  27.9490185  46.2440205
  69.7448206  29.2491698  46.7132664  11.9912562  28.9678907  55.7172346
  11.2958273  29.4426131  55.2619934  12.7345309  28.9960313  55.1147509
  59.2099476  41.3672638  13.3065283  58.4073305  41.2379551  12.8012359
  59.3094492  42.3178387  13.3589327  27.7369405   7.2862515  50.1988363
  27.5485612   6.4701447  50.6622124  28.6444379   7.1931252  49.9089861
  68.3650398  18.3259845  28.9089012  68.5056973  17.5051498  29.3807888
  68.6388111  19.0060318  29.5243835  35.2977872  26.7052293  12.6088309
  36.2231159  26.8885279  12.7713120  35.3033113  25.9718561  11.9937158
  63.4347105  33.2375407  40.3591824  62.6962996  33.2759237  39.7513103
  63.3388281  32.3930502  40.7994890  62.5709867  36.4439726  28.6051798
  63.4196281  36.3373733  29.0349174  62.6994228  37.1735740  27.9990315
  74.5163202  11.4511836  45.4863644  75.3463507  10.9748077  45.5050468
  74.1089821  11.1903167  44.6603775   8.0736670  63.8693523  19.1959536
   8.2387385  64.8030567  19.3270457   7.8773150  63.5356236  20.0713396
  73.7432598  12.8946294  59.0746452  73.4461068  13.2253732  58.2269762
  74.5018434  12.3492707  58.8663958  10.4237096  68.2361798  54.3512486
  10.9172504  68.8991766  53.8684569  10.6792514  68.3652787  55.2646290
   8.6071429  23.4803414  39.6732306   9.0314135  24.0424013  39.0249109
   7.9150805  23.0330563  39.1861844  11.0463080  71.7278147  57.7358198
  11.1531195  70.7803965  57.6508474  11.8417296  72.0195198  58.1812859
  53.5258150  63.3480978  20.8289552  52.6621342  62.9397869  20.7692480
  54.1195297  62.6244545  21.0291505  77.7140808  71.4614916  22.7126384
  77.6990461  71.9920158  23.5092211  77.5282431  70.5720711  23.0136824
  61.5123558  45.9800100  27.1757364  62.3486519  45.7188845  27.5612903
  61.7428637  46.6572762  26.5398049  12.2358450  56.0023022  31.7094302
  11.8903574  55.3834534  31.0660839  12.9628882  56.4336300  31.2604403
  68.1341076  36.0612059  28.5179377  68.2312918  36.2809515  27.5913858
  67.4968386  36.6942477  28.8486624  47.8082117  58.1836489  56.5204477
  47.2863229  58.7664083  55.9688520  47.7945312  57.3436991  56.0616112
  72.2343206  53.7320423  25.9425807  73.0942965  53.3894348  25.6990790
  72.0303059  54.3730783  25.2616358  10.4278788  55.2609110  45.8254766
   9.9680075  54.7682619  46.5052128  11.3523421  55.0555182  45.9647751
  67.0687199  48.1814384  10.1859343  66.6997433  48.8023567   9.5578015
  67.8274441  48.6348104  10.5533934  51.0033926  62.4257258  12.2920465
  51.5756162  62.6349393  13.0303049  51.3890775  62.8920511  11.5504122
  58.2474995  44.6292973  21.6771078  58.2966042  45.2235603  22.4258900
  57.4068880  44.8309040  21.2660575  10.3333124  66.8738413  14.3604672
   9.5722803  66.7465878  13.7940216  10.9409746  67.3917103  13.8324571
   8.1629500  52.7208805  23.6676121   8.3177981  53.2698774  22.8989410
   8.7953314  53.0318832  24.3153787  58.1560278  40.0641346  28.2964683
  58.6190653  39.4616199  28.8785386  58.7192249  40.8369780  28.2545638
  74.3611670  25.3648758  40.2123785  74.2548943  26.3105774  40.1094818
  74.4496679  25.0351000  39.3181467  60.1337194  44.3112278   2.1087886
  60.5391693  44.3692207   2.9739350  59.2191696  44.0920496   2.2870882
   4.2752775  41.0038519  13.9586306   4.7244295  40.6733990  14.7366428
   4.7772250  40.6505775  13.2241356  70.9217358  43.0406237  42.7001286
  71.8207026  43.3599043  42.7785397  70.6963539  43.1829357  41.7807913
  27.2004335  66.8738084  56.1455773  27.4408595  67.2980838  55.3219174
  27.6408498  67.3918228  56.8193166  57.2355080  50.4898977  44.1566420
  57.1349430  51.3220739  44.6188116  56.4662218  50.4363728  43.5895729
  22.7294859  65.4884529   2.1901309  22.3229536  65.1975965   3.0064437
  23.5835394  65.0563240   2.1806438  73.5299301  44.9849749  46.0715103
  73.5391378  45.4691029  45.2458191  72.6064062  44.7814322  46.2195301
  77.6913261  55.7355309  34.1524792  78.2816362  56.0904551  33.4878063
  78.2171440  55.7122850  34.9519825   5.9651789  46.9416857  31.3150406
   5.8478579  46.1629629  30.7709265   6.7783388  47.3349285  30.9982562
  56.8998766  70.7351351  41.5552187  56.0851765  70.3905916  41.1894464
  57.4431753  70.9272528  40.7909250  62.8802586  13.8483799  42.0934105
  63.1357813  12.9879451  41.7608595  63.3061075  14.4696069  41.5026808
   7.8422102  73.9087915  22.3334074   7.6731238  73.0488873  22.7183843
   8.7585387  73.8724136  22.0590901  17.1123633  19.8540711   2.2487900
  16.9433054  18.9194596   2.1298191  18.0247721  19.8979163   2.5348467
  68.4450054  51.9757843  40.4964113  68.3899260  52.8490925  40.1084328
  68.4491682  51.3805151  39.7468281  76.4692116  14.2389202  17.9778242
  76.2244844  14.7916234  17.2356248  76.4876747  13.3514214  17.6197243
  60.5664921  52.8594828   9.2093652  60.1784277  53.4455633   8.5596389
  59.8167753  52.4414206   9.6329004  11.0969353   2.5071129  59.8843861
  10.5384112   3.2779058  59.7835827  10.7215024   1.8596062  59.2877102
  65.5128241  67.7051449   1.0677321  66.2882996  67.1475792   1.1308917
  64.8519611  67.2569704   1.5955873  70.3262997  47.6224041  18.6514270
  71.1060858  47.5227785  18.1053138  69.5985937  47.3905230  18.0744493
  76.0527611  44.8454666  22.0674658  75.4657412  45.3440475  22.6358461
  76.8998432  45.2823830  22.1557117  63.9639696  26.9142999  52.1413587
  63.0818304  26.5923871  51.9558082  63.8581976  27.4721803  52.9119478
  49.2226331  11.0341353   3.2094766  49.8431222  10.4245324   2.8099586
  48.9622609  11.6141553   2.4939253  34.1085657  64.2346716  43.9586210
  34.5820174  64.2495108  44.7903967  33.2713541  64.6564627  44.1520119
  10.1183829  61.8217230  47.1638966   9.2697653  62.2584867  47.2368670
   9.9159560  60.8897829  47.2460318  23.9950403  59.4622564  11.6324115
  23.5562453  59.4577169  10.7817268  24.4803843  58.6375618  11.6559637
  23.8138343   2.5814184  37.7307391  23.7487841   2.0842155  38.5460877
  23.9957810   1.9215187  37.0616674  35.7736524  14.4179191  58.3766822
  35.4552969  13.7206258  57.8033904  36.4315351  14.8762216  57.8538219
  64.6803474  61.7871571  34.8513985  65.4203272  61.4261675  35.3396082
  64.9029684  61.6362047  33.9327645  34.0252400   2.5483927  23.3574629
  34.0808106   1.8925127  24.0524197  33.4716607   2.1435198  22.6897335
  25.4885229  12.7410068  63.8170375  25.8509620  13.0915297  64.6306740
  24.6489509  13.1895102  63.7160402  54.7661257  64.2582464  24.5285249
  54.1543913  64.7859955  25.0418472  54.6134138  63.3603716  24.8230267
   1.7895064  66.8901396  35.2578235   2.6784453  67.2446203  35.2765822
   1.6143164  66.6347790  36.1635447  21.4146408  42.7953950  15.2688730
  22.2404607  42.5861755  14.8324347  21.6358408  43.5042015  15.8729374
  69.6752691  36.2668943  17.5488496  70.3493595  36.3565516  16.8752074
  68.9453459  36.7973471  17.2293687  64.8626614  16.7662656   4.9367315
  64.1414022  16.4175415   5.4605722  65.0720263  16.0645986   4.3202406
  54.8853064  10.8329248   9.2410153  55.0842857  11.6909814   9.6156871
  53.9855909  10.9127200   8.9241916  69.8597276  73.0881474   7.9394424
  70.6568562  72.8184474   8.3956015  69.9687683  72.7543803   7.0489699
   1.9544848  69.9889672  38.5367370   1.9065960  70.5210415  39.3309879
   2.8888496  69.8174903  38.4192967  62.1132215  65.3808168   6.8694997
  61.1851915  65.5037555   6.6697872  62.1526273  64.5332662   7.3125994
  73.0578215  30.4384940  63.7392312  73.9686139  30.2385907  63.9553991
  73.1022437  31.2616287  63.2527046  34.4907951  17.3334968  22.1658039
  34.6428680  18.0122721  22.8233528  34.2904687  17.8170073  21.3643551
  28.1154092  45.0792399   4.6539196  27.8203996  44.9845973   5.5595934
  27.3136552  45.2403656   4.1564623  18.8884719  69.5710197  20.2086139
  18.2052311  68.9012459  20.2372241  18.5351451  70.2491507  19.6328282
  31.2025961  46.6987244  16.3066888  30.6321939  46.9882289  17.0187664
  30.8567651  45.8421198  16.0559630   7.0288436  47.2689848  52.0312689
   7.4108712  47.0432203  52.8793953   6.0848157  47.1808784  52.1627258
   6.0798773  25.5658317  39.0462875   5.8278498  25.2709341  38.1712127
   5.4319987  25.1690578  39.6285748  53.6677074   7.1570814  25.2785587
  53.5041237   6.2175041  25.3602123  53.1766367   7.4188989  24.4997549
   1.9719157  41.1920643   4.5838314   1.8497595  40.2473545   4.6778181
   1.0879454  41.5547514   4.6411890  14.5121591  61.8747454  62.7278045
  14.3563954  61.5824585  61.8297304  13.8695447  62.5701337  62.8682199
  29.6611738  30.5816317   9.4842750  29.1088414  30.0618386  10.0682044
  29.9752879  29.9557924   8.8316733  63.6336708  29.2396712  10.3573787
  63.3613634  29.4029593  11.2603831  64.3814516  29.8220634  10.2236784
  69.7925711  13.4848332  21.6431069  70.1168251  13.5442436  20.7444620
  70.5424690  13.1702554  22.1480083  48.4939369  69.7660020   7.7448642
  48.9987787  70.5655831   7.8933132  47.6459821  69.9387050   8.1539798
  15.4295938  58.4746580  58.1325428  15.8045261  58.4624677  57.2519134
  15.3793828  57.5525145  58.3842681  45.9464328  53.2729773  62.9752249
  45.8984534  54.0029447  62.3579105  46.1503951  53.6831002  63.8157203
  76.2431002   9.2120850  37.3987556  75.8011961   9.4707131  36.5900111
  76.7702723   9.9743855  37.6379585  59.4039774  14.6849966  45.1868057
  60.2008772  14.1635191  45.0906610  58.7089396  14.1267836  44.8381710
  30.0773358  24.5865321  34.6000314  29.8458552  23.8527584  35.1694393
  30.4273438  24.1752768  33.8097191  28.0163463  67.6995561   0.0988299
  28.9333232  67.7967760  -0.1579588  28.0356105  67.6872447   1.0557568
  73.8171434   4.9165109  29.3532157  73.2660913   4.1829255  29.6260262
  73.2217360   5.5025315  28.8859868  72.5530529   0.1976046  19.0210140
  72.5286818   0.9893882  19.5583379  73.2172155   0.3796554  18.3562005
  26.0030492   4.8762692  61.3987396  25.1363596   4.6589269  61.7420232
  25.8415445   5.5766429  60.7665775  61.2622292  29.0929853  49.2016028
  61.3409622  28.5206335  49.9647842  60.9931786  28.5099678  48.4917198
  74.9658664  59.6125703  59.4391103  74.4413979  59.1710596  58.7711052
  75.2085097  58.9176946  60.0510792   3.7478511  48.4667473  43.3168529
   2.8036658  48.6050455  43.2418845   4.0394418  48.3126502  42.4182652
  71.0942427  18.4467587  10.9389782  71.0669390  19.3886551  10.7706964
  71.9943778  18.1930050  10.7350218  10.1315912  67.4926886  23.8571405
  11.0285386  67.3022142  24.1318011   9.5988258  67.3000935  24.6286988
  54.4720396  72.3822949  52.7967644  54.0104612  73.0037671  52.2337866
  54.0631326  72.4878395  53.6557674   8.0933794  37.5823569  22.4445677
   7.2993979  37.2234130  22.0483661   8.7530741  36.9002199  22.3191810
  24.8608749  68.4904318  61.1960856  24.6433322  69.4216447  61.2379269
  24.6340768  68.2313828  60.3029521  49.3640137   5.4239345   6.5012473
  50.2004623   4.9728942   6.3865852  49.0320921   5.1034814   7.3399192
  26.0613076  55.1128690  61.0077022  26.4631097  55.7775526  60.4482536
  26.5348928  54.3072574  60.8004819  52.3458433  17.7443540   4.9274898
  52.2980118  18.6999321   4.9560019  52.7616501  17.5005734   5.7544750
  53.8437462  35.9380603   9.1660863  53.6141825  36.0177422   8.2402450
  53.2866859  36.5795183   9.6070433  26.7780051   8.5230023  12.0998788
  27.5400957   8.4075481  12.6674330  26.4065203   9.3641251  12.3658550
   9.0339503   0.2840949  12.1809852   8.6485705   1.0859659  12.5341415
   9.3626055  -0.1823398  12.9495287  35.2540573  72.3542747  27.5634742
  35.7946189  71.5966568  27.3397803  34.3899664  72.1450802  27.2087669
  41.1449655  67.4541977   6.5230232  40.7001051  67.0283571   5.7902259
  41.9772371  66.9879523   6.6015756  53.2747984  55.3345156   3.9222643
  52.3329496  55.5026484   3.8926569  53.3625364  54.4169807   3.6640674
  71.6882069  53.5427504  61.2920902  72.4368556  53.4008698  61.8714177
  71.8572886  54.3929188  60.8860637  36.0777251  48.0038290  62.4730345
  36.7487113  47.6097279  61.9156292  35.4864280  47.2811322  62.6835143
   1.7843255  60.1835731  52.6533413   1.3087233  59.5355943  52.1335697
   1.6875132  59.8834864  53.5571146  40.8337545   0.8717878   4.5666328
  39.9062514   0.6794275   4.7043622  41.2367773   0.7341401   5.4238707
  58.7365913   3.7951317   8.3173722  57.8127480   4.0272045   8.2231075
  59.2031193   4.4571915   7.8072131  19.3000110  38.5852543  18.8369572
  20.0842269  38.1814233  18.4652591  18.7311586  37.8471080  19.0555298
   5.5002436   3.1473774  24.7468185   5.6365618   3.6743587  23.9594579
   6.3079294   3.2541385  25.2492905  24.4752058  15.2476442  15.4129493
  23.6947855  15.2752376  15.9665048  24.5088324  16.1120176  15.0031209
  71.7328914  45.8331840  55.9569530  72.6484330  45.7445692  56.2218390
  71.4248450  46.6138230  56.4173244  29.9849399  73.9030327   4.5555398
  29.0708812  74.0316990   4.8088646  30.2549823  73.1141380   5.0255978
  19.0785345  71.7025255  11.2956929  18.2793697  72.1896634  11.4963531
  19.7875055  72.2715080  11.5954494  73.6639912  26.7124312  61.2035097
  73.4627087  27.0114969  60.3167866  73.1868680  27.3153167  61.7736974
   8.3029731  56.0665694   2.7888182   8.2686623  56.6653577   2.0428237
   8.7600287  55.2944640   2.4553730  47.0340967   9.1935396   1.1508709
  47.1602392   9.6856415   0.3396028  46.2213659   8.7072742   1.0121367
  64.9086221  63.1738940  10.3090870  64.3712076  63.1211582  11.0994315
  64.3147787  62.9303304   9.5989698  48.2627901  67.5793341  18.4996188
  48.8547262  67.6196513  17.7484715  48.7411912  67.0709685  19.1545451
  53.6389351  28.3078909   8.3122498  53.7886000  27.3633313   8.2717669
  53.1820107  28.5131669   7.4965829  70.6875038  10.2755666   6.7769718
  70.8729219  10.9428585   6.1162341  70.4431677   9.4999391   6.2720621
  30.4330413  54.2895012  57.6020179  30.9579532  54.9509709  58.0527429
  31.0321300  53.5537796  57.4753861  39.7994256  27.9300046   1.4196926
  40.0433636  27.7885532   0.5049696  40.1777458  27.1848559   1.8864454
  55.7059415  70.7022211   9.0384519  55.7207902  70.5348376   9.9807864
  56.4950021  70.2738306   8.7066394  10.4930147   4.0568420  47.3410702
   9.5872912   3.8163549  47.5361729  11.0126623   3.3278382  47.6798105
  21.2555154  59.6104923   5.0538534  21.3978990  59.1422776   4.2312148
  22.1072086  59.5922414   5.4903406  59.1883977  23.9390124  24.1577123
  59.5359834  24.4936742  24.8561166  59.8207124  23.2243670  24.0823124
  32.3092254  58.3018771  59.7963190  31.3770755  58.5007742  59.7081757
  32.4460205  58.2081095  60.7390451  19.8596017  33.3125438  57.4261020
  20.0484721  33.1367989  56.5043251  19.2316215  34.0347354  57.4084531
  33.6212890  73.7251429  62.3514725  34.2643897  73.5248570  63.0315758
  33.0285041  74.3556051  62.7605702  62.2015047   0.2424799  13.7821031
  61.5648746   0.5148616  14.4429672  62.2140551   0.9618600  13.1507826
  16.4602122  30.7259893   5.1231933  15.6904730  31.0366178   4.6464884
  16.7273363  29.9339867   4.6567103  26.0279195  69.1789083  40.7234882
  26.7613809  68.9951448  40.1365493  25.2936236  68.6924534  40.3487895
  56.2888050  22.9611373  36.4392853  56.2982273  23.0431771  37.3929167
  56.8140125  22.1810555  36.2607956  41.6307767  73.2564827  18.9116192
  41.0078701  73.9456663  19.1423595  42.4887117  73.6744490  18.9857185
  54.6547182  63.5528283  50.4582785  54.2993338  63.2880931  49.6098397
  54.0918095  64.2742591  50.7391737  70.4988194  21.0824203  11.0225892
  69.5536566  21.0634756  10.8724654  70.8753061  21.2487650  10.1584029
  36.9247659  65.7403669  49.7314882  36.5858158  65.0950703  49.1110563
  37.0125755  65.2587059  50.5539989  59.6768618  13.0158591  12.4632657
  60.3927565  13.6509752  12.4443972  59.6849489  12.6198816  11.5918481
  65.4710579  20.1701307  39.9760079  65.7801962  20.3277421  39.0839171
  65.0929260  19.2912745  39.9466944   6.6100535  34.7696924  26.1847091
   6.0033068  34.2180681  25.6909466   6.7480025  35.5341673  25.6254411
   2.2909769  43.8761663  46.3284016   2.6441225  42.9898596  46.4057732
   2.3998007  44.2543650  47.2009611  11.4846007  57.3388653  54.8611085
  10.7665555  56.7985253  55.1907615  11.2379281  57.5402431  53.9584277
  73.1499147   6.0717654  34.6829033  74.0185452   5.8298486  35.0041389
  72.8477049   5.2995265  34.2048359  76.7198085  57.2201673  30.8456898
  77.2537374  57.1653000  30.0531340  76.3197350  56.3542453  30.9253812
  61.9463015  15.2515411   8.4887266  62.5421762  14.9706042   9.1831630
  61.1079168  15.3835058   8.9313650   3.8667616  13.0343866  19.4309759
   3.3485255  12.5226629  18.8098538   3.7804541  13.9381087  19.1275465
  26.7757067   8.8723016  20.0801158  26.9457850   9.0402973  19.1532493
  27.5284514   9.2509592  20.5342293  55.6428289   6.6312110   6.6273403
  54.9151278   6.6752446   6.0070622  55.3984594   7.2373885   7.3266721
  66.2888002  27.0897889  21.6271758  66.7009449  27.8045726  22.1124077
  66.7128706  26.2987328  21.9597816  19.3988912  63.4438233  57.8495304
  19.1963832  63.3010631  58.7741075  19.0118806  62.6921325  57.4007366
  29.3056417  23.0055380   9.5919967  30.2419662  23.2019210   9.5609695
  28.9695787  23.5525799  10.3019536  27.1812042  56.6072074  59.2020178
  26.5528806  56.3557664  58.5250998  27.9662975  56.8620184  58.7173223
  14.3007772  71.0155945  56.6324953  14.6379535  71.5207128  57.3723607
  14.8418634  70.2261953  56.6149787  17.7786288  31.0739088  22.3309755
  17.9275927  30.3355718  22.9216528  18.5893473  31.5811038  22.3723745
   5.8195624  35.2452254   9.5287538   5.6333575  35.3132677   8.5923076
   5.9134707  34.3058205   9.6866429   3.2686457  25.0159931   2.8794542
   4.1851649  24.8594165   3.1068572   3.1933245  25.9689951   2.8310290
  51.4128971   6.7950803  12.9059386  52.2700644   6.5904015  13.2795751
  50.8071804   6.2106675  13.3617890  55.3535540  43.7841504  56.8609594
  55.5470283  43.6339586  57.7862935  55.7956178  43.0682443  56.4045714
  28.3833600  -0.0708881  12.6052749  29.2626191  -0.1958147  12.2481763
  28.1922723   0.8546051  12.4530315  59.0502310  29.3733168  12.3598433
  59.9303770  29.7156096  12.2035885  58.7182617  29.8917460  13.0928218
  68.9354134  16.2657654  30.3266191  69.1546822  15.3964245  29.9913573
  68.7969732  16.1329150  31.2643909   1.1460003  17.1139038  18.0532539
   0.9453663  17.8312290  17.4520683   1.1793169  17.5268221  18.9161682
  41.4894041  72.1952577  45.4888916  41.1068615  71.6355656  46.1646414
  40.8397325  72.8849820  45.3531075  74.7340599   4.9890360   6.2140930
  74.3873517   5.8797058   6.2663269  74.0152041   4.4340643   6.5165555
  77.4549770  31.7894340  16.3995016  77.2615671  30.9378386  16.0075724
  78.3727837  31.7283201  16.6643226  16.3676485   7.4112159  19.0079677
  16.3981756   6.6189784  18.4716284  17.2862753   7.6360321  19.1556334
  41.6301918  10.4667652  53.8242531  41.4667797  11.4006305  53.9562511
  42.4605465  10.4337096  53.3492279  66.7199469   9.9215358  32.6064563
  67.5199556   9.8240572  32.0900083  66.5788317  10.8671165  32.6533008
  47.2461828  72.5925422  12.8566885  46.3142761  72.3755966  12.8299880
  47.6152166  71.9851858  13.4979105  11.8887839  16.6187465   0.5448056
  11.0196051  16.6942513   0.9385818  11.8542609  17.1892810  -0.2230026
  70.3760099  17.1286750  16.1653626  70.5902195  17.7991772  16.8140316
  70.7072449  17.4803579  15.3390253  51.3367923  52.6919452  34.1115642
  51.2878450  52.3919168  33.2039189  51.0585292  51.9362346  34.6289659
  44.1454919  68.9964488  43.0027437  43.2987722  69.3987590  42.8092432
  44.3754991  68.5254488  42.2018147  11.0252604   8.3536434  23.6853862
  11.7740568   8.7753707  23.2638550  10.6263193   7.8264630  22.9931736
  42.9278310  56.6496209  26.1422729  42.7601846  55.7266608  25.9518218
  43.6852392  56.8721477  25.6009364  71.3529873  41.4464521  23.0443859
  71.6104984  42.2410202  23.5119104  70.7033682  41.0336304  23.6134267
  65.1979160  50.2523088  39.7176266  65.8800507  50.4977131  39.0925694
  65.2112675  50.9499407  40.3728819  77.7354336   5.9212214   0.0049523
  78.2800198   6.2619507   0.7145729  78.3577776   5.6891090  -0.6842804
  73.6559868  66.2684059  36.0351682  73.5630989  66.8806934  36.7650366
  74.3956280  65.7128716  36.2812233  56.2318134  57.8785610  12.4132633
  56.9192266  57.2635365  12.1574438  56.6419315  58.7403154  12.3397040
  42.0008930  64.4232890  62.6872063  41.8600353  65.3693393  62.7243376
  41.7804559  64.1834614  61.7871380  21.9657931  31.6683555   4.3189484
  21.2585196  31.0821676   4.0499419  22.6264891  31.0884714   4.6976969
   6.4417013  27.1908545  10.4551804   6.5936503  27.9340577   9.8714077
   7.2775111  26.7246270  10.4719090  48.0861410  60.4917077  20.5947804
  47.7114805  61.2060359  21.1101413  47.4555381  60.3492967  19.8888803
  22.9999193   5.3266525  11.8465066  22.0772681   5.2999431  11.5930772
  23.0747828   6.1065519  12.3964024  10.4411444  25.5212855  19.4858825
  10.8487543  24.8523951  20.0360417  10.1571879  26.1971879  20.1013136
  24.1001582  15.9133852  33.6893177  24.1603160  14.9962401  33.9566350
  24.8278832  16.3423073  34.1395068  40.6945515  55.9374380   0.5449031
  40.7061148  55.0107670   0.3053741  40.2278376  55.9631014   1.3802186
  18.9321169   9.8441851   6.4358842  18.2166418  10.4741740   6.3496399
  19.2133364   9.9244297   7.3473155  71.2127590  14.4261849  30.0026846
  71.8244076  14.0605748  29.3635869  71.4632130  14.0209591  30.8329225
  68.5611486  29.9439788   8.4337109  67.7141380  30.1660609   8.8203371
  68.4916973  30.2315784   7.5233841  56.0268831   0.6163580  38.1443048
  55.3731012  -0.0435196  37.9132938  56.0289574   1.2213939  37.4025774
  69.1288328   3.1185931  29.5287633  69.3990612   2.4542102  28.8948846
  68.2262421   3.3267638  29.2874742  60.6292565  34.2121159  63.0978566
  60.6777699  33.2697086  63.2583153  59.7548111  34.3482666  62.7331057
   2.4564394  48.0512714   7.9549646   2.3161730  48.6181641   7.1965516
   2.4573073  47.1646023   7.5943369  37.6019510  59.1042415   5.2194422
  36.7864641  59.5070377   4.9211669  37.3932155  58.7536803   6.0853350
  71.1821795  21.9288039  24.3924522  71.4680004  22.5987697  25.0134897
  71.9750023  21.4291906  24.1973877  60.3813299   8.4839620  61.6656473
  60.3817876   9.3786134  62.0059807  59.7521909   8.0183972  62.2167021
  41.0887083  72.0226685  37.0193172  40.6198629  71.4512614  37.6275206
  41.9605144  72.1170459  37.4030828  13.1639990  60.0732803  25.3396082
  12.6036581  60.8273315  25.1561427  12.6158461  59.4894838  25.8639550
   2.1603045  13.0496120  47.2372389   1.3551125  13.3716202  47.6424599
   2.1174845  12.0990944  47.3417091  66.3560613  60.1158671  57.5698898
  65.9492190  60.4004841  56.7515336  67.0366414  59.5003180  57.2976093
  65.3595066  34.0760994  38.3415532  64.6687698  34.5325160  37.8611326
  64.8963642  33.5939145  39.0265560  59.9879583  64.2028836  16.3017380
  60.0217947  64.4455764  15.3764343  60.1320203  65.0249759  16.7703962
   3.7703356   0.9271258  36.5361452   4.6775851   1.1322358  36.3101721
   3.3539328   1.7809293  36.6538620   3.6487231  19.0278864  18.7168515
   4.5322451  18.9128554  19.0666878   3.7266669  19.7602856  18.1055021
  62.1791681  73.5705226  23.2244325  61.7878946  73.9378389  22.4318314
  63.0481561  73.2783066  22.9492807  67.3131609   9.4266313   3.9031854
  68.2534027   9.2568409   3.8453367  66.9832420   9.2500681   3.0221581
  77.2705173   3.7156448  32.6815748  76.5424204   4.3370199  32.6833439
  77.4818182   3.5969114  31.7555690  19.6550116  20.9090734  12.9660761
  19.0974745  21.3105083  13.6325848  19.8143133  20.0223422  13.2894361
  70.8485174  58.1253672   6.2940598  71.5012455  58.2501936   5.6051511
  70.6557655  57.1879816   6.2743694  30.8043799  14.5694816  32.1058631
  30.6676325  15.4440451  31.7416239  30.0520739  14.0625191  31.8004704
   8.5801427  51.5447442  47.6435624   9.4528024  51.1675458  47.5321291
   8.7199657  52.4904232  47.5948594   9.9249777  24.8231673   4.4384071
   9.1508040  24.2611051   4.4071585  10.6633791  24.2140794   4.4369251
  60.3933144  31.1297655   3.9479294  60.5406523  31.6242552   4.7541571
  60.9712124  30.3704667   4.0236619  76.4368010  26.8955445   6.7663908
  77.0096874  27.4517918   6.2385410  75.6822920  26.7253542   6.2024909
  67.6685238  49.5901012  30.8474970  67.3517704  50.3544855  30.3662372
  68.2879448  49.9474525  31.4837694  12.6932160  54.1127639  46.4936016
  13.2900874  54.4591670  47.1569119  13.0542104  53.2545655  46.2713156
  24.6825378  71.1803894  51.1963115  23.9301746  71.7702346  51.1487125
  24.3095700  70.3365641  51.4514337  10.5938467  30.1493931  13.6027944
   9.9726805  30.7677770  13.2181108  10.7413420  29.4994187  12.9157639
   1.1414227   1.3672145  17.5967276   1.9217810   1.3219978  18.1491983
   1.4492306   1.7580515  16.7789674  23.0529627  34.6641469  35.2535629
  23.1853136  33.8010502  34.8614144  23.6438498  35.2405548  34.7689629
   2.9090056  40.3427744   2.1002136   3.6556563  39.7620773   2.2469738
   2.6490244  40.6249237   2.9771578  58.9192200  43.1784105   7.3868674
  59.2267418  44.0645504   7.5777036  59.6959543  42.6282978   7.4882972
  17.4134318  67.6098256  58.4649561  16.6652410  67.0752673  58.7308292
  18.0006711  66.9968133  58.0226932  31.4102841  58.6696421   1.7485239
  31.1884785  57.9533087   2.3434212  30.6303693  58.7794386   1.2045576
  69.2361879  24.9226570   8.7053347  69.7208643  25.7452750   8.7733042
  68.8292456  24.8127198   9.5647192  65.9919977  19.5899355  47.4993229
  66.6228247  20.2574492  47.2296715  65.9146500  19.0127099  46.7396784
   7.1369108  68.8100910  47.7629948   6.4984450  68.1694221  47.4497128
   6.9362673  68.9129925  48.6932564   5.8866438  15.7938910  39.5188642
   5.7550940  14.9001062  39.8352098   5.0064120  16.1053884  39.3081880
   3.4067663  22.3778629  13.3511674   3.6564192  21.4979219  13.6333191
   3.3265528  22.3105621  12.3997116  42.2726345   9.0925163   2.7480078
  42.5783968   8.2132715   2.5251430  43.0272245   9.6576619   2.5823677
  11.9592318  47.3383951  23.6070347  11.9343600  48.2474232  23.9058399
  12.7026114  47.3044300  23.0049896   5.5386481   6.8751472   4.0092963
   4.7856936   7.1559703   4.5293286   5.5728659   7.4968266   3.2822639
  59.8256111  15.6722391   3.5147485  59.6394968  15.4793632   2.5958407
  60.7653761  15.5154002   3.6068207  77.3745155  17.7691710  22.0389318
  76.9096279  17.7612436  22.8756213  77.9306650  16.9906032  22.0665574
  44.1529592  69.6712581  28.1862903  44.2932399  70.4439271  27.6389909
  43.7759050  70.0162715  28.9956260  70.0123310  34.2191625  14.0771294
  69.3179464  33.6183357  13.8068092  69.5602608  35.0445986  14.2518294
  27.3376784  44.5905304   7.2794056  26.5722975  44.0783978   7.5404519
  27.4088034  45.2723885   7.9474175  70.0643587  72.4554586  22.9894590
  70.2587509  72.3876047  23.9242554  70.9170008  72.3784637  22.5613141
   9.4342169  62.0261097  27.9100180   9.9369654  61.8771791  28.7108254
   8.6511740  62.4927568  28.2021117  47.3216009  62.8735542   6.6578603
  46.6529417  63.1925392   7.2639745  48.1287384  62.8690767   7.1723926
  58.8006783  37.8560662  18.9924824  58.2582664  37.9016924  18.2051206
  59.6907473  37.7311015  18.6632490  15.5522284  31.4584827  26.0612965
  16.2286028  30.8514261  25.7609200  15.0149855  31.6211891  25.2859712
   7.8196940  61.4096355   4.3153763   7.1937784  60.7108879   4.5056659
   7.8632387  61.4384413   3.3596015   7.6107535  32.2507691  23.2158184
   7.8285822  31.4079380  23.6138415   8.4581026  32.6664639  23.0563450
   5.8760294  47.6867342  18.4768713   5.7928023  47.2759581  19.3374324
   5.8085856  48.6253595  18.6519825  36.2065125   1.5681204  33.1185150
  35.5806638   1.9977507  32.5354481  35.8259297   0.7057032  33.2847452
  71.8819094  10.2620471  21.9510722  72.6522779   9.7226286  21.7727685
  71.1412621   9.7174156  21.6845250   6.0491371  32.0266986  34.4773626
   5.3510267  32.5068855  34.0320587   5.5983859  31.5212345  35.1537967
  54.5321170  73.0237542  27.8472378  55.0184480  73.4182941  27.1233227
  53.6669795  73.4311400  27.8047516   1.2288225  51.3627768  55.9938908
   0.7374839  51.2225008  55.1844835   2.0756376  50.9456301  55.8353853
   5.4691362  34.4652677  47.2755051   4.6253246  34.7951102  47.5844049
   5.6415123  34.9608970  46.4749622  16.0692386  67.4247585  10.3985264
  16.1940215  66.8076669  11.1195423  15.6534223  66.9068442   9.7092583
   1.8222602  45.5309529   6.7426874   2.7790244  45.5249066   6.7145397
   1.5566190  45.6554837   5.8315565  59.7897545  70.9774290   7.8084614
  59.7124449  70.9493648   6.8548014  59.3333880  71.7796479   8.0622484
   2.8707403  42.7130985  62.5333023   3.2993069  43.2215881  61.8448257
   1.9870821  42.5563097  62.2004366  73.4682003  64.9729119   3.5231783
  73.8758532  65.6869827   4.0132381  74.2006175  64.5221172   3.1029655
  72.7351220   7.5701852  14.6789553  71.9105585   7.9141803  15.0224592
  72.5200780   7.2701354  13.7958052   6.8979633  39.2950749  36.0005116
   6.7857933  40.2456570  36.0067320   6.2415057  38.9723921  36.6179013
  59.5780404   6.3145681  11.3798572  60.0103147   6.6444297  12.1676113
  60.1663442   6.5566297  10.6646396  60.3758664   5.3859134   6.8477918
  60.3714855   5.9732003   7.6036360  60.6777437   5.9320016   6.1219169
  61.7829759   7.7084298  17.1099235  61.1264308   7.0235581  16.9829323
  61.3249393   8.3914466  17.5997402  74.3902424  52.1261883  52.9881430
  74.7770861  52.0170593  53.8568640  74.9943623  52.7092552  52.5284672
  23.2300714  28.0888733  51.7531013  24.1101003  27.9800591  51.3926268
  22.6682571  27.5755676  51.1724854  19.1859982  70.6898128  25.6943847
  19.9187050  70.5883561  26.3019039  18.4160910  70.4354774  26.2031032
  51.2723390  13.4409423   5.4066517  50.8591005  14.1684766   5.8715870
  50.9543137  12.6579518   5.8561136   3.5693543  30.2042861  21.8249847
   3.6183445  31.0901446  22.1842720   3.8700311  30.2955670  20.9208347
  50.4319486  53.0215116   5.7451727  49.5539559  53.3536668   5.5579998
  50.3212655  52.4785276   6.5256550  16.2944601  32.6302154   2.3135187
  16.5922091  32.8425084   1.4289238  15.3871302  32.3474343   2.1994259
  76.9071280  61.3030243  47.5094032  76.7449655  60.9848833  48.3975029
  76.3066886  62.0412827  47.4060774  35.4994134  11.8643078   7.4186838
  34.7179709  11.3244328   7.5374663  35.9725735  11.7863640   8.2471007
  57.2366194  27.1716590   3.0621149  56.2909405  27.0896716   3.1854107
  57.5988288  27.1202464   3.9466430   4.2171106  47.7816200  59.1849947
   4.5907795  47.5271702  60.0287104   4.7923741  47.3761749  58.5362148
  13.4326708  59.6023369  49.4928932  13.8427770  60.3439808  49.0479088
  13.8053393  58.8309479  49.0659142   4.4929114  47.7030563  62.1907711
   3.6001611  47.6380968  61.8516445   4.3848273  47.7621126  63.1400156
  15.2597189  51.8885183  43.4011984  14.7749841  52.0279074  44.2147303
  14.5824420  51.7401648  42.7412558  53.5392045  73.2101007   4.0514376
  53.3687989  72.6823373   3.2712700  53.3764217  74.1108651   3.7715198
  29.5536549   4.1081652  56.7209578  29.0054128   3.3290991  56.6275930
  29.4089473   4.3962702  57.6222277  75.1786430  42.2380300   3.5900308
  74.9899109  42.2493501   2.6516868  74.5130880  42.8081079   3.9751007
  18.9312661  23.5789752  60.6037331  18.0095136  23.8242769  60.6839275
  19.2279375  23.4640098  61.5065098  47.7430834  11.9010301   5.3790190
  47.0502670  11.5255637   4.8356439  48.5521556  11.5333743   5.0234033
  16.2384403  35.2152944  60.2482510  15.4356027  35.4358459  60.7205200
  15.9436595  34.6793294  59.5119905   1.7423099  43.5045147  30.8662176
   2.1573931  43.9756489  31.5886950   0.9061752  43.9522743  30.7372880
  71.0846312  15.8894439  36.2965824  71.5961023  15.1587148  35.9492256
  70.6473310  16.2612338  35.5305721  51.5690915  64.3988191   6.6867258
  52.1314589  63.8897763   6.1029007  51.2533204  65.1218902   6.1447956
  72.0929125  17.0327437  41.6436529  72.2472557  17.4850321  40.8142900
  71.2951967  17.4328172  41.9898081  11.6478515  68.3364153   7.4657845
  11.5457892  68.3246422   6.5141141  10.9398043  68.9011240   7.7756351
  59.2964681   1.2418575  19.7766544  59.8619051   1.9569964  20.0683643
  59.1297741   1.4298244  18.8530208  71.9816729  58.2542706  37.5840592
  72.6350162  58.6930513  37.0392227  72.3689380  58.2419682  38.4593320
  55.2043572  49.2580700  52.0652151  55.3743711  48.5937548  52.7330589
  54.6175781  48.8277864  51.4433002  66.0315867  45.2585931   4.2607643
  66.2267800  45.9331746   3.6103203  66.8594344  44.7927232   4.3785002
  65.0000198  22.5546212   0.7688190  64.6696885  22.1113343  -0.0125979
  65.9047814  22.2530933   0.8507873  69.8280951  61.1655521  32.8917837
  69.4931546  62.0192480  33.1661034  69.7487471  61.1723852  31.9379020
  65.2092452  33.3585448   0.3419115  65.0498112  32.4156232   0.3833200
  65.9633179  33.4993215   0.9144403  23.6511087  63.9764786  58.0181599
  23.1342530  63.8918734  58.8193655  24.3357062  64.6075249  58.2402849
  25.0346470  72.3929596  46.6332436  24.4302893  71.9810295  46.0157490
  25.5381584  73.0088282  46.1008739  11.1847131  64.2801042  14.2609741
  10.6271283  65.0575776  14.2904331  11.2610905  64.0753121  13.3290626
  78.1446274  25.0285096  19.8216202  78.9899738  25.4685826  19.7324135
  78.1247361  24.7300859  20.7309009  68.1973711  59.3631268  46.3717031
  69.0852127  59.0406847  46.5266132  67.6408079  58.8001776  46.9098091
  66.5806308  34.1357946  55.6467628  67.3220685  33.6568666  55.2764511
  66.9807139  34.7989154  56.2092924  57.1801987  55.0254583  62.4714661
  56.5062037  54.4253922  62.7906513  56.7256084  55.5815506  61.8387365
  66.7771259  55.2931499  56.8888426  66.4053980  55.3699493  57.7675676
  66.0249963  55.1102209  56.3257551  72.9131958  53.8584423  47.5640154
  72.7595094  53.6365128  48.4823608  73.3024970  54.7324944  47.5907469
  57.2479525  57.2745848  49.6913528  58.0722395  57.1802044  49.2139864
  56.8996969  58.1184149  49.4034290   1.3965996  40.7007360  30.9094143
   0.4409657  40.6626558  30.8700991   1.6041304  41.6284657  30.7977080
  75.7449436  41.2008619  60.3101015  76.6390161  40.9633589  60.0642204
  75.2118501  40.4612732  60.0184679   9.4605820  11.5442748   1.7784025
   9.6168964  10.6101937   1.9172861   8.8074844  11.5764899   1.0793640
  29.5133241  47.2576757   6.1681511  29.4626840  46.3632627   5.8309795
  28.8064201  47.3115869   6.8112804  72.5404413   3.3253141  12.4061729
  72.3566468   3.3258815  13.3455660  71.9703133   2.6433845  12.0509865
  15.6727314  55.6623363  40.9771252  15.9279847  56.0675001  40.1483202
  14.7188938  55.7397747  40.9978390  17.0890534  51.7749023  53.9211082
  17.0075977  50.8215427  53.8946772  16.2170231  52.0830441  54.1677713
  16.4605205  23.3085628  15.4199793  16.0979478  23.2138677  14.5391800
  16.9448011  22.4963279  15.5682375  29.9434543   0.3341278  58.3076000
  30.4716132   1.1294302  58.2385111  29.9533016   0.1203712  59.2405748
  25.7488728  64.2660938  15.1815225  25.0603163  64.2574965  14.5166542
  26.3421746  63.5615669  14.9210121  11.0431993  57.5457668  24.2118216
  10.4910791  58.1516933  23.7176037  11.2470686  58.0136585  25.0216031
  28.2431793  73.0562735  45.7228136  28.5291266  72.3240423  45.1766396
  27.6797676  73.5765886  45.1500416   4.1945450   8.4566016  33.2992412
   3.8731734   9.3578239  33.2718040   4.3995874   8.3034129  34.2215874
  57.4828640  31.2583065  54.4609976  58.2716695  31.2093210  55.0010157
  57.6717606  31.9463801  53.8229513  58.1163422  70.4507910  30.5514671
  58.7336866  70.7037650  29.8650886  57.2720996  70.7861243  30.2497436
   3.7304178  28.5768509  45.7123947   3.5474798  27.8569865  45.1086044
   4.3469095  28.2080698  46.3449860  62.2705498  45.3586674  31.0288239
  61.5156046  45.7085562  31.5019727  62.4997369  46.0451269  30.4023433
  60.8458449  34.6856828   4.6068765  60.1880027  34.3057389   5.1892139
  60.6101807  35.6117435   4.5511724  67.4066539  33.1861348   2.2293999
  67.3125430  33.2339044   3.1807615  67.9286845  32.3979182   2.0796348
  30.2235846   8.5998615  41.4583778  30.3654761   8.4743675  40.5201101
  30.2816225   9.5468983  41.5848303  68.5970774  50.6597805  33.6954665
  68.7977842  50.8752632  34.6062422  67.7236083  50.2696609  33.7285328
   9.8113322  57.0212364  48.2190371   9.1960335  57.5523996  48.7245131
  10.3647757  57.6592970  47.7686882  47.3162953   4.1760906  21.7932200
  47.6895491   4.7448334  21.1198354  46.4527313   3.9392647  21.4549875
  75.2810863  65.7604742  49.0629482  75.7332304  66.0714769  48.2786798
  74.7576442  65.0187969  48.7593889  67.1217993  24.4293690  44.7243166
  67.7885166  25.0926423  44.9026108  67.0225337  23.9607358  45.5530262
  58.2399978  19.2163558  13.7293484  59.1713889  19.0595956  13.5738899
  58.2199426  19.9484105  14.3457319  60.1768138  36.6927285  14.9227526
  59.9531145  36.8240924  15.8441307  59.3321313  36.6009469  14.4819357
   5.7747084  50.6711483  18.9402294   5.3765470  50.8489227  19.7923410
   6.5607876  51.2171030  18.9245832  66.4282790  23.6935306  33.9858842
  66.7885330  23.9741969  34.8271179  65.4983702  23.9144301  34.0378833
  53.7954775  26.8872046  60.1570511  53.6634341  27.6095414  59.5430279
  54.6787611  26.5705347  59.9679518  18.2980645  72.7884054  59.5932770
  18.7046671  72.0384550  59.1591311  18.1208551  73.4078360  58.8853645
  39.5685192   4.6464820  12.3941233  40.4490276   4.4328542  12.7028324
  38.9959653   4.4179006  13.1263544  21.8834055  62.2782241  19.9916698
  21.1909140  62.0654594  20.6172993  22.3410464  61.4495407  19.8499538
   5.3837508  38.0630708  46.7703629   5.0230372  38.9338493  46.6034460
   4.6162546  37.4955487  46.8417788   2.9556590  61.9534159  40.9733248
   3.5623747  61.6799545  41.6613245   3.5155445  62.3398781  40.2999687
  28.2739384   1.3487944  42.3531818  29.1872153   1.1989340  42.1088457
  28.2993867   1.4909538  43.2994223  13.3995008  63.8812447  41.6430998
  14.1687489  63.3618402  41.4092016  13.6381280  64.3047142  42.4676991
  10.1857758  52.2108364  59.1230965  10.7665169  52.6393270  58.4943151
  10.0959456  52.8434229  59.8358345  71.2933751  34.8933883  22.3306991
  70.7646878  35.5761762  21.9177582  71.9459708  34.6629996  21.6694309
  73.7731829  62.5633240  43.3378267  74.5979336  62.4982500  43.8192654
  73.9858955  63.0919027  42.5686741  62.5969108  12.2744269  11.0436727
  63.3879729  11.8509574  10.7103111  62.7327950  13.2059760  10.8705046
  36.7101959  69.2958389  17.4335625  37.4731771  68.7270604  17.5364353
  36.1687187  68.8542281  16.7793419  68.7586840  30.1904626  25.6178619
  68.0679436  30.5648751  26.1646034  69.5296390  30.1724191  26.1849071
  10.8561651  58.6000676  14.2020418  10.0361864  58.4591813  14.6753456
  11.5017550  58.7724252  14.8874189   8.3732462  54.9812698  33.7573266
   9.1253912  54.4751644  33.4501362   8.6394668  55.8945179  33.6508632
  59.5140234  21.2998470  33.6347413  59.4206420  21.3692650  32.6846409
  59.0819994  22.0829853  33.9757299  44.7146086  10.6732639  32.5220776
  44.1003183   9.9828800  32.7715707  44.5982078  10.7672485  31.5766406
  39.7150043  10.3864750  58.2735586  39.1861073  10.9636768  57.7227974
  39.2425946   9.5539745  58.2710028  59.4812385  66.7477356   6.2688019
  58.6272255  67.0905887   6.5321352  59.4361011  66.7000805   5.3138544
  74.0009469  73.2386112  60.3163815  73.4377083  72.4795294  60.1654196
  74.6074206  73.2379055  59.5758247  65.5770937   0.9529957  56.1210489
  66.1529390   0.1891789  56.1558867  65.5229393   1.1698708  55.1903152
  54.3012492   5.5417475  29.2339373  53.6573402   5.7113585  28.5463023
  54.2784516   4.5924458  29.3545318   3.0779831  19.8015351  14.0934183
   3.2092921  19.0920491  14.7224047   2.1274917  19.8668714  14.0010502
  43.7204627   5.5018791  58.1304550  42.9010705   5.7631477  57.7102566
  43.7362758   4.5480188  58.0521250  69.8910734   8.7875277  54.7558308
  69.4688383   9.6408141  54.8550844  70.1778248   8.5579258  55.6397343
  12.8285444  70.2705193  31.5444899  13.5116148  69.6467590  31.7905998
  12.4720490  70.5767012  32.3783946  17.9640977  28.7947698  42.5030472
  17.5612800  28.3140798  41.7799236  17.5760905  28.4126468  43.2902386
  57.0816986  59.0707536   7.0170833  56.9513373  58.5235162   7.7915289
  56.5575056  58.6500783   6.3355495  19.1464591  47.7448750  54.9319506
  19.8059750  48.4377432  54.8972797  19.0117657  47.5889778  55.8667135
  72.7185614  21.9542213   5.8017399  73.0901106  21.4735265   6.5414144
  72.3154457  21.2792916   5.2556660  35.8064763  59.8203908  21.8108036
  36.5572838  60.2172719  22.2524025  36.0487209  59.8148118  20.8847858
  58.6622360  66.2395239  26.2072420  58.5373607  67.1469688  26.4850593
  58.2907692  65.7179403  26.9187140  66.3488896  32.6303859  15.5313875
  66.9858809  32.2483821  16.1351635  66.6964813  32.4348302  14.6612360
   6.7874043   8.5045858  25.9014084   7.0015852   7.5742812  25.8315136
   6.5596120   8.7656207  25.0091125  75.1057592  57.6701593  45.4572392
  74.9775073  58.5949898  45.2463579  76.0521670  57.5786686  45.5675697
  52.5097004  62.9717241  14.5429518  52.9090301  63.7602507  14.9103691
  52.1079818  62.5345670  15.2937843  30.0705457  63.0808067  50.9244251
  30.7435870  62.8388405  50.2882624  30.5540180  63.4972525  51.6379118
  10.4171841   8.0692716  31.1909820   9.7727673   7.8421636  30.5206253
  11.2280886   8.2155795  30.7038929  36.6101336  73.5773420  42.4499416
  36.6732979  73.9029884  41.5520573  35.9013891  74.0883923  42.8407621
  53.1684616  10.8143945  16.8045284  53.2676811  11.7513127  16.9735481
  52.7163947  10.4779859  17.5782825   3.2535894  70.9335308  61.5622009
   2.7526172  70.1950054  61.2160270   4.1342957  70.5835156  61.6966580
  73.0273970  20.2531524  19.3056537  73.5287292  20.9876485  18.9515163
  73.6633499  19.7540851  19.8182251  22.6105512  26.9507393  26.5566182
  23.4137196  26.6385922  26.1398220  22.2465277  27.5800118  25.9339309
  16.8143527  16.8108316  26.5755512  17.3282258  16.0957570  26.9508316
  16.7542522  16.5993257  25.6439449  18.5184610  65.8552790  56.9439411
  18.1389785  65.7155180  56.0763645  18.7076890  64.9744511  57.2673178
  76.2922819  20.6982465   5.3073742  76.2595876  20.7969232   6.2589170
  77.1819814  20.9595532   5.0699093  36.3811350  69.2625332  56.2394524
  35.9945226  68.4012938  56.0812283  37.3034739  69.0814495  56.4203691
  56.1411767  17.5176711   4.6733429  56.1199112  18.4226556   4.9844457
  56.7058672  17.0628066   5.2982046   9.0544192  46.2264199   1.7572929
   9.3172972  45.4436154   1.2731983   9.1975133  46.9468923   1.1435510
  68.7463196  33.5093780  28.7506058  69.2323621  33.3957715  29.5673611
  68.6270042  34.4558997  28.6725761  19.3302035  58.9581919  43.1212378
  19.4852221  59.1854572  42.2044230  18.9753282  58.0697203  43.0910587
  61.6764418  10.0610718  52.0050955  60.9310237  10.2518257  51.4357090
  62.1726362   9.3917450  51.5339088  22.6083851  61.1961174  60.7158995
  23.2641625  61.2135124  60.0188446  22.8299379  61.9431353  61.2718725
  78.0197267  51.9676781  45.4280376  78.4559254  52.7424479  45.0734997
  78.6485443  51.2579346  45.2973366  26.3163342   4.1371235  13.3008683
  26.1424982   5.0479874  13.5382247  25.4549291   3.7752136  13.0929375
  12.4708009  52.4859428  49.4621468  13.0210233  51.8530941  49.0006351
  11.6967928  51.9860888  49.7215462  62.5760786  66.8214856  22.3809196
  62.1514598  66.2817441  21.7141296  61.8688957  67.0642649  22.9785683
  11.7089050  17.9861159  28.8207962  12.4247687  17.4215074  28.5292675
  11.9616620  18.2569022  29.7034218  28.4564421   4.2145618  47.1892405
  28.1485426   5.1050409  47.0204926  27.7174405   3.7828001  47.6178312
  19.8322789  20.2447076  30.7119991  19.2664497  20.7514234  30.1295044
  19.9002950  20.7783551  31.5037300  24.9559406  72.6659785  18.1471493
  25.8683551  72.9452692  18.0714657  24.5121212  73.0971037  17.4168159
  78.0821426  23.6869569  22.1711208  78.7896736  23.0425401  22.1900989
  77.4651606  23.3849425  22.8377201  23.8232794  45.6827985  12.6866342
  24.4399933  45.0011455  12.4197199  24.0753018  46.4489775  12.1711876
  71.9568011  60.7624006  62.3416138  71.5609244  60.3009319  61.6023111
  71.3259319  60.6590509  63.0540419  55.6595711  22.3930259   7.8810789
  56.2178238  22.8777070   7.2730734  55.0307678  21.9397683   7.3194744
  75.2537164  55.9166813  47.7717781  75.6315070  56.3886261  47.0296383
  75.5349770  55.0102234  47.6474380  58.3242060  20.6640525   2.8266718
  58.7668754  19.9512143   2.3660900  57.4200155  20.6256051   2.5149109
  63.3113201   3.0741878  52.2212269  63.7024625   2.9161568  51.3620045
  62.9426475   3.9552875  52.1581699  25.8517753  20.4551682  55.4719591
  26.4047885  20.7961258  56.1749220  26.0310446  21.0284981  54.7267103
  50.6999365   7.3023972  62.2966671  51.5082399   7.4023804  61.7937946
  50.3789655   6.4312920  62.0634604  64.3503185  24.7497697  20.1094772
  64.7384985  23.9486404  19.7577144  64.5897479  24.7450252  21.0362388
  30.0306623  39.9441190   8.4791710  29.4385974  40.4141755   9.0663101
  29.5439737  39.8685784   7.6584007  10.3388953  64.1529989  57.4080467
  11.0743713  63.9323616  56.8365335  10.4657364  65.0789165  57.6149702
  13.3949701  59.7127671   9.7040273  13.5164635  58.7984319   9.9599077
  14.2819707  60.0387616   9.5517637  24.1070859  31.0071940  58.3363106
  24.8120420  31.0560508  58.9819767  24.3519180  30.2759452  57.7692558
  21.3630700  64.6237659  56.2157774  22.1387029  64.2569828  56.6401577
  20.6313443  64.1305304  56.5866327  44.1299121  15.1270814  13.9092590
  44.5677201  15.4954619  13.1418945  43.5882203  14.4197030  13.5593845
  63.0633994  41.4415975  12.0121815  62.2163816  41.1259885  11.6972448
  63.0735345  42.3706193  11.7818691   2.0961656  35.2980018  35.5592752
   1.6648062  34.4951510  35.8518362   1.5918666  35.5758691  34.7946143
  30.5589740  42.2947879  12.1136572  31.0739247  42.4788041  12.8992750
  31.1293809  42.5493045  11.3883354  12.3104656  66.5332699  24.8888063
  12.8851604  65.9617138  25.3980064  12.7363980  66.6013813  24.0343046
  14.4230032  56.5692902  52.9120398  13.6396027  56.1295271  52.5817013
  14.0989792  57.3913097  53.2801723  21.5639503  16.8011422  12.8487064
  22.2866710  16.7294068  12.2251989  21.9854005  17.0204492  13.6796810
  33.2692020  35.6256719   3.7892677  32.5809257  35.9771533   3.2244922
  34.0778320  35.7648082   3.2963325  18.7713611  62.7578497  54.2615795
  18.1554794  62.6020527  53.5455799  18.3508468  62.3684311  55.0282288
  10.5487609  35.0179458  55.6987667  11.0716105  34.2241597  55.5857801
   9.6433187  34.7079277  55.7159233  50.3537528   2.1294769  30.8860087
  51.2425939   2.3610148  31.1554217  49.9147073   1.8789372  31.6988468
  64.6581812  46.0185952   6.4147522  65.0928052  46.7806573   6.7976238
  65.2641399  45.7108064   5.7407238  28.5470755  42.7658410   9.4237615
  28.5662158  43.1602044   8.5517837  29.3603666  43.0568929   9.8361637
  18.6708832  69.6853828  59.5280027  18.2141721  69.0045881  59.0338755
  18.0039835  70.0449514  60.1129675  34.8875807  47.8224133   8.6061289
  34.1704283  48.4551190   8.5660126  35.6759808  48.3589254   8.6886646
  61.7589283  59.5353937  46.5804577  61.7528439  58.9215374  47.3148775
  62.4230957  60.1833963  46.8154192  65.7187982  39.1490979  15.8993151
  64.9023648  39.0829177  15.4040481  65.4703327  38.9400096  16.7997505
  14.3688790  14.3283267  21.2793495  14.6627156  13.5015721  20.8967640
  14.5562427  14.2397828  22.2138454   2.2256462  17.2361035   4.2895366
   1.4835779  16.9814820   4.8379328   1.8290870  17.5136561   3.4637405
  74.2702182  29.5273442  12.0240690  73.7193210  28.9296765  12.5295736
  73.7330850  29.7674270  11.2690307   2.2743814  18.3708854  31.0976745
   2.1872561  18.2353063  30.1541378   1.6162221  19.0339036  31.3061573
  40.0736634  71.6129600   1.6904785  39.9437288  70.9933101   2.4083807
  39.1926471  71.9202624   1.4769222  57.7444454  12.7935739  24.9582149
  56.8091942  12.9956765  24.9319317  57.9988791  12.7170367  24.0386249
   6.9254613  53.6194754  41.3456488   7.7882576  53.2127762  41.4257240
   6.8085361  54.0968561  42.1670294  73.2111755  64.3811226  31.5867996
  73.4154329  65.1525831  32.1153450  72.2653911  64.2688990  31.6823435
  17.0601909  68.0716844  16.5710117  17.0890491  67.8587384  17.5037815
  17.5563256  68.8868280  16.4959766  49.3041221  10.8315548  56.9454861
  48.8511197  10.4588589  57.7018690  49.3533651  10.1112923  56.3169765
  63.7767275  39.1859193  19.3631031  63.8211079  40.0565000  18.9676906
  64.2454739  38.6200614  18.7496521  11.9212440  26.5661511  57.2724342
  11.9249741  27.3231300  56.6865969  12.7345029  26.1033043  57.0708942
  75.1796309   3.5027536  57.5438118  75.2906958   3.6088165  58.4886122
  76.0294835   3.1870588  57.2367001  28.0112188  18.7049146  22.5110580
  27.0662372  18.7647719  22.3708679  28.3947627  19.1181941  21.7375423
  46.5180613  42.8842540  12.8648569  46.3367279  42.1111722  12.3303510
  47.4225278  43.1151242  12.6530268   3.7438624  10.3961749  39.9008133
   2.9935591  10.0915523  39.3904354   3.5157482  11.2915034  40.1509811
  55.8858673  25.2049717  54.6502256  56.7033974  24.7665390  54.4143009
  55.7495943  25.8481392  53.9545345  41.3989019  63.5795307  59.9428654
  41.7243481  63.6356974  59.0444469  41.6607714  62.7075672  60.2383947
   5.3589337  24.7235675  10.0333406   5.9243385  24.1717143  10.5737163
   5.6133692  25.6187911  10.2570965  61.1524288  12.9956802  48.6290693
  62.0934717  12.9975590  48.8041878  60.9136859  12.0688805  48.6127472
   2.4455012   3.2225898  24.8696947   3.4015560   3.2631338  24.8930836
   2.1832658   4.0185019  24.4071054  58.3964677   4.8450418  13.1609537
  58.7460436   5.4538293  12.5102617  57.6117201   4.4810720  12.7511646
   0.5588350   1.0080003  24.2419577   0.4378179   1.1002386  23.2969284
   1.0599552   1.7829597  24.4960213   6.9238266  63.2113234  40.2501297
   7.0154151  62.8438905  41.1292410   6.0118755  63.0420903  40.0136185
   1.1816360  67.8782988  49.2819214   1.0805333  66.9938946  49.6338272
   2.0668417  68.1379509  49.5373106  18.4866677  43.8642453   9.2147447
  18.0604849  43.0079781   9.2522528  18.4639493  44.1828232  10.1170875
  20.1242075  17.1664666  16.0025360  19.4606666  17.4000727  15.3533985
  19.6266524  16.9912933  16.8012668  16.0916165  63.4827839   9.2783453
  16.4394806  63.8487421  10.0915481  16.8231801  63.5288011   8.6627724
  72.3977259  32.5960398  33.1776571  71.5088317  32.4534631  33.5028815
  72.4277768  33.5285282  32.9636598  68.5192954  64.2361281  25.4324913
  68.4287047  63.3626464  25.0516295  68.6546683  64.8125032  24.6803617
   3.3072850  37.4275756  42.9650116   2.8529954  37.4377608  42.1225452
   3.6248744  38.3236170  43.0767202   2.2367094  21.7703629  43.5497999
   2.3246473  21.1704350  44.2904663   1.2956929  21.8016672  43.3773470
   4.7021254  71.0304609  47.4186468   4.1596469  70.3793517  46.9736671
   4.6654590  70.7818902  48.3422804  47.4366613   2.7769299  13.7739040
  47.0614280   2.7892633  14.6544029  48.1226341   3.4441323  13.7965156
  10.6082630  43.7891865  63.3286715   9.9718159  43.6201954  64.0233707
  10.1889253  44.4475412  62.7746391  19.2901842  22.4776481  16.3877537
  19.1920070  21.6786932  16.9056942  20.0684068  22.3220430  15.8525993
  19.5477418  60.0637709  27.1910049  19.4467387  59.1826283  27.5510361
  18.6769442  60.2903734  26.8645241  -0.0283832  39.1452599  62.6240826
   0.7518593  39.6894550  62.5177574  -0.0701980  38.6269188  61.8204641
  18.6951363   7.2159684  53.1812048  19.1432929   6.4982736  53.6287546
  18.2008719   6.7900276  52.4808407  26.5848085  61.6000210   2.1456482
  25.7797662  61.1901485   1.8291952  26.8907969  61.0200177   2.8429272
   1.4886053  31.7391109  59.8077154   1.6465381  30.8230519  59.5794058
   0.6162724  31.7407799  60.2017498  60.6369582  23.5916376  26.5983629
  60.8115581  22.6837778  26.3502955  61.3833860  23.8385272  27.1443701
  42.0058290  69.0035687   1.2015487  42.0026032  69.4421445   0.3507425
  41.7676226  68.0975781   1.0048916  27.1036530  27.0970154  17.7616525
  27.4679828  26.8667531  18.6163306  26.6880679  27.9481411  17.8998685
  77.6663452  68.6977386  42.0509911  77.8318840  69.3682146  42.7137852
  77.9310416  67.8779507  42.4682665   1.2677069  42.2922707  27.0855689
   0.3557817  42.0018053  27.1014810   1.6992980  41.6932011  26.4764094
  27.6601529  20.2931857  60.4782867  28.1845140  19.5139611  60.6629086
  27.2854114  20.5358386  61.3249969  26.5887666  24.2014027  49.7259378
  27.2947359  23.7524199  50.1909733  25.8935118  23.5471392  49.6567345
  28.2007313  13.1787908  40.8040190  27.4911308  12.7669573  40.3109741
  28.0900502  14.1162252  40.6452751  78.3139385  45.9785461  38.1937218
  78.1102729  45.1334572  38.5944390  77.9044671  46.6225004  38.7715507
  49.9995104  72.4422751   1.7034532  50.2347557  71.7518555   2.3233034
  50.4986016  73.2055174   1.9943144  74.5030254  48.9705276  17.4476969
  73.8249871  49.5576286  17.1133268  75.3220040  49.4454908  17.3065877
  57.3299065   4.2693299  37.2959423  56.4951673   3.8562518  37.0750141
  57.9549590   3.8924575  36.6766620  39.4700531  59.9400793  14.1785051
  39.0461544  60.7982980  14.1769459  39.3299750  59.6021496  13.2939627
  24.1680932  32.5139546  33.4249949  25.0563407  32.3455739  33.7394691
  24.2272305  32.4131584  32.4749565   6.0674757  59.2729044  14.5016062
   5.2199721  59.6811914  14.6784413   6.1136734  59.2207575  13.5469449
  17.5633502  30.8929086  59.7002268  16.6854882  30.5840087  59.9242210
  18.0425906  30.0996232  59.4609404   0.6644361  20.4223294  35.2225448
   1.0523646  21.2958999  35.2737667  -0.2688725  20.5651136  35.3799583
  51.0672939  64.2319283  61.0797071  50.1205830  64.1247568  60.9875965
  51.4391007  63.4729258  60.6303692  28.4616756  34.7323155  26.8571043
  28.3961535  34.6910071  27.8111649  28.6283588  35.6557751  26.6682339
  68.5425159  57.6650286  50.1613569  69.3211415  58.2107544  50.0510931
  68.7738016  57.0567656  50.8633184  36.1701941  10.1214433  57.0088959
  36.2399387   9.4008160  56.3827467  35.8598804   9.7090822  57.8150558
  60.5403964  54.7693430  18.5906936  61.2969152  54.7231303  18.0060818
  59.8337094  54.3478058  18.1016876   3.0191867   0.2949853  19.7380592
   2.2576229  -0.0790386  20.1811840   3.5163490   0.7221146  20.4356434
  28.2112054   9.5959744  43.0920601  28.3318294   8.9137920  42.4315262
  27.2697036   9.7685894  43.0889416   1.6101763  29.8941588  54.7061110
   0.7384910  29.8403597  55.0979042   1.9939768  30.6856608  55.0835371
  74.7143266  32.1031046  16.8280435  74.4229913  31.3579798  16.3025475
  75.6496432  31.9502974  16.9624496  36.7066387  46.9277118   0.8614685
  37.6551739  46.9848828   0.9765531  36.4984170  46.0108475   1.0410120
  35.0409482  10.4912170  28.6318922  35.8234731  10.9548935  28.3337450
  35.3016011   9.5704254  28.6529613   7.5057608  21.6665554  53.1330538
   7.1429992  22.5208831  52.8990412   6.9671917  21.0378838  52.6524830
  71.6425935  52.2072220  36.5710902  72.5081071  51.8110085  36.6717410
  71.0329482  51.4730549  36.6456676   9.1566137  63.0753599  11.2642195
   9.4405357  62.3948751  11.8745949   9.7835711  63.7874757  11.3908912
  10.4228091  31.6115093  53.1678247  10.3454351  30.6736851  52.9925299
   9.5269012  31.9421148  53.1024027  15.4776442  25.8549833  61.0675335
  15.3207147  24.9118972  61.1143780  16.3469338  25.9724593  61.4506388
  16.9278800  30.5195093  45.2255487  17.7732468  30.0705743  45.2320862
  16.3405704  29.9175978  44.7683811   2.4004063  53.6960602  44.0283966
   2.6239601  54.5861101  44.3005562   2.8675577  53.1325388  44.6451998
  55.4962507  40.6101942  39.8159671  55.9519735  40.0773811  39.1643095
  55.8890382  41.4790487  39.7320676  37.5412587  50.1057004   3.6675646
  37.7427045  49.5565938   4.4252827  37.3508684  49.4840084   2.9650833
   6.7600870  49.6482229  39.1861987   6.9508857  50.5774403  39.3142009
   7.2547209  49.4078588  38.4027481  74.2213542  58.1482063  20.3349926
  73.7119562  58.9069568  20.6196739  74.6645744  58.4422051  19.5391514
  72.8807637  28.0219626  58.8822937  72.1970913  28.6826825  58.7714958
  73.2379273  27.8971052  58.0030489  59.8715202  55.0527488   0.8209898
  60.8079616  54.8544858   0.8206608  59.4545380  54.2391263   1.1044933
  21.7086720  23.5780358  32.8592634  21.4734411  22.6512170  32.8155994
  22.2842240  23.7147713  32.1067524  40.5597714  56.7727338  17.5238754
  40.9814516  57.5369369  17.9168274  40.5045561  56.9825767  16.5916015
  30.8164472  65.9825359  25.3789951  30.5631814  65.0653087  25.4828216
  30.2314208  66.4605580  25.9667637   9.7093147  24.4533443  58.6890316
   9.5766449  25.3704047  58.9290905  10.2059400  24.0840459  59.4192457
  19.3020439  37.6006246   4.2561746  18.8834047  36.8300462   4.6398175
  19.7305930  38.0330586   4.9948072  48.1700078  64.7718000  48.3837461
  49.1008297  64.9248648  48.2213449  47.9087153  64.1461182  47.7081156
  24.8715878  18.7952185   0.4692052  25.5190825  19.4945014   0.5585734
  24.6819353  18.5280347   1.3685808  19.0666223  26.2365985  57.5493288
  18.5169995  25.6822276  58.1032419  18.6198211  26.2473726  56.7028761
  28.9559889  32.2091150  22.6011562  29.6879148  32.4875927  22.0507336
  29.2352462  32.4151111  23.4932399  46.1851110  13.3819575  12.1211817
  46.8861277  13.6380191  11.5218164  46.1549629  14.0858502  12.7691414
  61.1849359  27.6624942  51.5819025  61.3160721  28.1849861  52.3731279
  60.6846502  26.9018126  51.8773890  45.5255596  58.5525785  22.5709583
  44.6266393  58.8707481  22.4876453  45.5856244  57.8362237  21.9389297
  56.0154740  56.5957724  43.8456680  56.9664375  56.6818415  43.7786438
  55.7433812  56.2702225  42.9876377  57.5773986   9.3774314   6.7402889
  57.4761172  10.1794047   6.2276365  56.7099918   8.9729161   6.7260553
  72.6356176  34.3974662  30.6819797  73.0410710  35.0061369  30.0644374
  72.4180982  34.9369574  31.4421558  29.2646360  57.0124769  52.3335838
  30.1274681  57.2330904  52.6844168  29.4025445  56.1950970  51.8549347
  75.9460989  26.7459440  42.4334526  76.7178106  26.5317440  41.9092274
  75.9197551  27.7027512  42.4410534   9.7526377  17.7904606  35.1565957
  10.2244759  17.6466250  35.9769082   8.8412446  17.9121041  35.4226732
  63.5170582  47.8898478  59.7563696  62.9231849  48.4915018  60.2053213
  63.7298611  48.3320808  58.9345551  74.7586098  50.1782703  60.6803036
  74.1066092  50.4773664  61.3140774  74.2483196  49.9383640  59.9068165
  69.5157901  65.0579548  42.2868872  70.3618881  65.2132130  41.8670702
  69.2285177  65.9245491  42.5745010  60.4784408  13.5898042  40.7530642
  59.8038557  13.9859402  41.3046503  61.2693146  13.6074471  41.2919903
  52.9468481  68.4413134   2.5202610  53.0746857  69.0774356   3.2239916
  52.4194614  67.7479921   2.9169990  61.1797849  14.2961868  55.9060287
  60.5039088  13.9740738  55.3096533  61.7999999  14.7552475  55.3396130
  25.4325795  16.1978233  38.9055657  25.1114655  16.8780804  38.3136463
  25.1011157  15.3805649  38.5334754  42.5427906  72.7489244   9.0971376
  42.4000052  72.6750551  10.0407411  41.9678108  72.0857559   8.7152483
  67.0360163  26.6188288  58.8022804  67.1104851  27.5598860  58.9607143
  67.7814391  26.4110708  58.2388878  15.0927428  53.7432943   1.8050291
  14.4731609  54.3297456   2.2391083  15.4827706  53.2369934   2.5176050
  62.3310247  38.8746071  55.3344202  62.4837425  38.3168125  56.0971642
  61.4780477  39.2767000  55.4986858  20.0692630  12.6460052  30.3444505
  19.9587274  13.4496856  30.8524990  21.0059237  12.6124179  30.1501131
  54.8034827  18.8462300  10.7752373  55.1064475  19.0584846   9.8924066
  55.0684430  17.9359193  10.9069921  56.6446152  24.9521399  62.1270895
  57.1516481  24.1571236  62.2916937  56.9205347  25.5587482  62.8142023
  32.2889773  68.2585846   6.5382530  31.8979660  68.2477246   5.6646301
  32.3626248  67.3351370   6.7791941  42.5712624  24.2178798  44.8723269
  43.1753841  24.7454381  45.3947735  43.0595318  23.4182358  44.6763754
  15.5456471  36.7675400  56.6966915  15.3138614  37.4261093  57.3515177
  15.0354064  37.0086026  55.9235334  14.0525365  30.2026939  43.6551714
  13.1611490  30.0288057  43.9575338  13.9831161  30.2171612  42.7006006
  11.1596755  59.8877965   4.3877031  11.4340941  60.6335102   3.8540031
  10.5601088  60.2627097   5.0328352  51.0795919  68.8995181   9.3616773
  51.9405405  69.1760956   9.0478231  51.0411183  69.2149554  10.2645876
  65.3543134   2.8158922   5.1057770  65.3387304   3.7071128   4.7569038
  65.5360194   2.9271264   6.0389664  14.1139126   9.8690063  33.4829259
  13.4855950  10.4698980  33.0824542  14.4964910  10.3683472  34.2043996
  55.0222102  42.8780174  53.2138300  54.1194239  43.0127621  53.5020161
  55.3720012  43.7618208  53.1008434  70.5857357  45.7500648  59.5890570
  70.8613250  46.4275360  58.9715528  69.6354070  45.8496761  59.6454859
  45.2728216  62.4648534  16.8766262  45.7575194  62.6601635  16.0746624
  45.8244041  62.8082882  17.5795128  59.9350920  14.4447196  58.5039520
  59.5888200  15.3049922  58.2667637  60.5600050  14.2381346  57.8089428
   2.8887987  30.2931809  39.3705773   2.0181523  29.9576521  39.1569734
   2.9203445  30.2855802  40.3272295  70.2733055  30.7600331  53.5928679
  71.1138800  30.4993582  53.9693165  70.4277232  30.7733727  52.6482964
  46.8599701  17.9964197  28.7980843  46.0006809  18.4086180  28.8872480
  47.1162558  17.7805483  29.6947169   8.8768154  35.0349879  46.6467857
   8.3306444  35.7809305  46.8947697   8.6856669  34.3683505  47.3065519
  39.3946413  70.5469905   9.1501905  39.6022049  70.4260360  10.0767567
  39.2903093  69.6583377   8.8101293  59.1148509  23.7431665   0.6281568
  58.4967770  24.0992971   1.2664272  59.5995428  23.0741496   1.1116077
   4.3418185   7.9078182  40.7925177   4.1360060   8.6085686  40.1737976
   3.6305181   7.9367146  41.4323997  57.9578163   3.1974025  39.8747589
  57.5833322   3.5612912  39.0725185  57.7193148   3.8253446  40.5566933
  44.8244476  25.4305506  45.6628275  45.3093863  24.7843313  46.1761189
  45.2203465  26.2695813  45.8984661  66.7907961  13.8925262   9.7829534
  67.1961851  14.4204707   9.0950825  66.7339249  14.4818778  10.5350591
  33.2480858  29.0822195  18.2779552  32.4414460  29.3708871  17.8510620
  33.7160388  28.5939323  17.6005890  39.8503665  51.6641174  18.2429363
  39.3658046  52.1115743  18.9366295  39.4866864  52.0169138  17.4308349
  22.5465369  23.6482716  62.6106405  23.3584571  23.6910892  62.1054792
  22.8003812  23.2388067  63.4377623   7.8520519  26.3156176  41.2319803
   7.0712388  26.0684776  40.7365179   7.5124794  26.7677331  42.0043230
  12.5497818  10.9236062  58.1216526  11.8128300  11.3782942  58.5295630
  13.1808841  11.6165698  57.9273701  14.8138070  19.8385596  44.9694872
  15.3214848  19.1278327  45.3611040  14.7123945  20.4774451  45.6750154
  35.8795027  49.7294997   6.4601900  36.6236619  49.4023942   6.9656231
  35.5888186  50.5066107   6.9375088  21.1123753  26.9334102  47.9218578
  21.6328287  26.8010259  47.1294975  20.9088421  27.8687215  47.9212379
  14.8008525  21.4598560  47.1158123  14.0353346  21.7537880  47.6095915
  15.3854465  22.2177458  47.1066713  42.0556560   5.9833807  44.8519993
  41.2345806   5.9266323  45.3407192  42.3404256   6.8900257  44.9665928
  69.2092416  47.1275520  54.6663094  69.8928943  46.4837170  54.4810295
  69.5334771  47.6088715  55.4275131  49.2551772  61.7246424  16.6732456
  48.7720720  61.9165813  15.8695080  49.1522757  60.7808052  16.7949440
  53.0907574  39.6941161  48.1302357  53.3418766  39.9404025  49.0204716
  53.8966408  39.7815681  47.6211882  23.7161406  69.0437828  11.8703653
  23.4693135  68.3762609  12.5104572  23.4333704  68.6851393  11.0291435
   0.4871591  32.8574300  35.9885788   0.4729293  33.1184554  36.9093919
  -0.4280789  32.9041982  35.7122016  15.1208949  27.2304034  48.7014818
  14.6261644  27.3469138  47.8903723  15.0837576  26.2891698  48.8715839
  56.1085096  15.5700564  54.1924763  56.7377749  16.2666547  54.0053654
  56.4352623  15.1610208  54.9938250  14.7876219  63.3468972  17.1452667
  13.8721112  63.1283699  17.3193886  14.8634986  63.3181726  16.1915066
  54.2659488  39.6261001  53.0173731  54.9512687  38.9688087  53.1379271
  54.1371241  40.0004244  53.8888788  29.9744830  52.4677979  17.5158741
  29.2663149  52.5569902  18.1536629  29.7618905  53.1024705  16.8316032
   6.2986497  42.6443867   7.6276542   5.5837861  42.3213570   7.0791532
   6.0747615  43.5591869   7.7986671  53.9232650  21.8148208  52.9075527
  53.4409109  22.2670889  53.5996628  54.0010062  22.4626231  52.2071695
   4.7578852  26.1376567   5.9110500   4.8045771  26.8625159   6.5344526
   4.0918700  25.5530830   6.2728836  67.2749570  47.8667927  58.0493689
  68.1954613  48.1201172  58.1181574  67.2777382  47.1112728  57.4616528
  78.2750399  64.8958074   3.2495310  79.0605957  65.3034769   2.8849222
  77.7949888  65.6191193   3.6527731  73.6565098  26.5621853  35.6041241
  73.5909191  25.7808518  35.0550818  74.4984588  26.9512224  35.3674746
  66.1356870  63.2069694   0.9400417  66.5813939  64.0540181   0.9492924
  66.8402783  62.5666462   0.8411838  21.3823843   0.8500666  44.2855978
  20.4829669   0.9277643  44.6037912  21.3858724   0.0421921  43.7722206
  59.7366388   9.3673415   8.3715011  59.1152473   9.4172235   7.6451303
  60.5677427   9.1305633   7.9598810   3.6681423  35.7902980  37.9394126
   3.4514022  35.7556129  37.0077181   3.7973580  34.8754215  38.1894803
  26.3125209  62.8495513  22.4737408  26.7159461  63.5235392  23.0207493
  26.0479629  63.3127843  21.6789772  75.8436197  26.7513609  31.6962719
  75.9281072  26.9835186  32.6210427  76.1117038  27.5406313  31.2257290
  68.6785528  43.6587763  27.9653883  67.9570642  43.6782408  28.5941243
  69.3668673  44.1833591  28.3743691  78.3017762  26.7059131  10.5644657
  79.0799005  26.8889756  11.0910036  77.5713976  27.0125957  11.1017944
  28.5318060  69.3635546  21.6196968  27.8334574  69.9588595  21.8920090
  28.0888515  68.7017284  21.0886528  59.4653945  72.8964069  16.3144875
  59.2061638  73.5536534  15.6686866  60.1764082  72.4137646  15.8928859
   9.0774441   5.2243948  42.5420904   9.1531467   6.1234570  42.8617620
   9.6711391   4.7212470  43.0994081  60.4241172   3.2979998  42.6256466
  60.7261650   2.7576574  41.8955612  60.5573217   4.1981348  42.3285770
  42.7918366  63.4079753  18.0110123  42.5850049  62.9286824  18.8133385
  43.5417596  62.9425560  17.6405575  73.8991502  50.7583189  23.0608845
  73.1774262  50.1301861  23.0890322  74.0880027  50.9474993  23.9800024
  56.6490832  43.4939623  49.4774771  57.5794783  43.4969187  49.7023916
  56.5117040  44.3209982  49.0155602  28.1665037  10.0836643  59.1550970
  28.7566731   9.9803433  58.4086037  28.4303782   9.3956741  59.7660589
  71.0878214  47.1956205  25.8079505  71.9620898  47.5802469  25.8707905
  70.5310825  47.9140854  25.5078101  30.2073415  10.2958293   7.5885250
  30.1783235  10.3477283   8.5438778  29.2923768  10.1943679   7.3262693
   4.9054101   1.6620888  44.3965769   5.1201606   1.1261399  43.6331129
   4.8669240   2.5566140  44.0580845   3.3038920  69.9270916  31.1392117
   3.4946775  70.8208942  31.4237309   2.5778189  69.6480083  31.6970301
  75.9321836  52.7415895  59.6900225  75.3490278  53.1220627  59.0332127
  75.4372525  52.0070744  60.0530195   3.0973014  58.7702847  32.5706530
   2.2951809  58.9442968  33.0631542   3.0588409  57.8344727  32.3731494
   7.5566423  45.9334564  35.2707028   6.6562092  46.1052084  34.9951077
   8.0618858  45.9429741  34.4577646  24.8548055  47.1353722  61.4278316
  24.6422458  47.6770496  60.6678057  24.7389770  46.2361240  61.1209726
  51.9895069  60.4526459   4.8855593  52.5344078  61.1661254   5.2176191
  52.0653097  59.7653662   5.5474760  56.9599453  27.6263189  36.9960260
  56.6829744  27.5590181  36.0822487  57.6444402  26.9636035  37.0882559
   9.6918339  46.4101553  32.8177142  10.4383135  46.4195633  32.2186208
  10.0760400  46.2329960  33.6763358   6.5062529  50.5170298  42.0539522
   5.9005535  51.2346268  41.8684435   6.3144511  49.8621273  41.3827229
   6.7836040  41.3563871  31.0100794   7.3238719  42.0184851  30.5788374
   6.0152477  41.8373537  31.3175392  65.8995667  55.8523941  46.0801792
  66.7987922  56.1245966  45.8970642  65.9705249  55.2989340  46.8579197
  10.1771653  48.8399935  53.4006310  10.8883107  49.3682194  53.7632275
   9.9280763  48.2519007  54.1136026  42.3780860  42.8856225  16.6851856
  41.9142230  42.2836633  17.2671749  43.2761909  42.8944297  17.0161869
  62.9130594  72.2293197  10.5507805  62.3977391  72.7964054  11.1244442
  63.2504837  72.8162180   9.8740770  75.9315240  42.7721596  58.2157516
  76.3372381  42.7590132  59.0826178  75.9808603  41.8649626  57.9144335
  69.6787615   0.5854673  13.3230116  70.4693873   0.7670803  13.8311054
  68.9675362   0.6317802  13.9619543  64.7666529  48.1641674  52.1781349
  64.4299832  47.6617289  51.4362192  65.6820336  47.8948545  52.2541475
   3.5516214  57.4141073  48.7136316   4.2427710  57.5306177  48.0617332
   3.6982435  58.1171799  49.3464231  14.5636916  71.0172272  47.3742342
  14.6508539  70.1050663  47.0974684  14.0371835  71.4265871  46.6876173
  70.4855368  50.5317593  45.5288649  69.7628936  50.6649828  46.1422729
  70.8729914  49.6972275  45.7928181  72.5426927  17.9011750  50.7802677
  72.8415862  18.7695861  51.0500050  72.0018473  18.0633998  50.0073528
   5.7619250  50.7383728  59.4173050   6.0101807  51.1678457  58.5986710
   4.8047766  50.7462931  59.4112492  11.7548609  64.2977381  35.8072782
  12.0683467  64.9838257  35.2180099  12.3291016  63.5519075  35.6334543
   6.7649221  26.2855363  54.6226501   7.5878924  26.6598272  54.9370670
   6.1867189  27.0398474  54.5089483  63.0900450   3.2985921  36.2671043
  62.2273345   2.8916044  36.1875774  63.3550222   3.4765430  35.3646900
  30.6058023  53.3268009  10.4317047  30.2307073  53.1913816   9.5615341
  31.5518985  53.2771336  10.2950765  63.3243306   9.9759574   2.9176475
  63.4823592   9.0882726   3.2390119  63.1250925   9.8623223   1.9883348
  62.6732901  55.7873344  51.3634634  63.5141268  56.2003756  51.1669445
  62.6950815  54.9595070  50.8833981  44.3186633   0.6313786  34.2242551
  43.4643618   1.0544142  34.3105268  44.1580252  -0.1180187  33.6508203
  11.1876965  72.2153997   2.7418265  10.4694045  71.9695902   3.3248043
  11.0156155  71.7330408   1.9331565  28.5272735   1.9848045  17.2730720
  28.0059620   2.7575335  17.0554614  28.0820683   1.6004309  18.0282402
  77.2385924  60.9043360  53.7145615  77.5069498  59.9882650  53.6436462
  77.6612286  61.2164736  54.5146751  67.2927418  41.8011951  43.1331158
  66.5873912  41.2019396  43.3772564  66.9394925  42.2992420  42.3959589
  58.9185120  18.2465262   4.4597914  59.1082139  17.3767800   4.1079618
  59.7780491  18.6151309   4.6636583  28.7993240  62.0344448  20.9664607
  27.9310036  62.3091745  20.6718850  29.4026875  62.4377680  20.3423476
  59.4204708  37.1206756   4.5609619  58.6588551  37.2416587   5.1280023
  59.9662395  37.8896041   4.7256328  76.0475691  68.0231237  55.0627899
  76.9640172  67.8839684  54.8240614  75.7845542  68.7959290  54.5629644
   2.4755849  70.9037256  44.3830919   1.5853006  70.8056498  44.7207403
   2.5560278  71.8372393  44.1873598  15.6921785  28.8829560  18.7292244
  15.8228032  28.2352300  19.4217636  15.2793281  28.3931632  18.0179645
  54.6593086   3.8273891  39.0646219  54.8255936   4.6739849  39.4791794
  54.0379969   4.0221819  38.3630109  63.7047894   5.9956641  18.1053974
  64.0187462   6.8105645  18.4973194  62.9767032   6.2643142  17.5450851
  11.2630010  30.8918071  64.1195965  10.5543780  30.3089118  64.3922138
  11.6209221  30.4817438  63.3322144   3.3862917  38.5363669  18.1970264
   2.5705139  38.0451102  18.2940151   4.0160148  37.8930945  17.8716327
  20.5793643  44.7050953  48.8261938  20.2180338  45.2827740  49.4984722
  19.8296380  44.4807291  48.2750130  26.4120865  54.5892525  45.9078741
  26.1878657  55.5040503  46.0784817  26.8343186  54.2918301  46.7137814
   3.7328160  59.4743681  50.6216955   3.3365646  59.7155285  51.4589882
   3.9846477  60.3090858  50.2266502  69.0807632  11.3545585  60.4131651
  69.6935281  10.8328497  59.8949242  69.5225939  12.1953988  60.5314970
   5.6905752  35.0260186  54.8636103   5.0527889  34.6794677  55.4875994
   5.9226525  34.2755675  54.3166256   6.3623166  38.3320189  53.1098366
   5.5663490  37.8627610  53.3597660   6.5805215  37.9889274  52.2432852
   5.0354260  16.7288649  61.1103296   4.3316853  16.8487728  60.4726744
   4.6135074  16.8579066  61.9597816  61.8179933  20.2443012  39.1625500
  61.9492189  21.0247692  39.7009516  61.4165155  20.5729565  38.3581662
  69.7122390  73.2153903  16.8650963  69.9239857  73.5888778  16.0095836
  69.6579082  72.2727190  16.7080929  65.6851919  22.3890824   6.2007095
  66.1051662  22.5958629   5.3657867  65.9641440  23.0904765   6.7893221
  72.9006656  32.2211166  29.0924885  73.7999280  32.3897739  28.8112213
  72.7138670  32.9140611  29.7258617  23.1667995  62.6346684  53.8117695
  22.8945374  61.9166183  53.2403564  23.1963301  63.3998203  53.2374001
  72.7727301  37.9151912  26.2803699  72.1041592  37.3215194  25.9386207
  73.5054953  37.8270335  25.6708576   2.1832836  54.2058706  46.9836855
   3.1397516  54.2332125  46.9581270   1.9619569  53.3136988  46.7167139
  31.2307763  66.8917370  49.2479753  30.5929828  67.6034355  49.1938162
  31.5122342  66.7530203  48.3436680  46.5433041   5.1612457  45.6064272
  46.8567769   5.7204422  44.8956108  47.3328535   4.7392019  45.9451294
  19.4442670  48.6459298   4.6847297  19.3025748  49.5661016   4.4623758
  19.2578857  48.1722016   3.8741304  34.9243549  46.0690568   4.5496132
  34.7845910  45.6640504   3.6936523  34.1279361  45.8697759   5.0417854
  69.8884495   3.4030194   4.7451116  69.8815985   3.2165332   5.6839420
  70.7993646   3.6243482   4.5515253  16.0704780  54.5249510   7.2718364
  16.6079092  54.0653896   7.9169744  16.5002286  55.3732729   7.1627676
  16.7650330  49.5770121  56.9766665  17.2627723  50.3924561  57.0361757
  16.8186629  49.3305159  56.0533094  17.3053050  56.4818048  61.9587374
  17.3297536  57.0985746  61.2271452  16.3766396  56.4076138  62.1785259
  11.1962116  36.6272712  57.7665520  11.1894584  35.8752036  57.1744585
  11.9623458  36.4871454  58.3230019  55.6200305  71.7758274  44.4604874
  54.9270073  72.3964834  44.6857309  56.2328711  72.2837019  43.9287710
  62.5329724  41.9572210  53.5199690  61.6154328  41.7868662  53.7328815
  62.5118056  42.7533293  52.9889393  23.5868064  19.4685253  56.5646172
  23.2972804  18.8244232  55.9184456  24.3254375  19.9114689  56.1469364
  46.7524888  28.2189746   9.7854473  46.7488326  28.3622785   8.8390400
  47.6508273  27.9549689   9.9842455  16.8878603  61.7387676  47.1518230
  17.4385023  61.0708570  47.5603819  17.2707605  61.8668079  46.2839365
  70.1318893  37.6831055  53.4984493  70.7676795  37.9644871  52.8405571
  70.6590512  37.4896431  54.2736340   8.0739772  46.2973118  49.0729094
   7.5890189  45.6372786  49.5682907   7.7249181  46.2338829  48.1838846
  67.6017089  42.6141639  13.0141594  67.3398669  41.9824548  13.6839439
  67.0000871  43.3495565  13.1302645  65.0677522   5.9192319   6.4939644
  64.1823764   6.2718244   6.4044191  65.3027757   5.6348653   5.6107094
  71.3523932  48.3973165  29.1020538  70.4097469  48.2476182  29.0296604
  71.4427801  49.3500371  29.1218712  67.1117917  57.8990316  38.7180686
  67.8933838  57.3511410  38.6462331  66.7467764  57.6842165  39.5764685
  48.2838821  23.1133485  60.0003242  48.3873558  22.8491640  60.9145069
  49.1792202  23.1948400  59.6717501  74.3134558  53.9944410  57.9393196
  74.9978313  54.4481373  57.4473619  73.9373061  54.6692753  58.5044193
  39.0595702  67.6948057  15.7379247  39.2512218  67.3432027  16.6073372
  38.9276222  66.9208799  15.1903250  68.6910541  36.4993901   1.4443542
  68.4966810  35.5623574   1.4647772  67.8565545  36.9123216   1.2222435
   3.2117268  56.0371876  44.5812464   3.3739817  56.3642740  45.4660749
   2.8585747  56.7907619  44.1083384  75.6589468  43.0794664  33.2739593
  76.5308340  43.0184693  33.6642410  75.5558474  42.2607465  32.7888920
  25.9435248  28.6129498  21.3959765  26.1048484  27.8202748  21.9077134
  26.7798138  28.7959242  20.9677577  57.2811864  17.4265666   2.1781732
  56.8636061  17.4664636   3.0385639  58.1756415  17.7308793   2.3317148
  39.3096332  60.1195107   1.8325283  39.6736399  59.6919809   2.6077368
  38.8318531  60.8739363   2.1772005  19.2842722  67.6428461  43.1818390
  18.4990120  67.7523279  43.7181330  19.1332221  66.8302298  42.6990700
  24.7599649  53.3029222  43.8079071  25.3082752  53.9125633  44.3017912
  25.3234482  52.5445700  43.6542273  24.7011010  24.5000548  26.2890198
  24.2024963  24.6582265  25.4873993  24.2660062  23.7519689  26.6980316
  77.7821629  50.1151037  22.6464677  77.6650822  51.0626459  22.5780034
  77.2903196  49.7589159  21.9065690   1.1063359  55.7527304  40.2470207
   1.5515459  56.5298986  39.9093461   1.2592104  55.0812864  39.5821714
  35.9808373  32.1549225  61.1463308  35.5876923  31.3681221  60.7686949
  35.2765203  32.5525188  61.6582775   2.3785594  58.5034132  42.5299788
   2.0973255  58.3744335  41.6241598   3.3211333  58.6583042  42.4683762
  77.8237598  38.4705782  60.0814152  77.1774730  38.2082081  59.4258928
  78.1381793  39.3229413  59.7800064  11.2342811  32.3497510  26.1364126
  12.1370780  32.6641870  26.1845732  10.7182229  33.0380297  26.5561581
  59.9028196  24.7014422  32.0415451  59.1134448  24.6873517  31.5003158
  59.5958056  24.4728274  32.9188682  41.1838150  60.3132200  54.8631573
  40.2382612  60.2359390  54.7359419  41.2764692  60.8459377  55.6530046
  77.3574078  59.9170685  41.6664410  77.6061332  59.6042824  42.5362301
  76.4181267  59.7420645  41.6085196  34.3324423  59.2087078   8.7594140
  33.8379741  58.8435555   9.4931698  33.6756563  59.6594858   8.2286924
   9.0190117   4.7052283  23.5420181   9.9140351   4.3695445  23.4922172
   8.9511387   5.0767322  24.4215729  19.0036297  63.8451862  50.2638006
  19.7634828  63.6147404  49.7292471  18.5669887  63.0101490  50.4320002
  35.2713249   5.4498085  40.8468151  34.5993272   6.1313328  40.8338308
  35.4945735   5.3159937  39.9256849  39.1983910  15.8965297  13.8635542
  39.4018729  15.5674977  14.7390940  39.1045876  15.1090379  13.3275606
  73.2409522  51.7754507  45.6433344  73.2372198  52.4894047  46.2808943
  72.4788049  51.2442970  45.8740759  32.5917070  29.1215320   6.3201906
  33.4354369  28.6794372   6.2258102  32.3753993  29.0292115   7.2480442
   5.2443129  56.9407320  29.0424418   5.6766725  57.1182871  29.8777699
   5.9167469  56.5153503  28.5103559  75.0215244  25.0153232  29.6580887
  75.3704909  25.6998158  30.2289867  74.3502876  24.5825434  30.1857042
  60.6499211  69.6747767  17.9405929  60.4709116  70.4492222  18.4739067
  61.1227671  70.0120054  17.1797230  54.7919574  23.9770746   9.6824270
  54.7067586  23.5710526  10.5450499  55.0880042  23.2677031   9.1120058
  18.7155962  64.8377895  22.0882463  18.2990611  64.0941572  21.6526556
  18.0534053  65.1582956  22.7006292   4.6465007  60.0509440   5.7023479
   4.9641625  60.0124703   4.8002149   5.2682272  59.5181309   6.1981298
  67.9990895  52.0030923  11.8128063  68.4478553  51.4658876  11.1599209
  67.4219199  52.5697656  11.3009645  52.0360080  70.1596533   0.3521015
  52.3091809  69.8855077  -0.5233715  52.2294156  69.4064175   0.9101917
  73.9017192  43.6263704  37.2842765  74.2164642  44.2288446  37.9582143
  74.3846104  42.8153992  37.4435544  21.1811924  53.6302137  61.1518097
  21.5123391  52.9901552  60.5218077  21.7420387  54.3965769  61.0319185
  48.9517465  25.7496023  46.1360836  48.4228411  26.3686705  45.6328487
  48.6744991  24.8883772  45.8235836  19.0264014  51.6264819  15.7028009
  18.2458553  51.2166058  16.0756065  18.9320765  51.5060245  14.7579099
  38.7729383  66.1536503  54.5982313  39.5972061  65.6872368  54.7370386
  38.3612180  66.1746740  55.4621029   1.4655472  51.4727020  37.4277496
   2.3937580  51.6278648  37.6026249   1.4222236  51.3177729  36.4841652
  13.0598644   2.6129469  45.4717922  12.9828636   2.7602657  46.4144468
  12.6328985   1.7688116  45.3256273  28.7468116  26.3581462   2.8747894
  29.3955486  26.4414353   3.5736706  29.0584104  26.9468494   2.1873524
  59.7658745  48.5976028  15.7387757  60.3735784  48.1792116  15.1289606
  60.1043168  48.3736134  16.6056764  24.4379219  23.9316448  34.8717332
  24.4058371  23.1029972  34.3936753  24.2023816  24.5928749  34.2209458
  30.7347775  73.4877825  46.8416166  29.8624539  73.4253359  46.4525366
  30.8306336  72.6797009  47.3456478  72.5377090   4.4716735   4.3942167
  72.4810226   5.2645059   4.9275448  73.4755762   4.3476148   4.2484571
   7.7613299  49.0863462   0.5042936   7.0893519  48.5047288   0.8598234
   8.0293791  48.6700673  -0.3149126  17.6317847  57.7946758  46.1007595
  18.3116460  57.2058725  45.7731438  17.9826570  58.6725521  45.9509182
   7.9876678  29.1980023  22.8022148   8.7632672  29.3109412  23.3516933
   7.7326910  28.2846494  22.9326202  48.4665298  50.2771378  45.2644396
  49.1862011  50.7199717  45.7141113  47.8029203  50.9569216  45.1472235
  73.4551890  20.4169459  23.7825825  73.4626968  19.4653220  23.6797001
  74.0144570  20.7387109  23.0755283  27.1700692  66.3035059  51.4831495
  27.0845032  65.4349089  51.0901499  27.7355075  66.1677361  52.2434664
  50.7687680  16.0727104  38.4376836  51.4950673  15.9584126  37.8247762
  49.9963395  15.7874664  37.9496026  66.5888707  13.3106312  25.2976656
  65.7867161  12.9206547  24.9502397  66.5836588  14.2073998  24.9629998
  19.5333970  61.9417143  21.2247133  19.1150343  61.9199228  20.3640580
  18.8397944  61.6903877  21.8346167  47.0470493  17.4857373  25.5348827
  46.4062135  18.1206269  25.2147724  47.7630536  18.0203624  25.8780243
  71.8927447  13.7438187  46.6083670  72.5700776  13.4373936  47.2113180
  71.3036410  14.2643627  47.1544600   7.6762621  21.7034192   6.9562246
   6.9242494  22.1870132   7.2980501   7.4200837  20.7835765   7.0232679
  65.9428163  13.9321704   0.2025892  65.8882721  13.0406900  -0.1416729
  66.8725844  14.1532321   0.1487829  12.2649229  48.8623953  41.3222027
  11.5256011  48.2641220  41.4303827  12.8134251  48.4474087  40.6564999
  74.7705753  23.8573737  37.9782821  74.6662600  22.9339595  37.7488090
  75.2305086  24.2394395  37.2308018  11.8682878  55.0187917  20.2384903
  11.6404335  55.9461732  20.3039505  12.8251569  55.0082917  20.2156021
  29.3570948  61.3818026  53.0698586  29.3336415  62.0791435  53.7251472
  29.6237350  61.8209457  52.2622156  62.6287110  17.0424934   6.5747883
  63.5031851  17.2774024   6.8851854  62.2846623  16.4565082   7.2489406
  57.5425100  72.4409914  28.5552430  58.0242538  73.1353951  29.0046430
  56.7609453  72.3062086  29.0911746  48.5189525  66.6285144  29.9460365
  48.9947335  66.3979684  30.7439758  48.1657950  65.7972084  29.6291115
  26.0922815   0.3294405  41.1245680  25.4176181   0.4278597  41.7964125
  26.8597684   0.7699093  41.4895105  13.6454237  68.4934855  43.4416771
  14.0175259  68.4311342  42.5619745  13.1882536  67.6620388  43.5678434
  64.6629540  13.4134659  54.3184376  64.0806548  13.0763706  53.6376095
  64.6373407  12.7484116  55.0063801  23.6766410  50.9505415  62.5790548
  23.7995243  51.8927622  62.6946163  23.5575581  50.8384180  61.6359329
  61.4117350  34.3082233  11.7278768  61.0169907  35.1756234  11.8174364
  62.3011763  34.4138331  12.0654775  34.8001442  14.7202667  24.6452880
  34.9384914  14.0325626  25.2965617  35.5505148  14.6461758  24.0556383
  76.7211540  23.4336276  24.7478725  76.2985046  24.2526622  24.4894554
  76.7544349  23.4724660  25.7037117   2.7197465  48.8106298  52.1072054
   3.5255158  49.3175411  52.2072601   2.7388132  48.5072041  51.1995697
  60.8833043   7.0534977  24.8037934  60.0014082   6.9023689  25.1438713
  61.4302222   7.1367535  25.5849338  18.3265750  19.6156163  20.3659870
  18.7328593  19.7498460  21.2222244  18.5922925  20.3785176  19.8525574
  55.1103107  71.1648236  23.4272053  55.3803650  70.3396426  23.8301708
  54.3912999  70.9223972  22.8436996  12.6518261  51.9191790  42.4570131
  12.1857202  51.6256714  41.6741800  12.3239994  51.3543606  43.1568336
  56.9535665  43.2743306  11.5240671  57.8597333  43.2987542  11.2166645
  56.8225314  42.3708577  11.8118145  66.5610738  21.0165019  13.0917837
  67.3606785  20.6953330  13.5085728  66.5635641  21.9583173  13.2626774
  46.5296475   1.4451679  58.2240534  47.0264355   1.9568047  58.8625383
  47.0019237   0.6148371  58.1628895  74.3806394   1.3205333   6.0074283
  74.4627698   1.7731733   5.1680233  73.9561160   1.9572826   6.5823747
  49.2820469   1.0923609  26.8524361  48.9155857   1.0753187  25.9683275
  50.0686017   0.5497822  26.7961836  26.6370010  55.9135818  54.2883587
  26.7436767  55.5908394  55.1831722  27.0780516  55.2611589  53.7442541
  58.1796689  35.3271527  -0.3163241  57.5156798  35.0361152   0.3086950
  58.5495903  36.1171622   0.0777199  64.0786484  41.7601871  37.3527741
  64.7822240  42.3977804  37.4739480  64.4949463  40.9120464  37.5063634
  17.7137136  35.0723577  56.4746189  17.2611010  34.2524171  56.2769604
  17.0297086  35.7404351  56.4294147  25.5712235   4.1796335  41.4358282
  25.6626663   3.6859640  40.6208658  24.8864586   3.7180933  41.9198847
   3.3010451  19.7492309   8.3193399   4.1386978  20.2076430   8.2528068
   3.5091798  18.8385196   8.1107189  47.1023507  21.3402219   4.7995998
  47.0982267  20.6152339   4.1746141  47.0308311  20.9186168   5.6559660
  30.5543045   5.5891356  13.7013412  30.4863340   4.7850164  14.2161262
  31.1718825   6.1341938  14.1889334   3.9671230  67.6920986  53.2178164
   3.8533956  67.1391344  53.9908171   4.8455533  68.0600643  53.3136940
  41.1636476   2.4034628  61.8739748  40.9701661   2.4004969  60.9365368
  41.7892901   3.1190046  61.9871426  73.6357713  56.1521721  16.5332735
  74.3422279  56.0902500  17.1761703  73.9891118  56.7125654  15.8423722
  73.6733332  66.6184950  51.7170572  73.9710048  66.2109566  50.9037066
  74.3779808  66.4482355  52.3421288  35.9637056   6.2722477  50.1725626
  36.7417137   6.5084728  50.6776667  35.9276310   6.9218430  49.4704437
  39.4736452  35.7611556   3.1484558  40.3099342  36.0853763   3.4827234
  39.3541236  34.9159045   3.5814621  77.1525152  33.5415216  13.4819366
  77.9596980  33.1847806  13.1112291  76.5166362  32.8307958  13.3997537
  68.2309313  13.6704869  13.9788677  67.3949142  14.1245790  14.0842678
  68.4666570  13.3940501  14.8644449  12.7184737  54.0777874  38.1357837
  12.5359023  53.1480074  38.2714438  12.1692586  54.3235922  37.3913550
  19.9782252  62.1212959  41.0992432  20.2748322  62.4583530  41.9446135
  20.7418180  62.2024441  40.5277777  49.9703328  19.0929016  48.7874460
  50.7350127  19.3061146  48.2526255  49.6208373  18.2918533  48.3970499
  34.4231987  55.3918982  62.6339340  34.8060274  55.0237703  61.8375969
  33.4830666  55.2376890  62.5411606  46.5748967  54.7799821  26.5106727
  46.6641505  55.2295251  27.3510219  45.9568484  55.3178544  26.0157635
  16.0626042  47.7160120  51.6326571  15.6259322  46.8648195  51.6645670
  16.4776385  47.7401114  50.7704496  74.8105462   0.5104752  11.7592623
  74.3215855   0.7092996  10.9607508  74.2862256  -0.1574044  12.2011377
  70.0367220  36.2306590  20.3133728  69.3670352  35.6171413  20.0111343
  70.3977390  36.6059346  19.5102073  58.2612173  73.3782540   5.3043796
  58.2237593  72.4272405   5.4063751  59.0235917  73.5293733   4.7456457
   6.8945605  59.0627909  51.8226147   6.0060942  58.7219095  51.9258595
   7.3104602  58.9082336  52.6707745  28.1640649  33.7699246   6.7166066
  28.8168359  33.2208729   6.2822509  28.2234025  33.5270691   7.6405829
   4.6680146  62.9149437  38.7625480   4.3723473  62.0723248  38.4178662
   4.2703757  63.5639763  38.1821394  57.6266614  28.7118134  48.4775496
  56.7099039  28.9779648  48.4071589  57.7749959  28.1585297  47.7106714
   5.9498310  28.1682014  29.6584368   5.1570678  28.5775757  29.3117809
   6.0539299  27.3705077  29.1397095   2.0895291  21.6701111  19.4162357
   2.4494267  20.8445725  19.7405791   1.1541033  21.6170010  19.6121800
  42.0279217  30.6995440  60.9904385  41.1186361  30.5396962  61.2432003
  41.9676256  31.1215878  60.1334238  11.1242080  53.8049936  29.8103833
  10.8619428  53.0181170  29.3326020  11.6738331  54.2879152  29.1931891
  15.6602029   4.1799768  46.1825943  15.9955493   3.4720263  45.6325245
  15.1193205   3.7387165  46.8375492  62.9212324   7.1325573  55.2861547
  63.8142840   6.8041023  55.1821947  62.4110166   6.6489204  54.6365356
  11.8894366   9.6699127  52.1501303  12.5988618   9.2739662  51.6439915
  12.3313908  10.2583107  52.7622557   1.7834735  54.4147491  60.8172846
   2.7186799  54.6175575  60.8394098   1.7413104  53.5136795  60.4970884
   6.5153401  30.3561015  25.2122070   7.2533886  29.9445672  24.7625877
   5.7750623  29.7744365  25.0393345  30.2784268   6.4642033  53.4694672
  30.8337686   5.8747801  53.9797640  30.8248956   7.2348961  53.3156872
  36.0802031  67.5383472  46.9694710  35.7332444  68.2662868  47.4851799
  36.9336843  67.3527622  47.3610830   6.8691969  44.2571259  53.8834429
   6.2872809  43.7189531  54.4200802   7.2088820  44.9177647  54.4871044
  37.1029870  17.5408406   1.4539100  37.5417678  18.1268497   0.8372309
  37.6397817  16.7483230   1.4545109  48.1003205  26.5346703  39.9894333
  48.3105246  26.3941082  39.0662384  47.1435992  26.5371498  40.0195551
  36.0716367  74.2089987  24.8243451  35.9788442  73.2924366  24.5644617
  36.8358278  74.2183495  25.4006743  50.9457818  10.8224186  47.4802351
  51.0377852  11.5803227  48.0575991  50.0284974  10.8392509  47.2072172
  77.3953287  54.8892736  60.8963013  77.0405182  54.1223574  60.4466486
  78.3372644  54.8494911  60.7307482   2.0896332  13.0509038   3.6004879
   2.9521935  12.8537650   3.2353069   1.5554039  13.2832809   2.8409960
  34.3376360   2.2907051  53.8709402  35.0759295   2.8421148  53.6119032
  33.5873673   2.8850016  53.8826942  16.5703177  69.4020844  51.1250019
  16.3181126  68.6129618  50.6455183  16.5629280  70.0957346  50.4654360
   9.5910852  49.6680112   7.3272087  10.0070302  49.6313710   6.4658882
   9.9345343  50.4679246   7.7252104  76.5319474  13.7622399  11.9883491
  76.9820936  13.4037347  11.2234499  76.2386163  12.9926677  12.4761440
  19.2378347   1.2748118  21.4897587  19.1045777   1.0808463  20.5619385
  19.8015372   0.5677672  21.8036987  11.3610375  38.4747386  60.6532764
  10.8956361  38.6493683  59.8352671  11.3381422  39.3076658  61.1243820
  32.6095942   7.7639374  61.7425871  33.1604860   8.1445488  62.4266100
  32.6426522   6.8212494  61.9053364  76.7285813  65.4598093  33.8399935
  76.8193117  64.8374271  33.1184387  76.0212961  65.1025343  34.3769598
   9.1866320  32.6860023  58.4108973   9.2238486  33.6123610  58.6490202
  10.1033223  32.4169993  58.3513355   9.8310262  48.5068941  38.4755111
  10.0054991  49.3781328  38.1195211  10.4912937  47.9454947  38.0691719
  32.7957860   6.9334396  56.7351770  32.9600088   6.7733559  57.6644993
  32.3218576   7.7648434  56.7154408  24.6251273  23.9105392  58.6199522
  24.7920251  23.9396453  59.5620394  23.7779760  23.4721184  58.5402203
  46.3296492  48.7769456  10.0045206  46.2523301  48.3461995  10.8558180
  45.4265143  48.8756509   9.7031261   2.6433831  39.7708607  62.6137638
   3.2879937  39.4022250  62.0097637   2.9950541  40.6308985  62.8437519
  58.8039938  10.2899918  25.8626890  59.7216813  10.4029449  25.6150484
  58.3595029  11.0505184  25.4881763  33.5711360  72.4873495  44.5942259
  32.7867174  72.6139832  44.0604782  33.3386374  71.7820168  45.1981115
  17.5128047  19.6650167   8.1503727  17.7889411  20.4753156   7.7221252
  17.2945897  19.9288650   9.0442373   8.8142902  39.8010850  45.5631685
   9.1606891  39.1372132  44.9669170   9.4330829  40.5284071  45.4973602
  33.8421021  61.6009055  19.0077164  34.2828540  62.4469720  19.0860798
  34.4339959  60.9819876  19.4353153   1.1321834  34.1248894  50.4092407
   0.3543902  33.5870552  50.5575800   1.6046390  33.6747575  49.7089529
  17.6184630  66.6388655  49.8999739  18.4587622  66.2210226  50.0884819
  16.9734001  66.0933018  50.3499556  76.6743628  23.9631828  27.8233767
  77.5498930  24.3494019  27.8009248  76.1596171  24.5675453  28.3581734
  38.5032538   2.7789387  31.4199829  38.1509606   1.9970354  30.9948397
  38.1205384   2.7675756  32.2972703  50.5553523  15.2279839  55.5482197
  51.2736217  15.4895004  54.9720812  50.9831039  14.9862465  56.3696957
  29.0385215  36.3207336   0.8838798  29.0068643  35.5076404   0.3797819
  28.3670823  36.2113614   1.5572550  47.8114939  53.1325912  59.5967817
  47.7104807  53.9103460  60.1455307  48.5611725  53.3310652  59.0356922
  43.3320288  21.3142189  45.9314108  43.5686151  21.5028366  46.8395281
  42.4350873  20.9837040  45.9812784  58.6773407   7.9043321  14.9787523
  58.8657176   8.8199453  15.1846458  58.0812096   7.9447488  14.2309334
  44.5516769   0.3100237  55.8398008  45.1569859  -0.4175154  55.9830570
  45.0476066   0.9331974  55.3088236   3.5892741  10.5497022  10.4750015
   4.1260044   9.7587295  10.5251219   3.4665887  10.8140702  11.3867523
  56.5475281  20.8374686  27.0921566  57.0819055  20.7752318  26.3004448
  55.6922554  20.4958577  26.8312980  26.6265202  56.4726734  63.3083105
  26.2950587  55.9038639  62.6134539  27.5295925  56.1852407  63.4427547
  41.5882842  10.1983733  19.0429546  41.4005725  10.2739282  18.1073906
  42.0340316  11.0159392  19.2645981  39.3342710  62.4658442  47.8289890
  39.9476695  63.0160189  48.3161116  39.8897099  61.9368792  47.2563505
  61.5299566   8.4373612  22.4456646  61.4701541   7.6283021  21.9376423
  61.0663141   8.2434650  23.2603218  10.2235091  57.6547432  52.2540998
   9.8275888  58.2092190  51.5817642   9.6265560  56.9106579  52.3329735
  26.3026588   9.1954942   3.7610580  27.0958917   9.7263522   3.6889269
  26.6228740   8.3015866   3.8819935  18.8019371  70.9950876  63.8484573
  17.8854644  71.2543917  63.7532091  18.7638044  70.0961304  64.1750288
  22.3771636  25.3547521  12.4241783  23.1970803  25.6377406  12.0193483
  22.4781673  25.5762763  13.3499004  47.7427737  19.0756210  39.9456310
  46.9562642  18.7720284  40.3989220  47.7206985  20.0279602  40.0393772
   0.1295058  58.7305546  44.2839861  -0.0168174  58.0098724  44.8967123
   0.7863206  58.3960962  43.6732817  34.8814297  64.8953152  39.8344517
  34.3360496  64.1202402  39.9688244  34.4173861  65.5968428  40.2913523
  46.7425672  18.7244877  60.9707546  47.4114624  19.0584072  60.3730059
  46.8843881  19.2092976  61.7838240  37.5877551  14.3481144  46.2122250
  38.1401578  14.5821079  46.9580984  37.3334483  15.1879105  45.8297300
  28.4959269  72.0889235  55.4006338  27.9619598  72.3303556  54.6437836
  27.8648329  71.9671249  56.1099434  13.1563132  25.9704633  25.3967811
  12.7300613  25.4775806  24.6956302  13.2095163  25.3524966  26.1258270
  54.6291939   0.0297245  42.6342440  54.0662185   0.4180368  41.9645357
  54.9982516   0.7794699  43.1010485  73.4098204  17.7420230  23.3988716
  74.3571980  17.6922603  23.5262634  73.0588825  17.0270200  23.9297630
  31.7900894   2.2722181  33.7750363  31.2487672   3.0500063  33.9101291
  32.4453280   2.5450405  33.1328034  75.0955518   7.9367156  30.2158119
  75.6376059   8.3626409  30.8798839  75.4328235   7.0421262  30.1690533
  12.9993212  55.3179169  28.1905627  12.5212729  56.1242151  28.3844233
  13.5972488  55.5582619  27.4827838  30.8875609   4.8123297  43.3835983
  30.8712924   4.0593275  43.9743185  29.9938635   4.8711332  43.0458403
  78.0590303  40.4646249   7.0228864  78.6738689  41.0780711   7.4252416
  77.6442035  40.0212998   7.7628996  65.8362439  66.9339895  45.2920294
  66.4101890  66.6802216  46.0148191  65.7025531  67.8742933  45.4111338
  26.4387204  15.9070095  49.5805693  27.2881131  16.3132462  49.7530127
  26.6458539  15.1298985  49.0615082   3.1482622  64.4528103  29.9366713
   2.2947545  64.8831797  29.8863029   3.5840884  64.6885777  29.1177106
  34.9405340  23.7209019  27.9651976  35.3929690  22.9819569  27.5583863
  34.4877169  23.3397564  28.7174726  29.6514106  58.6785269  59.4252157
  29.8577785  58.5682487  58.4970522  28.9545202  59.3345594  59.4393253
   4.6446484  68.1886101  58.9589596   4.5841357  68.7743235  59.7136211
   4.7079641  67.3128033  59.3399858  53.0214158  70.3918396   4.6230699
  52.2377268  70.9356080   4.5432188  53.6906520  70.9848915   4.9645998
  69.1189547  33.8719554  23.6003258  68.3858271  34.4358821  23.3538677
  69.8534770  34.1912313  23.0761482  14.4598405  49.2017694   2.8895094
  14.9998681  49.1578717   2.1004154  13.9586084  50.0113912   2.7919771
  74.3717511  42.2635360   0.9839823  73.4248264  42.2770639   1.1232044
  74.4980438  42.7195592   0.1519205   2.0821826  70.6451173   2.7375509
   2.7701299  69.9806161   2.7748253   1.5530793  70.3997846   1.9785406
  48.8383055  49.2565155  42.6419115  48.4886742  49.7880459  43.3570766
  49.5930338  49.7511911  42.3226595   2.9494143   1.1652788  41.6403341
   3.7571049   0.7167753  41.8907595   2.2611142   0.7051310  42.1206856
  64.9920312  21.5359291  27.0901799  65.1727692  21.3457474  28.0107212
  65.8564512  21.5908798  26.6827631  60.7042138   5.7165941  41.4232540
  60.7006375   6.1827644  40.5872488  59.9953667   6.1191353  41.9249821
  42.7943516  59.0382385  47.0065784  43.3071756  59.5298243  47.6481295
  43.0122137  58.1219149  47.1772146  78.0693443  54.0953965   3.3757593
  77.6620849  53.4252496   2.8268768  78.7894137  53.6413903   3.8134863
  63.8233153   8.3308491  50.6637049  64.5051590   7.7143463  50.3967953
  64.2969004   9.1359886  50.8727598  60.3469459   2.0093760  49.4929314
  59.7341172   2.2434887  50.1899719  59.7888533   1.7941317  48.7456512
  20.9752624  68.0500741   3.1196262  20.3839843  67.3341413   2.8871204
  21.8499915  67.7075334   2.9359247  19.1689765  63.8904667  45.3331184
  19.9869597  63.5703516  45.7134628  18.8006473  64.4639730  46.0051727
  20.4836750  58.9977980  60.9580088  20.5140948  58.2320881  60.3844261
  21.2183833  59.5406151  60.6720304  73.9837185  23.6356625  54.8335266
  74.2524163  23.2193073  54.0145779  73.2978980  23.0642304  55.1789761
  51.7372322  66.0560942  23.1019902  50.8141232  66.1363173  23.3421326
  52.2050858  66.0834312  23.9366126  21.8766499  73.1900597  36.8953800
  22.0423937  74.1044712  36.6659999  22.1150470  73.1281567  37.8203487
  34.2790405  14.1495499  54.3103170  33.5356281  14.0214047  54.8995113
  35.0410942  14.1777500  54.8888588  34.8940301  71.7833853  58.3088207
  34.9849987  71.8946362  57.3624706  35.5751348  72.3427010  58.6823034
  69.6549002   3.7499365  40.7534122  69.7247425   4.5511803  41.2724161
  68.7190453   3.5489925  40.7478428  42.1070258   8.2203564  20.9012175
  42.0726911   8.9783653  20.3177214  41.2205783   8.1505283  21.2555742
  12.9072110  55.0449891   9.2397501  13.7051837  55.4906411   9.5241072
  13.1005280  54.7527833   8.3489754  19.7709768  63.0996461   0.5597927
  18.9377992  62.6582570   0.3947737  20.1588981  62.6145215   1.2880756
  31.6826282   1.1306271  42.1134186  32.4518130   1.7002615  42.1236515
  32.0415280   0.2433285  42.1245146  39.8638582  57.2258615  61.1896420
  40.0518227  56.6190910  60.4735899  39.2180777  56.7683077  61.7280197
  21.1577535  72.7081633  55.4594469  21.0940433  72.8580046  56.4026976
  21.3013816  71.7654991  55.3758478  26.5244857  29.5127377  62.4703312
  25.8968962  29.7088608  63.1659555  26.0578412  28.9122376  61.8890572
  53.8753366  54.2641020  42.3487091  54.0921116  53.9063931  43.2096910
  52.9192591  54.3100214  42.3422337  35.1072542   6.1458000  47.2711372
  35.3675929   5.3376278  47.7130842  34.1504286   6.1345276  47.2954130
  56.2326510  33.2436366  12.7735187  56.0586979  32.3044725  12.8362705
  55.3757073  33.6541839  12.8889705  59.3275730   6.6452011  51.4175892
  59.1993491   5.7622084  51.7641640  60.1326481   6.5860352  50.9032106
  73.4413131  55.0450463  20.5636932  73.1323965  55.7227845  21.1649086
  72.7464922  54.9703355  19.9095680  56.4411966  14.7021088  59.8227978
  55.6465784  14.8888191  59.3228436  56.9736234  15.4921612  59.7301674
  76.9255884  52.6207872  22.8189613  77.4435766  53.3830686  23.0775024
  76.4788516  52.3514028  23.6215069  11.2998248   0.3224596  54.0816784
  11.7312623  -0.2015701  54.7565746  11.0566235   1.1338505  54.5274687
  50.7141081  74.0771924  17.8141453  50.4800264  73.5217820  18.5577633
  51.6712920  74.0800797  17.8093101  10.6068659  55.3568077  60.1438379
  10.2428126  56.1371040  59.7256994  10.8840597  55.6563044  61.0096884
  63.4870990  20.9357352  21.5451671  62.7490361  20.7415290  22.1229030
  63.9611013  21.6383214  21.9900562  61.8294350  18.6143955  59.3524170
  62.3526136  18.0337605  58.7998056  61.0930411  18.8730892  58.7983084
  27.8557174  36.2543006   5.0448133  28.6380403  36.7862077   4.8989345
  28.1890695  35.4305549   5.4005577  63.8380618  43.3646817   7.4582435
  63.9398618  44.3074746   7.3278667  62.9079087  43.2004781   7.3030474
  30.8632016  58.3445835  56.4071989  31.2853336  58.4775162  55.5584526
  29.9260902  58.3980894  56.2196112  22.5206828  55.0334835  56.7700434
  22.9409647  55.0388002  55.9100628  21.5884352  55.1415348  56.5817022
  18.4227197  46.9332547   2.6777794  18.3457057  45.9875817   2.8042938
  17.5242822  47.2573323   2.7411415  47.6787106   0.8711418  52.6998329
  48.5006157   0.3856977  52.6287556  46.9982854   0.2013477  52.6317644
  61.9866705  58.4744406  17.4473953  61.6053009  58.6842203  18.2999098
  61.2815809  58.6414719  16.8219495  15.0416422  68.5604858  62.7264166
  15.5325794  67.7413988  62.7920532  14.2694426  68.3359480  62.2072649
  67.2185008   8.9988979  47.8372765  67.3791043   9.3036541  48.7303352
  66.3288752   8.6464104  47.8608322  12.4814932  27.3421140   3.2044460
  12.9176657  27.6377292   2.4053194  11.5598647  27.5629134   3.0699779
  34.1406028  28.7842603   0.7353164  34.9637763  28.4540219   1.0952522
  34.3159024  29.7053046   0.5425026  70.8842627  14.2848572  57.3747540
  70.4850165  15.1495918  57.2795725  70.1463190  13.6758789  57.3461819
   7.4905587   1.7890677  38.5259080   7.0467187   1.5832790  37.7031732
   6.9045497   2.4042162  38.9668345   5.2442027  12.0708736  57.5849390
   5.4847766  12.5450405  56.7889977   4.5010234  12.5591454  57.9392242
  24.6015382  64.2518568  39.0355372  24.9515700  64.7041130  39.8031139
  25.1702714  64.5258999  38.3160377  22.0474074  12.5020012  33.4026313
  21.3992844  11.9845566  33.8805699  21.8260322  13.4106621  33.6065006
  40.5114460  72.9916000  58.2073498  40.3546381  72.2269154  58.7613392
  40.5695009  72.6368141  57.3202276  35.9927741  12.1316418  59.7000933
  35.9596763  13.0018982  59.3028736  35.1120881  11.9939026  60.0488806
  57.5327674  12.4064716  44.9716425  57.5319473  12.4263653  44.0146494
  56.6292921  12.6069244  45.2161455  69.4628353  54.4483705   7.4560263
  69.5161863  53.5239263   7.2135927  69.6142753  54.9199243   6.6369201
  65.6056602  19.3532844  19.0749027  65.9562071  19.8173566  18.3146526
  64.8049589  19.8283334  19.2972423  75.7095034  52.5861211   2.1156647
  75.4415114  53.4077306   1.7041160  75.3768833  51.9055028   1.5305569
  67.6223723  11.0439571  62.7271175  66.9371048  11.6787132  62.9362488
  68.0356900  11.3896450  61.9359827  69.8944612  38.6343951  11.5543415
  69.8455592  39.5843930  11.6608764  68.9812703  38.3512540  11.5080549
  67.2464243  12.5772175  50.5687284  66.3781325  12.2169766  50.3883648
  67.1244780  13.5259136  50.5320358  21.7534423  67.4901247  44.8386240
  21.8640947  68.4125996  45.0688982  21.0130548  67.4818373  44.2320061
  66.3121811  13.9288410  34.6160913  67.0234887  13.4513172  35.0429940
  66.1654393  13.4573063  33.7961173  50.7276956   5.1533970  44.6834803
  50.0662104   5.8236631  44.8549891  51.5618507   5.5911860  44.8530674
  70.8942334  26.0041508  22.3616481  70.3398768  26.0004124  23.1419754
  70.7060019  25.1707253  21.9301343   5.2458984  64.0246391  59.7597599
   5.4724461  64.4608307  58.9383888   5.5901325  64.6025753  60.4407358
  56.8092537  67.6489782  48.0604935  57.4775791  68.2597923  48.3711052
  56.2000370  67.5670958  48.7942410  42.9541151   6.2403568  60.9412766
  42.9005245   6.3706001  59.9944925  43.8894025   6.2936672  61.1378193
  49.6369709  57.5454183  10.7226326  49.8282379  58.3975072  11.1145260
  48.6827393  57.5237317  10.6504967  58.2817717  16.9085450  12.1616508
  57.9724427  17.6262565  12.7143194  58.2021548  16.1301894  12.7130606
  56.6577522  23.5061344  52.7304935  57.1607033  23.0822929  52.0350599
  57.0549957  23.1881603  53.5412455  55.5021620  73.8553905  58.6116600
  55.4141235  73.3691168  59.4314289  54.8057747  73.5106468  58.0527115
  64.9032715  65.1155567   6.9694990  65.1584867  65.6838179   6.2427413
  63.9543024  65.2222443   7.0351267   3.8869707  57.5900693  23.7972214
   3.3327524  57.5747056  23.0169441   4.6779959  57.1172376  23.5384991
   3.7375900  66.6105318  55.7899952   3.7714180  67.1613073  56.5721321
   2.8114319  66.3891125  55.6928539  47.8535024   7.6014980  62.6869488
  47.5094119   8.3653626  63.1499338  48.7942521   7.6185402  62.8628254
  62.8109074  50.8420420  49.7060156  62.0990038  50.6193590  49.1061544
  62.5407982  50.4715967  50.5462790  22.8009796  68.6786604  20.2776837
  22.7915072  69.5827675  20.5918956  22.6000476  68.1537104  21.0524678
  14.2174213  43.6918683   1.1578323  13.8819711  42.8045983   1.0295440
  14.5766561  43.9376969   0.3053381  46.4226484  59.0804768  44.0276384
  45.6075239  59.5640707  43.8937092  47.1089268  59.7442579  43.9594221
  52.8940868  73.1428671  20.8414769  52.3163223  72.7560234  21.4993334
  52.6459742  72.7136421  20.0226760  49.1525459  72.8097200  59.6528959
  48.8048697  73.7003136  59.6997881  48.4905910  72.2710562  60.0863600
  11.4357059  13.0197902  11.5148784  12.2069590  13.5864348  11.5326073
  11.1706607  13.0047221  10.5952312  71.7521747  53.1630654   4.0210869
  72.3413999  53.6066098   3.4109070  72.3268731  52.6082749   4.5484974
  16.7452161  35.9468598  15.8183719  16.5582435  35.0092216  15.7724573
  15.9924953  36.3620801  15.3973772  34.1371274  62.6445627  57.6859188
  33.6723781  63.4789419  57.7495337  33.7009311  62.0782948  58.3225536
  63.2560797  54.9710031  10.2053406  62.7811571  54.9085946   9.3766119
  63.7827845  55.7657189  10.1202967  29.2266358  65.1294576   3.7562229
  28.5339832  64.8497568   4.3547489  28.7748075  65.2992188   2.9296257
   5.6651765  61.2592030  53.6192417   5.2293944  60.4077768  53.5817957
   6.5991092  61.0498667  53.6326647   8.9378947  72.9890966  44.9295712
   8.2307720  72.7660561  45.5349302   8.6683494  72.6059628  44.0948343
  56.0032002   2.6646694  48.7297201  55.7335130   2.5400051  47.8197956
  55.6220190   1.9210180  49.1965342  75.9344991  52.9984517   7.7334740
  75.8715351  53.7544389   7.1497394  76.4704330  52.3681398   7.2521021
  73.8841120  15.8652863  32.1866488  74.2956416  15.9065517  33.0498838
  73.5736243  14.9629101  32.1122146  74.5348135  19.9181160  26.5396953
  74.8946539  20.1164803  25.6751728  74.2864481  20.7706341  26.8971181
  76.5130623  43.0577512   6.4087202  77.0741279  42.2906108   6.5224506
  75.7174976  42.8472228   6.8975832  62.5182724  62.6585388  52.5669241
  62.6144361  63.5477495  52.9079390  62.1726418  62.7773666  51.6822481
  42.6688290  69.3793726  38.3839917  41.7265987  69.5249224  38.4691691
  43.0218124  70.2340317  38.1366253  16.2128322  59.9802919   6.3855888
  15.5084769  60.5203576   6.0271980  16.9974248  60.2702184   5.9202053
  11.5804720  62.9500818  60.7079887  10.6481826  62.9563856  60.4911327
  11.6352999  62.4375868  61.5145731  45.0214593  37.7100177  11.0255052
  44.4555204  37.9443164  11.7610695  44.6840827  38.2226939  10.2909519
  29.2447734  73.4090090  63.9166164  29.6626353  72.8831339  64.5985842
  29.4776273  72.9694557  63.0988121  76.5676609  16.9820961  42.6252127
  77.0808760  17.7803501  42.5001812  76.1876265  17.0760426  43.4986973
  61.4910920  33.3475633   8.8640167  61.3512380  33.4902330   9.8001339
  62.2646363  33.8711352   8.6548807   5.1318686  67.2566171  17.0522167
   5.7175939  67.5631757  17.7444507   5.4484360  66.3780255  16.8422462
  57.9844037   1.5325054  32.3660684  57.5978414   0.7424387  31.9884419
  57.2772876   2.1773943  32.3477960  64.7227994  26.1492619  57.4420547
  64.6213690  25.2041706  57.5549221  65.4407731  26.3849529  58.0295849
  15.0237052  12.5020642   4.8234083  14.0869586  12.3115106   4.8726608
  15.2635591  12.2927756   3.9206888  69.2600981  12.0946201  57.1777630
  69.9994627  11.4977154  57.2929716  68.6003796  11.5732559  56.7203856
   2.8185622  19.5221992  28.2802154   3.6522119  19.7924609  28.6652042
   2.5103490  20.2961583  27.8088047  59.0960375  61.8972360   8.2302191
  58.9402858  61.5095554   9.0914251  60.0475542  61.9862567   8.1761696
  68.4599510  68.7401247  55.5156898  68.0726793  68.3768559  54.7192669
  69.1117802  69.3664360  55.2009153  30.8923841  67.4427509  46.6910267
  30.9943438  66.6163349  46.2189293  30.1070428  67.8389311  46.3135195
  32.3843122  62.2492981  55.1450109  33.0295968  61.5636301  55.3173447
  31.7238235  62.1337605  55.8281183   9.3011714  18.0245003  30.3045058
   9.7452737  18.6529621  29.7352648  10.0074626  17.6077446  30.7981682
  48.5133076  65.4279280  56.3597202  47.5954247  65.2030516  56.2075329
  48.5554218  65.6452894  57.2909594  74.3016974  14.2529568  64.1088295
  74.0413062  14.0587315  63.2084370  73.9380471  13.5327992  64.6239614
  23.2053865  11.7889008  51.2786436  23.4476075  12.3122009  50.5146265
  22.3808292  11.3706574  51.0308313  55.9540216   1.3082441  53.3393764
  56.5429775   0.7388577  52.8442335  55.5897252   1.9036516  52.6843882
  47.5507657  17.0980820  31.5994692  48.4127156  17.1730026  32.0089388
  46.9510976  17.4992928  32.2284842  34.8716275  39.2117734   3.1704904
  35.2851312  38.3566375   3.2887651  35.2967851  39.5782180   2.3951294
  44.7093097   0.7755980  42.9162502  45.0781933   1.0223183  43.7643576
  44.6020976   1.6053280  42.4511862  40.5338526  72.0330811  21.3370275
  40.2192545  72.0793390  20.4341865  41.1673927  72.7472162  21.4067912
  33.9458779  11.2599548  53.6486387  33.3408431  10.5197796  53.6006308
  34.2934457  11.2277683  54.5399284  62.1360055  21.3857063  49.1318750
  62.4132244  22.2416004  48.8050222  62.4412099  21.3653645  50.0388813
   7.7411908  53.2800817  51.8090439   7.1349758  53.2337809  52.5483656
   7.3561609  52.7056074  51.1472607  33.8833348  64.1261525  13.5776712
  34.3030803  64.9234338  13.9007665  33.0278985  64.4170232  13.2616665
  18.0061471  70.7114458  31.5363503  18.7756634  71.1123991  31.1322236
  18.3012414  69.8402357  31.8011904  48.0151717  18.4252247  37.1169949
  48.9634911  18.3420166  37.0169902  47.9005352  18.8558849  37.9641175
  62.9035083   4.2385277  63.5797119  63.2412759   4.7433886  62.8399420
  62.2484199   3.6570725  63.1937027  14.3617599  42.4635930  10.0324632
  15.1747863  41.9843526   9.8726179  13.6874859  41.9441362   9.5945694
  61.8670312  17.7804836  51.4451027  62.3138110  17.6326736  50.6115723
  61.4484135  16.9430336  51.6442680  50.7794905  67.9995108  52.1518612
  50.4440832  67.8430080  53.0346060  50.3862906  67.3075342  51.6200686
  28.6270524  23.3096870  38.0693102  28.3343507  23.0613407  38.9461684
  27.8342725  23.6184105  37.6306534   4.1854851  28.6043496  17.8237488
   4.4346230  27.7186008  18.0875828   4.7607867  28.8051124  17.0855381
  71.8380991   3.0647024  30.5396104  71.3729207   3.6969980  31.0873771
  71.2258212   2.8651842  29.8314166  76.6813485  35.1529011  62.8659725
  77.4406735  35.5176529  62.4114180  77.0195166  34.3765911  63.3123064
   4.0549481  72.6179075  30.7374167   4.5269233  73.0320692  31.4598703
   4.7206098  72.1047354  30.2793932  78.6614187  53.8100762  13.0890323
  78.4108718  53.1899495  12.4042703  77.9575236  53.7508912  13.7349846
   4.0057480  62.6353073  62.2236872   4.3697244  62.9448986  61.3942909
   4.0324697  61.6809082  62.1555805  68.6799431  57.7309465  29.9350309
  69.4056082  57.4813652  29.3628836  69.0125322  57.5859547  30.8208060
  57.0555655   8.7140545  46.6892624  57.6149169   9.1848644  46.0714483
  57.6636855   8.3453449  47.3299408  10.6535531  44.5884022  54.7121763
  10.8712865  44.1288456  55.5231190  11.4938164  44.9115833  54.3869972
   5.7656861  11.8839916  48.1049395   6.4170838  11.1830982  48.0793047
   5.0446797  11.5221581  48.6201620  75.4711071  33.6126980  53.1690264
  75.1938788  33.4715447  54.0742636  74.6594826  33.5824570  52.6624918
  77.4924994  67.6269817  10.5140662  77.6365614  66.7664289  10.9076750
  78.3479166  68.0546808  10.5536091  26.5505140  14.1992517   9.5617916
  26.5835159  14.5594544  10.4480221  25.7995193  14.6316953   9.1553022
  62.0508090  20.1629528  34.0418863  61.1088244  20.1406654  33.8733602
  62.3589627  19.2909512  33.7951612  38.1920911   4.0828022  40.3296232
  37.7422524   4.6726927  40.9345198  38.8738442   4.6233114  39.9305129
   4.9574694  59.7954226  45.8827782   5.1844248  60.0234604  44.9812651
   4.5526442  60.5878019  46.2355995  29.5772815  67.7796268  41.5459776
  28.7179923  67.5077820  41.8684053  30.1622176  67.0618677  41.7886829
  73.0390326   9.9249252  61.5970945  73.1900469   9.7636208  60.6657457
  72.3765437   9.2809567  61.8473673  66.9967381  15.7355198  62.5230074
  66.5680949  15.9138474  63.3600855  66.4191023  16.1296448  61.8693733
  10.0683896  35.8347697   6.8145468  10.0053613  36.7826505   6.6971685
   9.2903964  35.6040330   7.3222067  51.7473764   3.9803453   7.7329256
  52.4254855   3.6608167   7.1376945  51.5132062   3.2171197   8.2610227
  53.4670622  64.9159680   4.3271066  52.7503807  65.0445567   3.7057688
  54.1713411  65.4753386   3.9994957  17.9407322  15.1493907  40.8891582
  17.6677108  15.8431447  41.4894867  18.8019979  14.8809636  41.2091589
  25.4807329  19.9381411  42.6967859  24.7739196  19.4134176  43.0727005
  26.2795806  19.4633043  42.9261398  69.7997951  69.4168917  50.7014561
  69.4527447  70.0129140  51.3651943  70.7258236  69.6489650  50.6318426
  33.4622569   0.4033322   4.8436596  33.5319288   0.3979249   3.8890125
  32.6661964   0.9037299   5.0228788  27.0927310  12.6028514  38.4450674
  27.4949431  13.0075812  37.6765275  26.1535239  12.7444136  38.3263946
   3.1372860  36.2870121  26.0136652   2.3088071  35.8361602  26.1767197
   3.4573910  36.5222573  26.8845391  37.7107143  13.4626997  31.1377406
  37.2724247  12.7696609  31.6315341  38.6366844  13.3665299  31.3603687
  54.8924747  19.2376089  15.6447697  54.4754472  18.3862627  15.7771719
  54.6283093  19.4991183  14.7626913  61.3498270  56.3145271  32.1182871
  61.0791742  56.1257556  31.2197638  60.5492818  56.6087988  32.5527573
  46.6869222  68.4102092  51.5579271  47.0319747  68.1797001  50.6953526
  47.4427225  68.7539700  52.0341873  14.4531969  22.8697358   8.6213686
  14.0732399  22.0714758   8.9883091  14.0973751  22.9184435   7.7340986
   9.8123699  23.3399868  31.9921756  10.2013993  22.6582432  32.5400019
  10.4009676  24.0887785  32.0875382   5.7676061  60.8978167  22.0657468
   5.7620700  61.8548170  22.0844650   5.2141222  60.6406311  22.8031373
  30.4235982  70.2802927  41.9889879  30.2493572  69.3451792  41.8820477
  30.6208467  70.5898041  41.1049461  76.8205616   6.6238487  45.8283329
  77.3971196   6.2169886  45.1815891  76.9520722   7.5643545  45.7083941
  17.0655918  20.2470684  33.4802699  17.9138291  20.5888939  33.7629008
  16.6120815  20.0285935  34.2944121   1.3913275   2.9232937  28.2068467
   2.2736153   2.6019090  28.3926201   0.9612520   2.1959877  27.7570772
  11.7167008  26.0364437  11.0775185  12.2302091  26.4930224  10.4111278
  11.8801332  26.5265775  11.8833041  68.1983721  63.0870763  38.3587861
  67.3755264  62.7513340  38.7143612  68.8017868  63.0779437  39.1017795
  56.4507119  50.7562409  17.1460487  56.0324756  50.7772778  18.0067875
  56.8809525  49.9019586  17.1096279  31.0305810  16.0980737  25.8765841
  30.1221275  16.3988364  25.8545160  31.4501166  16.5492618  25.1440191
   4.7121462   7.6407152  35.8123374   5.4881215   7.3850799  36.3110805
   4.0082651   7.0999724  36.1706400  52.7639563  52.8430310  54.3189383
  53.4203200  53.5324875  54.2186022  52.8422237  52.3198954  53.5211706
  25.0182056  27.5233126  43.6514997  24.6846700  26.6301250  43.5666513
  25.9445524  27.4136758  43.8661957  47.3699045   7.0907062  54.4163322
  46.7633772   7.1829915  55.1510715  47.3723030   7.9517138  53.9981318
  60.5417847  63.2409659  47.4700403  59.8575895  63.7215987  47.0040989
  61.0730796  62.8486219  46.7772055  55.5308166  32.9361701  49.4090414
  55.2656522  33.8195086  49.1528606  54.7097626  32.4908543  49.6183157
   0.7734426  48.7404052  43.1871033   0.9553965  47.9657761  42.6550579
  -0.0842658  48.5681025  43.5755348  45.7871532   7.7708393  34.7255039
  45.6441450   7.4027073  35.5974340  45.1885223   7.2841680  34.1589141
  58.1010237  27.7275777  40.9702349  57.6097265  26.9148970  41.0902691
  57.5740185  28.2373977  40.3549480  29.2502236  12.6878941  54.8633337
  29.0268230  13.5472310  55.2209139  28.4096146  12.2380960  54.7779655
  31.4781737  19.4875157  50.5724716  32.2762060  19.4935036  51.1009979
  30.7674575  19.5437801  51.2111807   4.7730786  46.6958284  53.3905649
   4.4985124  46.5130758  54.2891455   4.0646201  47.2269821  53.0269766
  65.9777251  29.9150252  42.6303673  65.6390289  30.2933741  41.8189669
  66.9104078  29.7816563  42.4614096  24.1461849  12.6922596  53.8132048
  23.2834387  12.3648119  54.0675259  24.0042377  13.1046140  52.9611206
  36.2505686  67.3464153  38.9234948  37.1040105  67.4146572  39.3515277
  35.8060419  66.6368524  39.3873358  73.7928116  32.0248246   5.0059301
  73.7608412  31.1750412   4.5665208  74.6725994  32.0677900   5.3805751
  64.9727562  33.5818267  19.3744636  64.5567623  33.7391925  18.5268688
  64.7223643  34.3361449  19.9078870  27.6670408  10.7262683  35.8764911
  27.0465016  10.0098586  36.0103536  27.3845291  11.1384380  35.0600743
  10.3530860  24.6634912  38.0331159  10.5263734  24.2236328  37.2008133
  11.1766541  24.5951986  38.5161304  64.1804305  35.0547218  42.9970932
  63.6539725  35.4433823  42.2985125  64.9361435  34.6780992  42.5462198
  17.3331130   6.3398480  50.8746004  16.4997613   6.2919688  51.3430691
  17.3273671   5.5765915  50.2969885  61.0272353  68.4123502  42.4639559
  60.6861799  67.5183723  42.4907351  61.5835881  68.4332261  41.6853237
  13.0578470   8.7056059  56.4232063  13.4260511   8.9731431  57.2652769
  13.5446000   7.9153275  56.1891937   1.1164705   0.8629294  12.6799548
   1.1530319  -0.0622163  12.4370551   0.2446065   1.1480792  12.4065053
  21.2515211  19.5737803  40.5735016  21.2148356  19.0977585  39.7438669
  20.4732561  20.1309657  40.5645561  74.2394923  70.1322168  45.0269318
  74.8381900  69.7008932  45.6366491  73.7984514  70.7978148  45.5548429
   8.0782616  15.0919831  36.4964008   7.9584986  15.3625703  35.5860877
   7.4324024  14.3976593  36.6268349   8.9459431  32.5741053  49.1590548
   9.8677981  32.8082299  49.2667580   8.9213145  32.0643973  48.3492231
  55.4710820  63.3053008  37.5100946  55.7197534  62.3966769  37.6797962
  56.2982228  63.7868014  37.5251532   5.9721471  59.0081392  19.6667435
   6.3513613  59.4645082  20.4178478   6.5330029  59.2517601  18.9303257
  52.5023022  12.5175393  38.1935310  52.8623977  13.0557764  38.8984179
  52.8948417  12.8731382  37.3962259  35.8006477  65.5621168  63.2541847
  35.9010791  64.6773824  62.9029131  35.0853299  65.9424547  62.7443886
  34.9261546   5.0134897  22.2255063  35.8832312   5.0065917  22.2393298
  34.6743441   4.2046875  22.6712203  45.8151054  12.2141719  49.2222595
  46.2029839  12.8924477  49.7751856  45.8652210  11.4172280  49.7500896
  38.3396745   1.4256500  22.5114059  38.6617970   1.0822511  23.3447981
  39.1294241   1.5672864  21.9894195  41.3343226  61.3322929  50.8557844
  40.7759904  60.6677619  50.4521799  41.7010235  60.9005574  51.6273880
  72.4360553  51.9904852   9.7721440  72.5458583  51.9275761  10.7209420
  72.1878818  52.9022980   9.6196896  66.5439311   3.5648820  61.9535923
  66.4995650   4.1713691  61.2143755  67.4619618   3.2960653  61.9880819
  65.2737112  11.5829797   2.2405721  65.8085533  10.9065957   1.8250229
  64.6067233  11.0967345   2.7252628   4.1242544  16.9270177   7.4203064
   3.5626571  16.1672444   7.2667314   4.9643604  16.5538545   7.6871397
  30.6864283  70.9653984   2.3933174  30.4853616  70.9599815   3.3291485
  30.9661118  70.0699197   2.2032453  14.7149491  14.6382332  52.7580547
  14.8354435  14.8219478  53.6896992  13.9080155  15.0977075  52.5257349
   9.3794259  66.3727364  46.6451740   8.4742507  66.2640485  46.3534927
   9.6606406  67.1983525  46.2508297  27.5754571  18.1833947  15.4980040
  27.9430294  18.4563935  16.3385963  28.1163645  18.6270165  14.8446655
  45.8138514   2.1906528  54.2188168  45.6864023   3.0341497  53.7846470
  46.5012074   1.7607716  53.7099218  40.7820848  53.3650588  -0.0684784
  41.5883092  52.8948031  -0.2808331  40.3543989  52.8207956   0.5926515
  10.5074044  56.5317683  62.7911113   9.6219631  56.8607430  62.9460349
  10.9880169  57.2875171  62.4533449  24.9347615  17.8254199  19.1643775
  24.1706538  17.2985804  18.9302611  25.2122164  18.2245910  18.3398092
   1.2828159  28.2367396  50.7208633   0.6364565  28.2713342  51.4260292
   0.9367226  28.8249040  50.0496626  52.6922844  56.8699625  40.0160694
  52.0470130  56.4864186  40.6099987  52.4379725  57.7902523  39.9480677
  53.3776593  51.1317459  40.1891613  52.9615954  50.3006736  39.9601579
  53.3616164  51.6392318  39.3777227  11.5954196  37.1058965  46.9208479
  11.2023592  36.2414145  47.0408726  11.2321508  37.4213839  46.0933590
  14.3754303   3.0064011  48.1746483  13.8968480   2.6782706  48.9359140
  15.1605821   2.4605675  48.1318188  53.3341757   4.9557278  20.8328891
  53.7436786   4.1014093  20.9695601  52.8023806   4.8431331  20.0450134
  19.7546065  26.1909437  39.2992854  20.3549623  26.7440414  39.7991753
  19.1651881  25.8218026  39.9569726  29.9217057   4.4967070  33.8472939
  29.1817689   4.2020383  34.3782306  30.0904417   5.3901458  34.1465044
  77.9945969  62.5041798   5.0177330  77.7350497  62.8750161   5.8611470
  78.2251715  63.2637838   4.4828784  68.2041477  67.2582081  18.1244278
  69.1301214  67.0380369  18.2260621  67.7524518  66.6862426  18.7449586
  30.2248120  17.0307887  37.0131183  30.1238012  17.2058213  37.9487419
  31.1173081  17.3121321  36.8118048  55.1915503  15.6530380  28.1721973
  54.9012852  15.3774619  29.0417004  54.4268179  16.0831511  27.7895570
  53.5186163  24.4004059  13.2958710  54.1829792  23.7236142  13.1662333
  53.6771360  25.0295639  12.5921214   7.2022033  39.2698836  59.2411375
   6.9138843  38.8319635  58.4403038   8.0811673  38.9254522  59.3993139
  55.3261032  68.4653339  54.4765520  55.5139633  69.3635270  54.7489309
  56.1418846  67.9909006  54.6366930   4.4055969  14.2962682  30.9894228
   3.7839571  14.3396103  30.2628446   3.8710144  14.0630794  31.7484212
  71.7419449  67.7869415  14.9762428  71.5719667  67.4022722  14.1163766
  72.6833412  67.9601288  14.9792945   5.0543880  35.0257587  35.0895929
   4.1733736  35.3660488  34.9338746   5.4816252  35.0666356  34.2340040
  74.7645557   4.8717210  17.5560319  75.5869898   4.4225934  17.3607922
  74.3745393   5.0408065  16.6984010  23.9737129  36.2781000  37.3199248
  24.4643569  36.6138744  36.5697551  23.6792397  35.4100037  37.0443797
  37.0601435   9.0535827   2.4289657  37.3205514   9.5235629   3.2211353
  37.6622279   8.3109231   2.3822452  38.2232523  23.1650448  36.9744372
  37.4988818  22.9080033  37.5449204  37.8013372  23.5950708  36.2305975
  78.2956537  33.2746673  57.8667593  77.7272989  33.9535403  58.2305384
  78.6862374  32.8536177  58.6325264  31.2703347  32.0132256  36.7994094
  32.0228291  31.4442086  36.9612861  31.3655996  32.7228451  37.4347043
  42.3772414  65.4117184  57.5419824  42.0061465  66.1171179  58.0720107
  42.4107738  65.7706289  56.6552518  33.4050152  44.1683601   2.8075554
  33.8711182  43.4747623   3.2743551  32.4950359  43.8722764   2.7851059
  25.4666710  34.6535397  30.3746510  26.0310841  34.8745036  31.1154914
  26.0600042  34.6155381  29.6244884  28.9357376  18.1843054  46.8952370
  29.2748666  17.4600673  47.4212646  29.7173071  18.6191618  46.5542412
  65.8740369  25.3727770  49.3727493  66.3008967  26.2152815  49.5283556
  64.9464884  25.5884767  49.2760086  58.6818066  26.5989351  34.9092031
  57.7338710  26.7096639  34.8357844  59.0407553  27.1301031  34.1983938
  65.0281154  66.1608664  40.6457949  64.5411693  65.6254778  40.0193167
  65.6457066  65.5524943  41.0516214  46.3890594  73.2460261  43.9212561
  45.5871188  73.4192392  44.4143295  46.4834332  74.0034860  43.3436918
  72.6613686  23.8434029  58.1257343  73.0419853  23.2023883  58.7261200
  71.7351452  23.6065817  58.0782127  14.1737247  25.8160710  30.6759596
  13.9954960  25.1183414  31.3065481  14.9287617  26.2794423  31.0385036
  20.1082349  23.0183864  53.3967876  19.5760727  22.2297955  53.5024357
  20.9244895  22.8197455  53.8555908   7.9480600  24.2439699  18.5431910
   7.7110726  24.9093270  19.1892338   8.7311196  24.5922565  18.1168735
  58.9532211  17.9335845  61.4717102  59.2645863  18.7791765  61.7946005
  59.5862761  17.3002350  61.8098545   3.0313626  50.3457832  58.9804411
   2.9723981  49.4098902  59.1724253   2.2708443  50.7284164  59.4179773
  73.3484307   6.3635463  25.9034324  73.0955997   6.6571325  26.7787123
  73.7097022   7.1444070  25.4839444  21.8585634  22.2632504  12.1395183
  21.5097666  23.0079103  11.6495645  21.0883546  21.7389607  12.3589039
   7.4878049   6.2861991  55.1870298   7.1998233   5.6504732  54.5319319
   7.2295117   7.1347141  54.8271132  75.4371286  48.2147741  30.7930064
  75.1235500  47.5036430  30.2342629  74.7181025  48.3737421  31.4045310
  42.8339952  71.9231618  53.5080862  42.3843174  72.4211723  52.8254366
  43.0382913  71.0833672  53.0966949  55.2944198  22.6892686  12.5754690
  56.1587969  22.7347636  12.1667933  55.2100673  21.7781830  12.8566146
  70.5129215  22.8711033  48.8855410  70.5154094  23.8277054  48.8518620
  69.7342262  22.6514745  49.3970394  13.0384624  40.5737066  55.7336807
  12.8301442  39.7926664  56.2463331  13.6129558  41.0869265  56.3018274
  62.3994748  44.0708695   4.1413929  62.7436820  43.1918053   3.9832832
  62.7241436  44.5910041   3.4063532  51.0224247   9.4648713  11.4876080
  51.1130476   8.6148340  11.9182551  51.8833303   9.6320283  11.1040258
   4.2015225  30.4146028  48.4605408   3.4055099  30.7726502  48.0676079
   4.1081280  29.4663644  48.3691502  49.5429055  21.2844323  13.6061003
  49.9679414  21.4557432  12.7657272  49.0980355  20.4458855  13.4829666
  20.8312662  70.6219916  51.2631570  21.0947289  70.3297906  52.1357618
  20.8105840  69.8215632  50.7386385  73.5024008  28.0044866  43.3507252
  73.5996270  27.2027659  42.8368950  74.3625364  28.1399655  43.7482738
   9.6778733  14.3315446  38.6306357   9.9391586  15.1550090  39.0427852
   9.1311854  14.5967770  37.8910303   9.7735739  29.8405266  19.0149128
  10.1574409  29.0830421  18.5732186  10.5089438  30.2500868  19.4706786
  41.4164320   1.5519279  15.3523433  40.4708400   1.4833613  15.4842007
  41.5230599   1.5979202  14.4022143   6.7678177  18.8683403  31.1829472
   7.6571560  18.5580862  31.0125017   6.6710538  19.6379983  30.6221485
  59.0456259  69.7635764  56.2510157  59.0710729  69.4082541  55.3625727
  59.4772392  69.0985620  56.7873907  32.6193738  25.4652715  35.5344105
  31.6830850  25.5445981  35.7168961  32.6918602  24.6805239  34.9911356
  67.8313628  39.1370988  50.7868862  67.9661611  38.6948943  51.6250467
  68.1529859  40.0270319  50.9311485   6.0924333  31.9500232  42.3500013
   5.6679064  32.4676633  43.0341482   5.9174168  32.4319196  41.5416813
  41.9730703  48.5215961   4.4123699  42.7716891  48.3514474   3.9128830
  41.9658867  47.8456996   5.0901224  13.7221181  18.0062425  33.4069467
  13.9502358  17.1095705  33.1616449  14.4295979  18.2825410  33.9894962
  35.2145179  70.1491854   4.7566959  34.6233162  70.8986599   4.8274252
  35.1394399  69.7043941   5.6009448  12.8754973  37.4558115   8.1066638
  12.6346552  37.1293759   7.2396767  12.0588970  37.8002739   8.4682477
  21.2942583  46.2565564   1.0743667  20.6429742  46.5514188   0.4378750
  20.9483127  46.5410017   1.9203235  59.7259950  42.6563421  25.0784922
  59.4937044  42.1550742  24.2968273  60.3032445  43.3485976  24.7563171
  40.0992012  16.4654064  32.4421287  39.7268510  16.7418408  31.6047692
  39.4082308  16.6405010  33.0809784  15.1714230  32.1726632  33.7337470
  14.3237221  31.8376708  34.0260053  15.4910982  32.6918554  34.4716334
  46.2146282   7.4274600  39.8866534  46.5880728   8.2695812  39.6266508
  45.9183311   7.5644302  40.7864761  56.4600435  21.4403701  56.9719601
  55.7960168  20.8253074  56.6605139  56.9624963  20.9436536  57.6177502
   5.6450731  17.0644808  23.6596227   5.7726294  16.2795174  24.1923475
   4.9665695  17.5585735  24.1197705   7.6811016  24.0822005  56.6547918
   8.4024376  24.6838856  56.8388605   7.2614467  24.4431734  55.8738804
  10.1129055   6.0849667  34.4422555  10.7323182   5.7928163  35.1109910
  10.3562760   6.9948262  34.2714977  24.3758106  21.3456678  20.7205009
  23.6219549  21.4024019  20.1333761  25.0635886  21.8410420  20.2757549
   0.4591352   6.0273629  43.8479900   0.8302987   6.8749768  44.0929794
   0.9998360   5.7318312  43.1155062   9.8531228  15.0236642  45.0813389
   9.6853459  14.2843282  45.6656885   9.5525789  15.7891309  45.5712032
  15.8838868  21.7073774  22.1161699  16.6348577  22.2905183  22.2267270
  16.1433125  21.1137271  21.4115381  21.4447165   3.7987897  21.8608880
  20.8279181   4.0808424  22.5363398  20.9992981   3.9890593  21.0352778
   8.5256702  47.0124435   8.7176692   8.7995362  46.7807674   9.6051121
   8.7585092  47.9366255   8.6287427  19.7330546   6.7626721   8.7537080
  20.0441670   6.2020922   8.0429399  20.4765153   7.3317373   8.9528638
  44.5445813   8.7004848   6.2556269  45.0144847   9.1573615   5.5579950
  44.6990706   9.2321153   7.0364811  76.6334008  59.5481244  28.2975316
  77.0592450  59.3571988  29.1332555  76.4002847  58.6889878  27.9457164
  69.8737404  23.2637334  58.0926037  69.5338598  22.9777193  57.2447205
  69.6592602  22.5476789  58.6905146  72.4388949  71.9198094   1.6530325
  71.7057435  71.5180980   2.1192362  72.5868384  72.7487622   2.1082022
  16.6217113   2.4399208  44.3231726  15.8887970   2.1793061  43.7653637
  17.1240234   1.6350755  44.4502115   6.1622632  19.3381667  19.5309377
   6.0089195  19.7864306  20.3626704   6.8354821  19.8622549  19.0969563
  17.9090559  35.2619672  39.7010207  17.7662945  35.9156752  40.3855038
  18.7556303  35.4951119  39.3199873  74.6859256  22.1281910  18.5047233
  75.6075803  21.9153380  18.3581698  74.5739934  22.9927564  18.1094646
  30.6286979  23.6788058  32.0864129  30.9622073  22.9879093  31.5139890
  29.7914171  23.3420944  32.4055004  73.1884047  13.7309599  44.0517950
  73.0866191  13.3069921  44.9039221  74.0122590  13.3846915  43.7088728
  13.9736772  14.8571301   6.2306273  14.0223479  13.9576650   6.5543938
  13.7557089  14.7663212   5.3030097  32.5340960  65.9844838  17.4731781
  33.0527381  66.7721759  17.3095180  31.7479078  66.1002146  16.9395592
  75.4239667  24.7873354  44.5369720  75.0629717  25.4860997  43.9914036
  75.9163946  24.2376781  43.9273596  74.9127872  37.9539676   2.1316149
  74.1213901  37.7046247   2.6088526  75.4122694  38.4813113   2.7550365
  71.2155661  49.0419769  15.5925608  71.7552385  49.1304016  14.8069608
  71.4332393  48.1755924  15.9364069  12.8843057  22.6188421  53.6287642
  13.8387644  22.5951600  53.5603523  12.6111603  23.2403636  52.9539776
   3.2882094  25.7516289  33.8190770   3.7694377  25.5047059  33.0293441
   2.7056926  26.4557505  33.5342669  66.3863602  64.2056084  42.2241735
  67.3020902  64.2847443  42.4913931  65.9200957  63.9830589  43.0299664
  64.6371166  71.4648257  12.8912546  64.2812983  71.4611803  12.0026542
  64.4460503  70.5899440  13.2293512  38.5381484   5.2688313  24.7504568
  37.9761863   4.8712003  25.4155302  39.4148707   5.2479649  25.1340628
  58.9828625  21.8713689  31.0092211  58.7105087  21.1231875  30.4779196
  58.4509459  22.5994849  30.6880617  74.9580219   4.9247807  12.0878792
  74.0280160   4.8542950  12.3031747  75.1540932   4.1208372  11.6067731
  57.1737233  29.9720502  62.0431995  57.9398671  29.6319723  62.5053692
  57.1351782  29.4608283  61.2348700   7.3933214  10.5864072  61.3504553
   7.5231385  10.7074404  60.4098558   7.3879117   9.6368772  61.4712667
  51.3178870  63.9463500  42.0871782  51.2616558  63.0120936  42.2877598
  52.2532045  64.1449651  42.1315050  76.4948701  64.5154456  39.5240974
  77.3174214  64.0512190  39.6794510  76.6386699  65.3872726  39.8921609
   0.4894895  22.0041561   4.8973396   1.1690592  21.4013839   5.1991385
   0.7540057  22.2371411   4.0074062   5.3996843  44.6612597  30.0849676
   5.6425506  44.4822216  30.9933686   4.7648588  43.9785767  29.8677635
  27.7619910  29.4568253  52.1755743  28.7165785  29.5136046  52.1334457
  27.5858903  28.5416031  52.3937225  10.1249659  39.8915720  52.3538399
  10.2794015  40.3285599  53.1913519   9.9671715  38.9766097  52.5865984
  20.7626152  45.8776474  20.3563762  21.2258458  46.5207291  20.8931255
  21.4107823  45.1932764  20.1898074  76.3598558  41.9030333  41.5434980
  76.2705939  42.5441408  42.2486544  75.4706153  41.7913914  41.2073135
  20.7316063  59.2594324  22.1466305  21.5704811  59.6939622  21.9926693
  20.8909879  58.3434664  21.9189598  70.2518757   1.0267181   0.8044769
  71.1003776   1.3035030   1.1504032  69.6734317   1.0185690   1.5670826
  20.8481727  34.1996603  29.4695427  20.6262574  33.8796423  28.5951473
  21.7848910  34.3912478  29.4238903  56.2694970  45.3398085  47.5876045
  56.9459096  45.0177956  46.9917822  56.6627422  46.1065006  48.0044603
  29.6054339  35.9501362  19.0746415  30.3904915  35.4231691  18.9255702
  29.0651608  35.7997441  18.2989371  15.0339007   8.3241850  10.7047606
  15.7702780   8.3546436  10.0939798  14.5116282   9.0967780  10.4889774
  28.3581018  19.4565785  49.3327713  28.9336085  20.2205086  49.2948914
  28.5056305  19.0041482  48.5022449   6.0799456  12.8471243  36.1654997
   5.1709610  13.0868113  35.9851408   6.0195333  12.1640360  36.8333125
  73.6799938  22.2471428  40.8363962  72.7910563  22.1859550  40.4867172
  74.0575278  23.0101514  40.3987694  69.5961069  69.5598322  47.6765442
  69.1340255  70.2430794  47.1908665  69.1738045  69.5492524  48.5354853
   9.4159967  10.7869363  46.6775322   9.8072696  10.0464404  46.2140608
   8.8199705  11.1804676  46.0402584  75.6313038  19.5710754  50.1138926
  76.0682468  20.2804136  49.6425676  75.8498895  19.7240448  51.0331631
   4.9131924  49.1440678   6.4787334   5.2280188  48.4146070   5.9448820
   5.6911933  49.4557238   6.9411367  30.2465320  23.6423016  27.4555492
  30.5356765  24.5493770  27.3563528  30.3139853  23.2718158  26.5755367
  71.6010522  63.2634321  34.2739105  71.1314642  62.8178612  34.9790239
  71.2789499  62.8499440  33.4729671  56.0627095  61.6696940   6.6872217
  56.1018435  62.0020209   7.5840284  56.3436309  60.7573401   6.7574121
  26.1193848  23.8590026  11.1920488  26.0368371  22.9080844  11.2639713
  27.0296836  24.0388513  11.4270926   3.5656443  33.0032015  38.2695079
   2.6530844  33.2899380  38.3048582   3.5199642  32.0496511  38.3393812
  31.4579872  34.4124143   1.2238313  31.5949509  35.3451803   1.3894226
  32.3307208  34.0258028   1.2952377  47.6642304  70.1205430  17.4990702
  47.7023583  70.8173246  18.1542599  47.8115972  69.3159655  17.9962325
  12.1303117  24.3230677  23.7445974  12.5349939  24.4905949  22.8934813
  11.1963737  24.4747710  23.5997605  12.7920377  37.7006555  25.2477145
  13.6315751  37.4800539  25.6511307  12.8826654  38.6188602  24.9929214
  61.2296680  13.0197549  26.3809919  61.0204330  12.3839974  25.6966925
  60.9048703  12.6192534  27.1874261  19.0310848  34.8238492  31.6323471
  19.6972799  34.4809318  31.0366774  18.3167577  35.1011419  31.0586953
   6.9165581  38.7448215  27.2218943   6.1691296  38.9811063  27.7712154
   7.5939697  39.3804336  27.4528527  44.2955032  70.9473610  57.7749300
  43.5814825  70.4276752  58.1441641  43.8818398  71.7691231  57.5106859
  20.6606603  24.8600316  35.0672984  20.8949995  24.2602420  35.7755136
  21.1087418  24.5087719  34.2978358  58.7190405  34.6008945  34.4822669
  58.3824650  34.6935201  33.5909915  58.9151803  33.6679792  34.5684695
  45.6833976  67.8523979  40.8462048  46.5557819  67.4779365  40.9684992
  45.3847795  67.4957320  40.0096369  63.2357442  70.8070219  17.0871079
  63.4045195  70.5260685  17.9864478  63.7177586  71.6292501  16.9985926
  53.9370743  17.9207528  42.9994488  54.4999591  17.4022782  43.5744047
  53.1857792  17.3538625  42.8250265  17.2137344  37.4469614  11.0189295
  16.3346064  37.6641726  10.7087898  17.3847520  36.5751076  10.6627619
  18.1086218  13.1229389  56.1323833  18.2471001  13.4695947  55.2509737
  17.6837206  13.8375282  56.6067791  39.9090715  20.1720615  16.0057594
  39.2212184  20.8344073  15.9395172  39.8000498  19.6342607  15.2214672
  57.8377104  17.2197068  59.1072178  58.3443928  17.3909080  59.9010658
  58.2467031  17.7694333  58.4388208   1.4540692   8.2748294  53.3311319
   0.5411723   8.5066080  53.1604576   1.5310866   8.2914960  54.2850828
  19.8022330  11.9095409  11.4607298  18.8910711  11.6197562  11.5058982
  19.8620749  12.6132357  12.1068442   9.2163455  32.0158315  41.1289644
   8.5365742  32.6587677  40.9270334   8.8823277  31.5461159  41.8931818
  78.1455393  48.4324026  30.5855298  78.6884596  48.3077383  31.3639426
  77.2477213  48.4337473  30.9174228  29.2897201  16.8913472  10.8356321
  30.0514007  17.4618673  10.7327700  29.1592550  16.5073574   9.9685889
   2.5444567  62.7739143   4.5569023   1.6009119  62.6129532   4.5501551
   2.8516501  62.3636103   5.3653038  52.0159832  59.3859230   2.5199844
  52.0175806  59.9545871   3.2899525  52.9039351  59.0303932   2.4829675
  16.8107104   1.7205131  48.0175781  16.6894627   0.9867306  47.4150038
  17.7056110   2.0186922  47.8548717  30.4296923  20.8556604  31.9607210
  30.2681971  21.0671592  32.8801870  31.2658978  20.3898597  31.9653940
  28.7107635  37.4582601  34.1068983  29.1154289  38.0564523  33.4786916
  28.1624150  38.0205560  34.6540475  10.5391157  10.6650198  18.8281143
  11.3371861  10.3540921  19.2554772   9.9373758  10.8492076  19.5493746
   9.6694678  23.4931874  27.9393554  10.1828277  22.9970694  28.5769749
   8.7630963  23.2374001  28.1105113  11.4305627  49.3052006  14.1611481
  11.4286780  48.5082769  13.6309242  11.3699019  50.0169516  13.5239935
  30.6481099  33.7255120  38.9499927  30.6369615  33.4898400  39.8776579
  31.3723350  34.3461633  38.8692331  10.7859103  19.9479674   6.4749004
  10.5731503  20.3557943   7.3143341  10.0793258  19.3191169   6.3282158
  41.8043327   8.9837933   5.5692136  41.5996265   8.8382137   4.6455613
  42.7314234   8.7588060   5.6474155  17.4897571  66.2521796  39.8136566
  16.8779399  65.5468016  40.0242637  17.3585863  66.4119177  38.8790391
   5.0462860  27.5506186  47.9364538   4.8117313  27.1995950  48.7955189
   5.8725214  28.0110526  48.0833101  22.4932384  19.7962296  37.4281430
  23.1707001  19.1625154  37.1921635  22.5255036  19.8365760  38.3839464
   8.0256182   9.3174785  38.0279660   8.2395160   9.7604156  37.2068167
   7.7531654   8.4391397  37.7624059   8.1142934  63.2201806  37.7909827
   7.7256807  63.0486051  38.6487556   8.5743388  62.4103526  37.5701475
  16.3460588  33.1631494  36.1317492  15.5810344  33.4129763  36.6499710
  17.0314443  33.0001163  36.7797446  16.3227367   7.8171283  13.2026422
  15.5434906   8.1421578  12.7516842  16.5686035   7.0290512  12.7181673
  66.1477950  20.6469274  16.7633832  65.9592727  19.9704361  16.1129582
  65.8434513  21.4594007  16.3590407  41.5473270  10.8916712  26.3963223
  42.4577141  10.6677687  26.5894508  41.2853241  10.2669740  25.7200527
  66.2880945   5.2851909  34.6764374  66.2736845   4.7901517  33.8573146
  65.8320904   6.1013561  34.4710922  21.3039136   6.1790693  34.1854930
  20.6433034   5.5226773  34.4067907  22.0789647   5.6689912  33.9502263
  61.7545863   1.9656248   9.0797378  62.0556898   1.2491078   8.5210134
  61.8717469   2.7512879   8.5456611  12.5563220  66.4556895   9.2289116
  12.6023547  67.3161636   8.8121368  13.4269611  66.0797416   9.0989687
  61.6314796   4.1575301  38.9543366  61.1203411   3.8116226  39.6859908
  61.4720336   3.5421872  38.2386827  18.7887585  28.4203744  59.6313906
  18.6523688  27.7250600  60.2749491  19.6584892  28.2463837  59.2714882
  25.6399709  37.6670450  20.3443100  26.1843479  37.9652649  21.0729744
  26.1202681  36.9265321  19.9739219  50.9411478  20.0779676  58.8310432
  51.1891222  20.9026575  58.4131622  51.5857458  19.9596667  59.5287085
  71.9358549  36.4794946  16.0029340  72.2842851  36.7229676  15.1452935
  71.9509170  35.5224133  16.0046649  20.2828050  52.2642088  12.6754153
  19.5075142  51.7053413  12.7285671  20.0274086  52.9725218  12.0844030
  31.0515928  15.2739692  45.7374144  30.9164572  14.5029867  46.2883711
  31.6954160  15.7985878  46.2133360   7.2699603  71.0980228  23.0657506
   8.1747016  70.7878152  23.1037641   6.9015726  70.6680730  22.2939563
  28.6181641  24.6614671  11.8576598  28.6033773  25.3656960  11.2095284
  29.0293145  25.0535464  12.6280236  12.2797608  19.9898052  30.9227586
  13.1713653  19.7546661  31.1796308  12.3896837  20.5175161  30.1317668
  28.3018470  40.5419874  24.4731522  29.2411280  40.7168341  24.4147444
  27.9744768  41.1957741  25.0909090  71.1285710  55.1809612  16.1579823
  71.8370866  55.8148471  16.2694633  70.9379339  55.1973132  15.2201009
  77.2378193   2.2165352  56.4460611  77.4829145   1.6273628  55.7325935
  77.8812088   2.9240155  56.4041853  37.8363208  54.2949854  17.6415397
  37.5570611  54.0582429  18.5259582  38.7233726  54.6366750  17.7538730
  61.8178659  58.2030967  48.8314104  62.6479887  57.9177228  48.4497166
  61.3349044  57.3917047  48.9883232  58.8113164  56.7317418  43.6496019
  59.4972646  56.0644821  43.6713123  59.1561829  57.4472347  44.1838026
  22.3800445  32.3483086  17.5936472  22.0681739  31.8092728  18.3205652
  21.6748071  32.3103690  16.9475567  31.8528435  48.6903189   8.3640243
  32.0039216  49.0024613   9.2562010  31.2287728  47.9714821   8.4642317
  17.9463923  17.1411192  17.7708197  18.0184519  16.7054236  18.6200595
  17.0488584  17.4729490  17.7472591  13.2778978  57.8866816  11.9107556
  13.9795876  57.3977804  11.4808309  13.7255716  58.6049509  12.3578703
  34.0469694  39.1902041  31.0454941  34.2659616  39.1566586  30.1142859
  34.8116326  38.8181448  31.4849186  57.8914514  38.3709121  34.7705364
  58.3352438  37.8615522  34.0924263  57.7736822  39.2372203  34.3808270
  35.8203578  25.9632707  22.1918774  36.1286020  26.4908218  22.9286981
  34.9857235  26.3614750  21.9447875  37.0416737  45.2956581  28.1003594
  36.8564630  44.6830606  28.8121557  36.4153314  46.0080671  28.2284212
  15.7660902  22.2168088  53.9888334  15.7680452  21.7567420  54.8282194
  16.5202534  21.8609524  53.5189056  15.1905870  33.5612774  58.5565615
  15.7584107  33.0177259  58.0103397  14.5064831  33.8669729  57.9609251
  21.9041848  14.4620216  49.0360641  22.7362919  13.9893436  49.0158558
  22.1327162  15.3596711  48.7947512  22.4282789  17.3102987  28.8303185
  22.9056311  18.1337440  28.9318347  22.5816584  16.8418145  29.6508241
   5.2142465  22.5829673   8.1734735   4.5005560  23.0957675   7.7941138
   5.6643307  23.1939149   8.7569124  78.0519465  16.6554499  47.4295378
  77.5770511  17.0271194  48.1728888  78.4684167  17.4086285  47.0106030
  42.4662447  22.6305676  20.0864005  42.0024490  22.5006628  20.9135938
  42.6043415  21.7459869  19.7477579  51.7522950   4.8460431   3.2425644
  51.6582249   4.5757098   2.3291637  51.3155192   5.6966348   3.2868006
  16.8269348  67.6318693  20.0998235  17.1082532  66.7437983  20.3198671
  15.9518313  67.5207472  19.7282362  27.9822397  37.5838971  26.0078239
  27.7141571  38.3953238  25.5766010  28.7309718  37.2769952  25.4965091
  52.7826548  20.5112696  30.3346801  52.1960688  19.7682190  30.1931858
  52.4427223  20.9384418  31.1209393   8.3988214  42.6470757   5.3348535
   7.7094853  42.5746012   5.9950018   9.2081964  42.4664831   5.8129025
  57.1091127  18.4232867  21.7632771  57.9981184  18.4943736  22.1109080
  57.1944809  17.8478575  21.0031295  31.1275220  20.2800608   5.2897996
  30.8212590  20.5420113   4.4215736  30.3303218  20.2159357   5.8157182
  27.7417207   9.3712711  55.2472448  27.5790739   9.1492403  54.3304682
  27.0713162  10.0208700  55.4589319  32.7769184  30.5042958  22.3130107
  33.1254244  29.8114204  22.8739905  32.5008249  31.1893034  22.9219174
  38.5122514  18.5930228  13.5364759  38.8980103  18.8761950  12.7074802
  38.7387419  17.6652825  13.6015201  26.6108799  22.9783392  17.3463786
  25.6863999  23.0754352  17.1180356  26.6331077  23.0691099  18.2990050
  32.5630617  41.5239763  31.8757081  33.0218053  40.7067013  31.6811562
  32.2441077  41.4122772  32.7712655  25.2545094   8.3131278  49.2180920
  24.7316813   7.9683834  49.9419928  26.1275506   7.9461217  49.3571520
  15.2490079  30.9697604  47.6940298  15.5171967  31.8879151  47.6579952
  15.7098639  30.5567884  46.9637585  26.1017036  35.4582882  38.9690304
  25.6400943  35.6599069  38.1550884  26.8907928  34.9948215  38.6883783
  23.2401204  15.4679406  18.8959801  22.6655769  15.4068041  18.1328344
  23.0241609  14.6970832  19.4207394  15.3515470  20.0950408  10.6730533
  15.0935650  19.6742630   9.8529178  14.5292521  20.4059219  11.0517550
  31.9621682  20.9735060  35.4541707  31.2053514  21.5308976  35.6352186
  31.6215348  20.0808501  35.5121827  73.0308373  73.4601002  57.2931097
  72.6593860  74.3213849  57.4840174  73.9198048  73.6445217  56.9898693
  35.3600883  56.7616224  11.6837502  34.4971538  57.1416664  11.5190077
  35.9449911  57.5162125  11.7523909  48.2080905   7.3621078   4.9964382
  48.6615388   6.9346662   5.7230141  48.9064424   7.6080747   4.3897774
  62.6504707  45.2747107  41.5649939  63.3031845  45.8781481  41.9200468
  61.8367624  45.7787609  41.5585041  13.5235493  53.5989137   6.7170622
  13.4845631  52.7683396   7.1912481  14.4426648  53.8612218   6.7685892
  57.6843977  55.1527786  40.1540184  56.8272924  55.5638933  40.2662277
  57.5522757  54.2450333  40.4274559  10.7294083   0.9557995  25.8168888
  10.9948588   0.4800066  26.6039014  10.2861930   0.3000149  25.2786136
  75.5188672   8.1100258  39.6796489  75.8361594   8.1622108  38.7780762
  76.1628596   8.6019692  40.1890564  36.8658713   3.4205183  62.2701120
  36.8797187   2.6156982  62.7880907  36.0403655   3.8434013  62.5066328
  58.4270096  73.3276367   8.2981223  58.2326412  73.5097122   7.3787200
  57.6421070  73.6078453   8.7689090  16.9181745  22.1577687   0.8261062
  16.3020818  22.1893258   0.0942184  16.9509284  21.2332482   1.0719158
  77.8853066  31.4959283   1.5562059  78.0488141  30.9079690   2.2936346
  77.8238137  32.3652597   1.9520761   9.9824429   6.7205986  55.8972073
   9.0542603   6.7242703  55.6633425  10.4383422   6.8790134  55.0705957
  66.9024149  10.2757343  27.0490742  67.3367373  11.0046944  27.4920344
  65.9682218  10.4663357  27.1338177  22.6501147  40.6637425   3.0083896
  22.8899066  41.3578458   2.3944284  21.7258851  40.8224864   3.2003023
  47.4366951  54.4174051  43.3001709  46.8053055  54.5315742  42.5898600
  46.9021940  54.3910074  44.0937996  75.6545464  15.5222115  15.7436478
  76.0311858  16.2802872  15.2967739  74.7098032  15.6739697  15.7178497
   9.3809120  25.0335403   1.4814426   9.6177928  24.9713082   2.4067785
  10.2096502  25.2013536   1.0328152   6.4258949  16.2290235  19.1201069
   5.5212729  15.9230943  19.0545704   6.3531749  17.1819444  19.1738273
  14.0189616  22.5012393   5.8669569  14.0332811  21.5927501   5.5658390
  13.8138144  23.0102868   5.0827267  49.0856735  21.1802372  19.1145480
  49.3730227  21.8668541  19.7163963  49.3286077  20.3630909  19.5498621
  53.3669901  55.0535059  51.1096811  53.6042213  55.9395361  50.8359957
  52.8223658  54.7202873  50.3965330  12.2037253  56.5850353  49.8830652
  11.5537104  56.4271307  49.1983938  12.4203429  57.5135279  49.7981167
  60.1584879  15.5358585  21.4422417  60.4901115  15.3698048  22.3246741
  60.1159731  14.6703896  21.0355592  50.1333324  12.7792248  48.9629650
  49.8362819  12.0180496  49.4615650  49.5257870  13.4774479  49.2071199
  63.3168602  71.1305714  26.2260437  63.9656067  71.1549139  25.5226445
  62.8462791  70.3082943  26.0895061  40.0113201  72.2034168  27.2126770
  39.7939014  71.4220810  27.7210808  40.1944923  71.8734789  26.3330054
  21.0071496  17.9106602  38.6837435  21.4032520  18.1778606  37.8543210
  20.2852348  17.3355564  38.4301233   7.1753789  27.5723347  43.7044954
   6.3361216  27.5977119  43.2448912   7.1929408  28.3812698  44.2159081
  47.2060966  50.8084202  47.8773737  47.1616888  50.2605772  47.0937109
  46.4360332  51.3738728  47.8182650   4.2708620  67.4814272  25.9581923
   4.4580588  68.4159136  26.0472202   4.9178156  67.0530939  26.5187359
  18.8663150   4.0934452  58.9583111  19.1477299   4.2879328  59.8522997
  18.7143470   3.1483873  58.9553022  60.5254698  73.9810944  60.4753208
  61.3384485  73.5176229  60.2741051  59.8345423  73.3468723  60.2839613
  53.6914412  10.5458149  40.7098389  53.3705703  10.1570496  39.8961186
  53.9409296  11.4375004  40.4671907  68.9328750  32.0585485  16.6204311
  69.6014972  32.6314826  16.9958259  68.5742433  31.5851016  17.3710777
  43.6559049   5.4378685  42.5528669  43.8081900   4.4930395  42.5345278
  43.1558780   5.5843386  43.3558321  69.3105284  34.7140678  54.6406937
  68.9070574  34.9552425  53.8068581  69.7143618  33.8623985  54.4738960
  16.0437076  37.9494424   2.7013161  16.7724864  37.8836818   2.0842363
  15.7148425  38.8413806   2.5893881  51.4960591   2.9915114   0.8790495
  51.8138187   2.8165550  -0.0067566  51.8701617   2.2890158   1.4108183
  58.9251510  22.5208744  58.6582088  59.2944900  23.3883843  58.4931469
  58.1456605  22.6891979  59.1876411  75.6652117  46.6688490  18.5222554
  75.1824760  47.4913216  18.4401870  76.3229084  46.8433046  19.1954792
  47.4170589  68.6024714  45.7635689  47.7588320  68.7204313  44.8772764
  46.5793610  69.0656042  45.7608461  70.9321371  21.1163792  40.1173019
  70.8030669  21.4271053  41.0134172  70.1910750  21.4762863  39.6299338
  71.6890017   1.7351421  46.7790413  72.3969809   2.3678955  46.8999481
  72.1333901   0.8913788  46.6964865   2.1569769  22.5694938   2.6231291
   2.3178880  22.3907466   1.6966345   2.5358598  23.4363027   2.7691461
   4.3531657  18.8823208  36.2658787   3.6868907  18.2706436  36.5791798
   4.1725350  18.9747414  35.3304315  56.0441843  13.8734898  62.8059959
  55.4260699  14.3911251  62.2900343  56.6585890  13.5219940  62.1616459
   3.1305505   5.1666960  32.4881172   3.7321950   4.4711384  32.7535462
   3.2769585   5.8660206  33.1250978  49.0530157  57.9112339  19.4575489
  49.0126324  58.1829882  20.3744721  48.5500288  57.0974302  19.4265568
  67.6843611   7.2725567  39.6488786  67.5687663   8.1435761  39.2691565
  67.4244992   7.3740372  40.5645227  68.0957985  73.5452795  56.2752390
  69.0209246  73.7273788  56.1102629  68.0779457  73.1774521  57.1587610
  25.3059268  72.4556255  39.6831703  26.2128448  72.5442171  39.3901110
  25.2277875  71.5386772  39.9464798  40.1449537  71.7740679  48.4734058
  39.8517275  71.1429739  49.1306496  39.3364501  72.1106052  48.0870199
  34.9629758  11.8487629  35.1604271  35.2190665  12.1030125  36.0469985
  34.0740869  11.5069279  35.2566266  73.7971512   5.1266655  14.9945796
  72.8587357   4.9465927  15.0509572  73.8583390   6.0819038  14.9976134
  26.8403625  63.7859535  50.4681921  25.9286499  63.8005543  50.1769829
  26.8290496  63.2545280  51.2642336  38.7563062  66.7728281  40.3814125
  38.7338138  67.6768303  40.6952667  39.6679783  66.6302586  40.1269341
  25.2686469  23.1486888   4.8159506  25.8896177  22.4391885   4.6509029
  25.1238935  23.1250854   5.7618477  75.3637854  38.2481941  47.2295332
  75.8231656  39.0616879  47.4379253  76.0352580  37.5695213  47.2985172
  28.5453670  54.6809526  11.5652468  28.2605283  54.3186994  12.4042179
  29.2595546  54.1076417  11.2869026  75.2543545  67.3020649  61.5179586
  74.9487829  66.7401648  60.8058310  74.8490906  66.9348478  62.3035431
  24.7573758  16.2496361   8.9826727  25.5237103  16.8214211   9.0276229
  24.1651059  16.6903671   8.3734065  63.0972568  10.5481133  44.7240829
  63.2547966  11.0383781  45.5309629  63.9697377  10.2913841  44.4255924
  54.7134972  67.6057243  58.5832214  53.8528395  67.2366905  58.7814856
  54.5347834  68.5150671  58.3436584  46.3245249  54.9651432  48.2847404
  46.7087030  55.2549362  49.1121769  45.4825592  54.5830584  48.5324049
  41.4913130  66.5685225  21.6084981  41.2133169  67.4716091  21.7614007
  42.4366760  66.6289234  21.4711523  22.1934867  62.9373741  39.5627379
  22.8537965  63.1117868  38.8920641  22.3965955  63.5550785  40.2651787
   8.3463145   2.0232996  18.9090061   7.7834512   2.7974543  18.8989055
   8.9548875   2.1601566  18.1829631  64.8824644  39.8476386  52.4996471
  64.0595198  40.2616978  52.7595425  65.5374336  40.2285480  53.0845881
  57.0999479  69.4171858  44.0428352  57.0594645  69.5894575  43.1021357
  56.5924501  70.1259708  44.4381857  68.0301189  37.5284410  15.7514179
  67.3579741  38.2063651  15.8212578  67.8189182  37.0643210  14.9413443
  28.1307537  29.9556049  20.2806091  28.1366634  30.9125599  20.3017211
  29.0560035  29.7105011  20.2724314  66.2719202  60.1826477  41.5824127
  66.3770819  59.2578697  41.3588905  66.4283991  60.2202845  42.5259876
  33.5728908  59.0948963  40.0576353  32.8473926  58.4930992  39.8911285
  33.5820770  59.6753550  39.2965698   5.1346335  50.1011801  52.5735903
   5.2976927  50.3753662  51.6711140   6.0069308  49.9735165  52.9464483
  52.9069090  54.7740602  61.0826206  52.6619768  54.7245932  60.1586103
  52.1813679  54.3550491  61.5454912  26.5125585  69.5024633  33.4384537
  25.9473801  70.2211809  33.1551743  26.8657088  69.7926664  34.2794633
  21.8213861  30.9030624  20.1299908  21.2057988  31.1766048  20.8100368
  22.5835197  30.5819364  20.6119301   0.3028998  57.1337175   1.0950791
   0.0415310  57.1852636   2.0144606   1.1492714  57.5795269   1.0613327
   7.8953982  13.1930145  58.7560606   7.2245932  13.3103642  58.0833960
   7.6019765  13.7397751  59.4848871  64.1345207   2.1517881  14.5323026
  63.8131110   1.2650045  14.3693733  64.1115562   2.2436365  15.4848099
  20.9151673  62.1559763  49.6656513  21.4676142  61.5317869  49.1950941
  21.0530424  61.9485521  50.5898762  32.2089932   2.9769978  29.8586249
  32.0628385   3.9116129  29.7124529  32.6849524   2.6845583  29.0813375
  24.7337374  70.8894634  29.8280287  24.7945341  71.8445063  29.8072314
  23.9616617  70.7102442  30.3646898  60.8301163  65.5791950  42.1445465
  61.2723875  65.3167248  41.3372421  60.1321173  64.9337435  42.2559834
  77.6196623  62.1227932  34.8068118  76.8537045  62.5760317  34.4545102
  77.4506378  62.0621443  35.7470179  69.3070503  43.4190507   3.2835056
  68.6077114  42.9561515   2.8221132  69.9414904  42.7368112   3.5032226
  50.5207268  16.2495789  30.3477097  51.4303461  16.1427006  30.6259179
  50.0489298  15.5481514  30.7967472   2.4561152  73.7485981  45.1901579
   3.4003577  73.8164473  45.0486135   2.3044428  74.2058754  46.0172796
  68.4731948  40.0675763  56.4243214  68.0928087  39.1897048  56.3946257
  67.9350685  40.5404319  57.0591925  61.8848515  18.9919364  27.9295683
  61.9035196  19.8994565  28.2333589  60.9598637  18.8160086  27.7572942
  30.5864526  23.1062397  22.4088717  30.6239415  22.9036030  23.3436251
  29.8574925  22.5808701  22.0789528  44.3623845  26.8175168   5.0909998
  45.2848165  26.6390367   4.9079801  44.3679492  27.2609563   5.9392692
  22.1131770  15.5064673  16.5313865  21.5819852  14.8236508  16.9410564
  21.5190093  16.2517781  16.4435818  54.4224405  54.8941135  54.4154596
  55.0630856  55.1388025  55.0832462  54.2849159  55.6955242  53.9104271
   8.5586835  13.4093842  27.9304266   9.0406562  13.4964260  27.1080184
   7.8684331  14.0701946  27.8746128  40.1387075  37.0288548  32.0812702
  39.7277240  37.6971325  32.6296520  40.0402466  36.2170300  32.5787377
  54.6904278  56.4872503  34.8971987  54.3778610  55.5829716  34.9255776
  54.9494505  56.6795301  35.7984018  31.5919749  20.0292296  12.4405004
  31.0764186  19.7302480  11.6914751  31.7623107  20.9537549  12.2603037
  67.5164954  23.8510975  47.5229311  68.1662766  24.2613014  48.0936766
  66.6847102  23.9728817  47.9806805  56.3963175  73.0039072   3.4194595
  56.9034529  73.4311295   4.1097674  55.5015326  72.9812908   3.7586981
  30.9057618   6.0023531  47.1449471  31.0491276   5.6163630  48.0090570
  29.9947739   5.7940468  46.9377232  41.9700722  20.3632149   0.2653755
  41.7885021  20.9323010   1.0133078  41.7607180  20.8990368  -0.4996717
  39.7155261  71.2969446   4.9215150  38.8264942  71.1367226   4.6050051
  40.2179241  70.5411053   4.6173191   1.9879809  60.2747631  27.0101166
   1.7382285  59.6565723  26.3233137   2.7686283  59.8888111  27.4074364
  17.5342990  14.7052654  33.2130980  18.4128524  14.6882805  32.8335118
  17.3257352  13.7852940  33.3755231  14.5235984  19.3070979   0.2098228
  13.9507501  20.0317664  -0.0410412  14.1621129  18.9917178   1.0381319
  69.4476334  39.5823273  38.6450315  68.9517991  39.3589005  39.4327235
  69.9527375  38.7934383  38.4481621  64.6538448  67.2356892  48.2340860
  64.3046331  66.5924692  47.6172018  63.9079332  67.7988195  48.4408092
  31.4282346  57.0721769  42.8770065  30.9158969  57.8455734  42.6412201
  31.8876934  57.3243046  43.6779833  24.3251134  15.0294575  52.0363998
  24.1879464  15.6045231  51.2836027  25.2626038  14.8366818  52.0228624
  48.9658070  73.3196163  50.7464123  49.5786905  72.5864458  50.6910419
  48.4585524  73.1483603  51.5398836  78.0371623  50.2652550  38.8425779
  78.6627254  50.7065773  38.2680035  77.8518841  50.9042978  39.5307112
  59.2843914  37.1827817  32.4658775  60.2034187  36.9203472  32.4134541
  58.7966681  36.3988400  32.2133088  52.8038263  60.1213932  36.8144441
  53.4798813  59.8668194  37.4424362  53.2891321  60.4904556  36.0765386
   4.9729380  63.7422943  52.0400047   5.3118834  62.9462147  52.4494028
   5.6917605  64.3708134  52.1070528  41.7448902  58.3898163  44.5384741
  42.2032213  58.9157438  43.8830614  42.2427034  58.5249138  45.3448009
  59.0461111  63.0891418  29.6232319  59.3114519  63.1719065  30.5391908
  59.6371508  62.4288654  29.2613816  64.6760416  69.9120760  42.3672247
  64.9555302  69.7642183  43.2706976  65.0969839  69.2117548  41.8686390
  63.4893656  53.0315781  37.2105789  63.0391932  52.2990322  37.6312327
  63.9545012  52.6355410  36.4736700  68.1408135  28.8770088  23.1610703
  68.3517138  29.1424831  24.0562105  68.0577246  29.7005257  22.6802945
  12.2385026  23.9669498  17.5552487  12.2271348  23.0393681  17.3192394
  11.7855168  24.0053352  18.3976030  60.6579734  40.0163741  15.1792433
  59.7913738  40.1311345  14.7892858  61.0908254  40.8608384  15.0537540
   6.5548516  22.1366581  38.1858397   6.5364314  21.2304768  38.4936261
   5.6371642  22.3515972  38.0188584  30.6795423  19.4348092  15.7934810
  31.5017860  19.9038072  15.6514026  30.0521199  20.1177545  16.0304596
  47.9454462  23.4015926  45.0831127  48.7373225  22.9508003  44.7899389
  47.2268287  22.8593716  44.7578192  34.4390345  69.4428921  39.1911507
  34.8514676  70.0420523  39.8133540  35.0699449  68.7300539  39.0909147
  21.0026964  66.7190684  58.4206162  20.4984459  66.4100017  57.6679937
  21.2896093  65.9193171  58.8614236  52.1872322  25.5902370  34.9655032
  52.2418252  25.3195175  34.0490079  53.0981533  25.6393703  35.2554011
  43.8989345   4.1227755  46.5752029  44.7791282   4.4816956  46.4626455
  43.3679000   4.5823416  45.9247923  60.0292076  15.3525777  10.3810360
  60.4754080  15.1972957  11.2135174  59.3279882  15.9675784  10.5961992
  73.3354616  68.0878210  31.0028982  73.7193775  67.4394846  31.5932393
  72.3984194  68.0630636  31.1967397   9.4931699  10.8526787  31.0830355
   9.1650058  10.0992664  31.5738583   9.8191930  10.4810032  30.2634025
  46.5871096  54.3934441  39.1065001  46.1904478  53.5545301  38.8717461
  46.1031294  54.6786928  39.8815060  74.6484756  46.7273331  41.0012817
  74.8393154  47.5279379  41.4899921  75.0440216  46.8714476  40.1416254
  66.8081379  55.5994892   7.9947710  67.6992226  55.2660894   7.8896993
  66.3652277  55.3599024   7.1807325  37.1347690  60.1674557  19.2642426
  37.7156854  60.9280157  19.2819095  36.6148281  60.2816296  18.4687185
  74.3254550  27.2574992  -0.1184462  74.4176586  27.9054685   0.5800297
  74.1590865  26.4336248   0.3395845  45.2790594  73.8510513  34.1148901
  46.1225939  73.4830093  33.8517785  45.4296255  74.1875410  34.9982572
  58.9075128   3.2394537  59.8802757  58.7047020   3.3325371  58.9494467
  59.7389046   2.7654251  59.8980284  53.8393179  22.0768246  21.4024448
  54.7876040  21.9571384  21.4540291  53.6085693  21.7840942  20.5207992
  65.1746941  53.0686951  34.7443271  64.7777796  53.8437033  34.3467760
  66.0324907  53.3671904  35.0464988  39.7180820  59.3033838  49.4910860
  38.8696742  59.7197008  49.6431208  39.8221064  59.3121672  48.5395956
  68.5000515  71.2343740  32.9452586  67.6538658  70.7935381  33.0217981
  68.3906746  71.8366146  32.2093415  70.0495195  46.1116457  36.0899711
  70.2907753  45.2868986  35.6682801  69.3640137  46.4755535  35.5297232
  60.3963232  66.2097931  49.7203922  59.5665073  66.1608982  50.1949978
  60.2701283  66.9187260  49.0897369  14.2987347  67.9497099  40.8738804
  14.0812457  68.5984087  40.2044630  14.6171129  67.1938229  40.3804255
  23.3355141  40.3555092  33.9279771  23.7774802  41.0959229  34.3435240
  23.1399537  40.6599506  33.0418062  12.9471017  21.3485989  40.0250006
  13.2646275  20.9383759  40.8294439  12.0282746  21.0862240  39.9688864
   6.7089606  55.1329121  13.9977729   6.0238076  55.1311096  14.6662009
   6.4342023  54.4633278  13.3713496  63.0279596  49.3429132  21.3483478
  63.7755664  49.5526261  20.7885887  62.8486677  50.1547952  21.8226291
  14.6463363  39.1063590   5.1478435  14.3805997  39.9357886   5.5449106
  14.9474494  39.3459935   4.2714073  34.4569397  67.1988487  49.9664831
  33.8789487  66.5751457  49.5269918  35.3344250  66.8339825  49.8519087
  60.6043339  69.7203875  32.2409892  60.9212017  69.7439003  31.3380647
  61.0600710  68.9768028  32.6354694  49.2842261  10.6434902  21.3590264
  48.9644543  10.8916935  22.2264218  50.2350608  10.5964836  21.4586997
  52.1165514  52.0238686  49.6245289  51.8967342  52.9102325  49.3376875
  51.5651274  51.4547205  49.0876579  64.6721792  72.9372501  35.1256466
  64.5413876  73.2359648  34.2257047  64.3615294  72.0318604  35.1250196
  14.6821038  35.5559774   2.0083954  14.6160047  35.3799911   1.0698368
  15.3223006  36.2644858   2.0747282  50.5300570  64.0031433  46.2674570
  51.1571121  63.5004854  45.7474852  50.0444889  64.5192051  45.6239223
  74.5003444  51.7259169  20.6763339  74.5617461  51.6098118  21.6244793
  73.9225173  51.0203743  20.3855562  23.3354036   6.4904198  28.3167648
  23.9390408   5.8026060  28.5974073  22.7133594   6.0435757  27.7426410
  18.7547923  25.5588612  33.4448838  18.1110430  24.9642071  33.8298607
  19.5498563  25.4161629  33.9584470  62.6086378  68.1490421  36.6460466
  63.1596947  67.5521851  36.1397505  62.0798969  67.5749302  37.2001791
  45.0267363  52.9174900  20.5486178  44.5821285  52.8204536  19.7065127
  44.3465662  53.2330656  21.1436105  52.4643556  21.8775925  32.9677868
  52.6041357  21.3978848  33.7842274  53.0736104  22.6143059  33.0155396
  68.0633036   7.6331982  42.5339890  68.9464394   7.3630985  42.2822857
  68.1701104   8.5264191  42.8610754  26.6659976  16.0482391  21.2018108
  26.2819625  16.4028057  22.0037007  26.4799119  15.1101383  21.2415862
  25.8702636  64.5604515  54.0126896  25.1613116  64.9504852  53.5013294
  26.3957191  65.3065443  54.3016100  67.9000044  34.7979951  31.9290161
  67.2034502  34.4110584  31.3986158  67.7121353  35.7365608  31.9232798
  41.4859609  11.8590912  29.0571260  41.5471581  11.5332588  28.1591702
  41.2704734  11.0857185  29.5783734  21.1391259  10.3982338  39.8575544
  21.3919545  10.0308594  40.7045174  20.2027274  10.5769333  39.9439073
  65.2075545  18.6217674  22.6155114  64.7656695  17.9934296  23.1866121
  64.5078341  19.1962799  22.3047614   4.5257466  43.1915422   1.1633493
   3.5984294  43.0217977   1.3291838   4.9398868  42.3301168   1.2149431
   8.2878400   9.7958836  40.5909538   8.2123423   9.6676144  39.6453953
   8.3662749  10.7437691  40.6985712  33.4808252  19.1950687  52.2164679
  33.6078141  18.2463917  52.2268915  33.5211245  19.4522461  53.1375933
  51.6431904  68.8654518  47.9314280  51.9649649  68.7201691  47.0417166
  51.6270399  69.8176527  48.0277777   2.1742011  34.6688065  59.9059772
   2.9844571  34.6942505  60.4149675   1.9155789  33.7472328  59.9133253
  30.8061664  71.5122552   5.5551912  30.5221717  71.2398095   6.4277412
  31.6581981  71.9242807   5.6984093  12.7112914  16.1219200  20.0636482
  13.3611060  15.4497799  20.2690601  11.8939067  15.7848724  20.4304028
   1.3771821  14.3729195  53.4193087   1.5806247  14.6721825  54.3054724
   0.6833173  14.9610981  53.1212616  46.7020702  71.1665487  41.9943333
  46.0190868  71.3131237  41.3398981  46.2269306  71.0768795  42.8204298
  34.5592611  48.6198850  22.4043419  34.4567268  49.0662904  21.5638401
  35.1932065  47.9241510  22.2302582  24.0544145  11.3528915   0.6780006
  24.8516481  10.8458467   0.8314850  24.0965240  11.5908904  -0.2481840
  61.4313126  21.7732796  23.7535620  61.3852978  21.0423836  24.3699265
  61.9962407  22.4147305  24.1844225  14.3504096  11.9229397  38.7079263
  13.5317755  12.0506653  38.2286000  14.2088509  11.1235031  39.2149663
  39.8873775  54.6575780  14.0449716  40.0026242  54.5854993  13.0974724
  40.0975530  55.5701585  14.2430832  53.7990618  61.7370319  34.7330666
  53.4934855  62.5976896  35.0196457  53.5441017  61.6868877  33.8118124
  38.9316194  73.5241551  16.8223335  38.2498281  73.1238408  16.2827637
  38.4526126  74.0557046  17.4581291  50.7381439  71.2120247  37.7117658
  49.8932171  70.9929323  38.1046081  51.1252689  70.3655005  37.4886870
  15.5703974   3.2598290  57.6168919  14.6539880   3.0369076  57.4534035
  16.0345412   2.4249109  57.5559616  22.0805383  56.7738438  48.6823177
  22.9644752  56.4460325  48.8479137  21.6075611  56.6099977  49.4982100
  56.8675089  42.4793482  25.2335811  56.6532230  41.6367769  24.8330951
  57.8238535  42.5161791  25.2168369  65.4767624   9.3838295  61.5251255
  64.7106687   8.8415035  61.7127800  66.1328594   9.1000256  62.1616936
  60.4648542  48.8035107  62.8414202  60.6486845  48.6855841  61.9094706
  59.5173645  48.6891365  62.9150009  66.1524836   6.3481316  15.3714943
  65.3372566   6.3242897  15.8725631  65.9480134   6.8864712  14.6068954
  67.5658004  63.1277700  10.8991911  66.6317050  63.0784459  10.6960680
  67.7261417  62.3782487  11.4725496  50.0675440  73.1499290  35.8494735
  50.3428698  72.4650335  36.4588547  50.7951832  73.2282400  35.2325130
  61.3774625   7.5727161  13.0810893  61.8991343   8.3698353  13.1742835
  60.5683915   7.7588924  13.5575056   1.8629170  16.4785751  60.4577446
   1.8722106  15.8114132  61.1440706   1.2478114  17.1398720  60.7748604
  12.7813864  22.3207840  48.8341522  12.0845938  22.5616154  48.2236528
  12.5508643  21.4383492  49.1246748  30.3092290   6.2779125  24.0799999
  29.3668462   6.1131653  24.1117096  30.6256581   5.7223543  23.3676410
  51.5949917  65.2649832  38.4059787  51.5619421  65.3636837  37.4544549
  50.7825851  65.6646585  38.7165999   0.7369424   3.6916241  60.8261299
   0.7664634   4.4967970  60.3093576   0.6336070   2.9947647  60.1781034
   7.8504849  30.6103882   5.7807255   8.0656338  31.5363869   5.6690985
   8.1355620  30.1982578   4.9651790  51.1575985  55.3111172  27.3616028
  50.3546095  54.9881601  27.7704334  51.4608669  54.5820618  26.8205547
  54.4925109  30.1358398  37.6330686  54.7956816  30.0727734  38.5387945
  54.7510807  29.3043884  37.2355008  67.0703284  60.8664460   8.5031177
  67.1325080  61.4696069   9.2437603  66.3780753  61.2331338   7.9530622
  37.4343968  19.0502342  25.8276463  38.0691434  19.7658428  25.8628130
  37.4197388  18.6991104  26.7179990  21.2921525  10.1461586  42.8434181
  20.4774190   9.7432026  43.1435299  21.1481190  11.0863384  42.9508495
  30.2833009  68.7582874  34.9297547  29.6812868  68.6771727  35.6695056
  30.3279829  67.8767157  34.5595336  15.8402777   8.0821022  31.4195490
  16.7615510   8.1248554  31.1633015  15.7102538   8.8507256  31.9750166
  64.0790335  20.8616432  51.1683798  64.9696890  20.6968292  51.4778948
  63.5450784  20.2039227  51.6139412  18.7024785  31.4226612  30.1844525
  18.9508343  30.5607494  29.8502803  19.4592381  31.7082676  30.6962872
  10.3074980  35.1286301  44.3812704  10.7022763  34.2756638  44.2000866
   9.8573924  35.0113758  45.2178669  52.4848795  49.3496704   5.6833547
  53.2774067  49.8270035   5.4378027  52.5108814  48.5533237   5.1529002
  52.5577879  64.9022436  63.1859446  51.9882059  64.6843672  62.4481535
  52.0104265  64.7664118  63.9593649  11.3311625   1.5485844  48.2010365
  11.0619879   0.6801399  47.9017258  12.0522881   1.3800367  48.8075018
  45.8068912  41.1299796   8.6258079  46.7292659  41.3763566   8.6948063
  45.3689401  41.6504283   9.2992784   5.6376108  69.8656511  50.3822041
   6.2230048  70.3336906  50.9775877   4.8258528  70.3726816  50.3966999
  39.7154967  44.3943925   3.3036758  38.8050000  44.3045564   3.5850193
  39.8107402  43.7590070   2.5941374  71.0552470  10.9203991  29.9741030
  71.7141167  10.4019150  29.5122480  70.6209103  11.4239391  29.2856050
   7.7298102  65.0993872  23.0981016   7.5033221  65.7866859  23.7246442
   8.4233984  64.6007156  23.5299444  69.1083399  13.0100235  16.4351261
  68.7759081  12.2350487  16.8880391  69.8486725  12.6878246  15.9210026
  75.1484632  65.4648876  54.1313219  75.1850510  66.2721539  54.6443653
  75.8033133  64.8949575  54.5345354  27.2250128   0.2017483  15.2730072
  27.6525260   0.6698164  15.9902084  27.8418828   0.2657303  14.5438874
  43.6598031  54.7679181   1.8404533  43.4684627  55.3223367   2.5969173
  43.2167022  53.9411779   2.0312263  41.5043823   0.5856833  47.0553207
  40.8489481   0.2035555  46.4716959  41.3243143   0.1911959  47.9086590
  65.6750504  30.6357941  54.1094398  64.8515049  30.7769569  53.6424494
  66.0526720  29.8577389  53.6992455  65.1993816  52.3421617   6.4433863
  65.6111209  53.1991525   6.3326170  64.3217437  52.5386567   6.7710735
  71.1299912   3.9926180  34.0018773  70.8929316   4.1508087  33.0880904
  70.3986088   4.3512138  34.5045900  22.4512816  22.2867855  22.9306793
  22.7800513  21.5101513  22.4779391  21.9935418  22.7835545  22.2524977
   0.9518664  28.3398957   8.3489181   1.7744629  28.0503078   7.9543211
   0.6453936  27.5821920   8.8471033  38.4561316   8.2481846  24.2601705
  37.8272621   8.8954720  24.5791888  38.0676893   7.4038109  24.4890356
  52.8316116  72.1215677  15.6524897  53.6076880  72.6627874  15.5075133
  52.9925632  71.3297176  15.1393616  32.6442115  54.5471425   4.5666029
  33.5165946  54.5552392   4.1727592  32.7086084  53.9102502   5.2782585
  62.6445881  32.5424942  31.0619283  62.2344104  32.2862228  31.8879509
  62.6302496  31.7465958  30.5303431  72.1803967   6.8310436  28.4949088
  71.2714831   6.5908035  28.6748910  72.3341862   7.6071343  29.0336752
  56.1006975  48.6960316  34.8872042  56.1656427  47.8469419  35.3243113
  56.8587971  48.7235117  34.3034577  23.0233066  24.5164294   2.6820757
  22.5939576  24.0298410   3.3857252  23.9562051  24.4654460   2.8902389
  19.4793130  19.9201855  17.4191391  19.0164185  19.2092880  17.8625190
  20.3417826  19.9397453  17.8338635  21.2472375  27.3325433  58.6838238
  21.3457855  26.4945497  59.1358025  20.6680234  27.1402825  57.9464118
  26.1276738  54.8717256   9.8130276  26.7846887  54.8335500  10.5080892
  26.6259353  54.7467847   9.0053417  71.7989413   6.8603310  39.2171526
  71.7244975   7.6335892  38.6579108  72.6303832   6.4599785  38.9628720
  17.3360253  16.9970020  59.2273569  17.8594781  17.7983841  59.2320681
  16.4849616  17.2647938  59.5740747  16.0267100  59.9557590  31.3085294
  15.3995261  59.5709038  31.9207120  15.9526190  59.4180584  30.5201006
   1.3023218  56.6251421  47.4312544   1.4413437  55.7119703  47.1802235
   2.0824847  56.8563986  47.9353428  31.6209317  18.4647354  38.8205147
  32.1305371  18.3662495  38.0162549  32.2698308  18.4170708  39.5225739
  25.5359793  34.9899277  22.6847100  25.1480437  34.5130238  21.9510221
  24.8112536  35.4967770  23.0509281  16.1871672  17.2465309  30.2761841
  16.6553641  16.4336094  30.0859475  15.3760815  16.9627270  30.6978798
  75.9050528  24.2862591  35.6475329  75.6826178  24.1123852  34.7329164
  76.1289898  25.2166924  35.6668568   9.3954421  29.3017372  61.6295099
   9.0324355  29.2657742  60.7445431  10.3422404  29.3522057  61.4981508
  56.1878809  38.9262904  62.5356689  56.4220174  37.9987182  62.5036484
  56.7723306  39.2981805  63.1962336  53.9364854   2.4029669  44.0375996
  53.9100758   2.7496466  43.1457758  54.5857254   2.9448017  44.4860744
  24.2587186  15.9724983  26.9177628  23.5195924  16.2799152  27.4425697
  23.8725425  15.7396397  26.0734415  16.4683295  41.4437565  21.4120674
  17.1287060  41.9958862  20.9933972  16.1658955  40.8616623  20.7149792
  69.3085400  22.8726276  55.4593515  69.4329468  22.2493824  54.7435904
  69.7849909  23.6548790  55.1813269  26.6746426  20.9623989   4.3388382
  26.9781256  20.0754055   4.5321262  27.3969460  21.3624939   3.8546467
  14.1724396  34.8073277  23.6431408  15.1140738  34.6734890  23.7510324
  13.8336516  34.8572716  24.5369887  21.7690421   6.6155991  18.2822454
  21.8425799   7.4751839  17.8675961  22.0385886   5.9979281  17.6024926
  29.9317456  10.6511387  56.5393066  29.8639775  11.5868744  56.3494682
  29.1726495  10.2628979  56.1042595  11.2985802  16.9137939  54.1390276
  11.1227227  16.1391338  54.6730757  10.5317593  17.4721703  54.2671871
  70.7519452  25.0658783  31.0935950  71.0211388  25.5024323  30.2853942
  69.8023716  25.1825604  31.1240077  16.9061375  12.7892479  39.6892977
  16.7142916  13.6223587  40.1198339  16.0758687  12.5290665  39.2903090
  58.7951422  66.6444016  -0.0049003  58.5016680  65.9787035   0.6171525
  58.0188560  67.1808529  -0.1656087  11.6709996  28.9132008  28.0613780
  12.3201848  29.6147808  28.1121278  10.8277179  29.3659576  28.0719376
  44.9614292  71.7781948  19.0800118  44.3221348  71.8478607  18.3710122
  45.5008756  72.5642386  18.9941955  61.5550505  72.0353107  36.8007517
  62.3760485  71.6165892  37.0593381  61.6550099  72.1997704  35.8630991
  70.5095378   8.8331091  15.5299580  69.7645697   9.4173574  15.6710529
  71.0876206   8.9979184  16.2748682  65.8704781  54.6768645  49.1202641
  66.6221201  54.2715147  49.5526552  65.1190280  54.1611973  49.4129086
  18.8429729  51.3894056   3.9365532  19.5513240  52.0328198   3.9586450
  18.6347703  51.2942158   3.0071308  47.7776289  11.7547882  19.4266212
  48.3090162  11.3446331  20.1089931  47.1598673  11.0731792  19.1620195
  33.3288192  70.4542095  49.6139097  33.9771795  69.7579474  49.5086479
  33.0632686  70.3974349  50.5317831   2.8903373  68.3298806   5.0696319
   1.9523080  68.4500644   5.2175903   2.9787501  67.4073932   4.8299813
  45.2749872   2.8842884  27.9130769  44.3466473   2.6913300  28.0441523
  45.5650806   2.2388852  27.2684574  22.2112107  12.7754843  17.4274015
  22.1689391  12.4719489  16.5205872  21.7487645  12.1026063  17.9270101
  75.1695001   2.1934263  49.8224497  76.0059866   2.6472315  49.9253178
  75.4003939   1.2645292  49.8140669  37.0754623   6.2979370  37.9444504
  36.8487716   5.3680110  37.9534435  37.8094196   6.3714540  38.5544777
   6.9498905  49.9260202  24.5445323   7.5961956  50.6231276  24.4324470
   7.3111208  49.1842166  24.0592790  45.3818678  57.4302379   3.5761055
  44.4673949  57.3981133   3.8570651  45.6990653  56.5343455   3.6900991
  31.7369127  20.6942368  29.1655087  32.0664763  21.5659761  28.9471292
  30.8721042  20.8529663  29.5438552  50.2801410  62.6700881  34.9233174
  50.0916684  62.3191122  34.0529585  50.3074174  61.9001118  35.4913187
  23.4524250   6.4909673   7.0460010  23.3189368   5.5708814   7.2737187
  22.6574779   6.7386091   6.5738118  58.2852774  52.7335611  24.5711851
  57.5106191  53.2282248  24.8384738  58.9505386  53.4015146  24.4053626
  30.1494765  26.1921740  26.3709450  30.0473189  27.1438861  26.3774633
  30.1635861  25.9591508  25.4426503   3.1952103  65.3181717  39.3847609
   2.6938757  65.8931163  38.8065410   3.2633599  65.8049062  40.2061462
  33.2616472  18.0870962  42.3692703  33.4934568  17.5244594  41.6303968
  33.7010193  17.6888478  43.1206608  59.1213942  10.1319540  45.5723906
  59.8033571  10.3648412  44.9423695  58.4939051  10.8531439  45.5236530
  13.4613117  66.0529784   5.4757947  12.6974090  66.0096136   6.0509509
  13.4170469  65.2492646   4.9578023   0.4122718  68.5816869  24.1820097
   0.5188116  69.2749778  24.8333383  -0.0339619  67.8775814  24.6524811
  35.4921579  23.9169216  11.2080705  34.9097085  23.2097340  10.9308124
  36.3495779  23.5005450  11.2957621  35.7960320   2.1522170   1.5998043
  35.9288096   1.8116626   0.7151435  34.8450422   2.1848632   1.7036548
  59.0756495  54.8215251  51.3008688  58.1556232  54.9350612  51.5393947
  59.5457108  55.4426818  51.8571411  42.9872990  11.5248537  49.6864653
  43.8027668  12.0043480  49.5404291  43.0050182  11.2999034  50.6166887
  18.0416954  24.9537706  30.3849077  17.8598833  25.8113432  30.7692838
  17.3473060  24.8291850  29.7379661  22.6297636  56.1624758  61.0717462
  22.6755334  56.3269453  62.0135993  21.8633826  56.6558676  60.7794164
   1.2387842  10.6330061  14.5025003   1.7162530  10.8892083  13.7134409
   0.9949408   9.7201842  14.3491101  21.2753010  35.3932428  24.8032904
  22.0923042  35.7381582  24.4430566  21.3559389  34.4436884  24.7134256
  48.8063431  10.4579496  33.2821918  48.6823225  11.2078822  32.7004290
  48.2007504  10.6142116  34.0068078  62.5981139  65.5867645  58.5168600
  63.0980574  64.7728494  58.4549618  61.9910234  65.4403732  59.2422819
  22.4929476  19.9573219  30.8903694  21.6571689  20.0118518  31.3537598
  22.3144722  20.3352714  30.0292468  65.1972397  46.9768594  62.7451153
  65.7045372  47.0856421  63.5495088  65.6811698  47.4762790  62.0873727
  71.9612023   3.6888835   9.7662109  71.1377403   3.2305682   9.5986128
  72.1571115   3.5014212  10.6842029  48.3849504  67.4765751  41.3563156
  48.5567647  66.6481701  41.8040371  48.7382295  68.1443057  41.9441605
  44.1939216  60.5865816  40.1097536  44.8319959  60.3394619  39.4404101
  44.7188967  60.7444826  40.8944225  25.5264140  51.5813063  22.2886612
  26.3976137  51.9023095  22.5214722  24.9584311  51.8997954  22.9902222
  23.3686256  29.2592525   2.4348444  24.2049098  29.7075248   2.5609791
  23.6067247  28.4049988   2.0745790  41.7998934  19.9231064  22.4948812
  41.1356974  19.2357206  22.4441123  42.6185226  19.4824445  22.2670746
  69.6689283  64.3920020   0.1042448  69.4390821  63.4648434   0.1657192
  70.4423451  64.4844285   0.6605861  34.6014571  20.5052519  54.5966482
  35.2890587  20.9102654  55.1252317  34.2812943  21.2128830  54.0371990
  19.3240428  36.0487580  16.2508237  18.4413671  36.2000394  15.9128475
  19.2331612  35.2895832  16.8266928  19.9075675  14.6815801  31.9336772
  20.0830507  15.5212867  31.5090251  20.5502725  14.6320915  32.6412892
   9.1137397  30.6131315  28.4191203   9.7059852  31.3380980  28.6188722
   8.3214873  31.0355473  28.0872560  53.8087606  11.5522110  47.8332520
  53.0677319  10.9546912  47.7328682  53.4076166  12.4070621  47.9899311
  11.4933944   7.3570853  13.6116171  12.2891033   7.5712591  14.0986586
  11.0706699   8.2023627  13.4598196  10.2972245  19.7347105  60.0014544
  10.4964530  20.4638338  60.5887556  10.2036488  20.1401854  59.1394424
   4.8902671  57.7550940  62.2823247   4.9470918  58.7092667  62.3328936
   4.2078941  57.5899439  61.6316907  69.9581793  35.0794935   4.0552354
  70.5423006  35.3642511   4.7580498  70.5381432  34.6712542   3.4124187
   0.4747878  38.2049942  43.9374161   1.3822705  37.9198694  44.0442324
   0.1708233  37.7478600  43.1532812  72.6991579  16.1866605  45.2971363
  72.6066521  15.2889848  44.9779940  72.3641095  16.1579692  46.1933231
  70.9347490  25.8704185  28.3511972  70.1872394  26.1190653  27.8074741
  71.2678751  25.0686336  27.9482079  65.0847292  19.0454853  25.9880972
  65.0458956  19.9496901  26.2997651  66.0148907  18.8875556  25.8265853
  44.6740047  13.8492189   2.8455784  44.6918754  14.6913754   3.3002044
  44.0045444  13.9559947   2.1698143   2.4705614   1.5935788  14.9348319
   1.9203159   1.3858156  14.1796517   2.8800058   0.7607216  15.1692164
   2.1625503  54.8861197  17.3895776   2.7282151  54.2258719  17.7899861
   1.2734040  54.5850900  17.5767481  34.8360192  65.1365301  46.5751982
  35.5870795  64.6762362  46.9497252  35.0997090  66.0566375  46.5650845
  10.8790239  63.7344876  38.3670402   9.9265679  63.7280396  38.2720852
  11.1910685  64.2408786  37.6170897  29.3841004   0.2467617  37.3365760
  30.0317430   0.4485966  38.0118895  28.5549378   0.5587853  37.6990175
  26.0396504  23.8563490  37.2116566  25.9489393  24.6753454  37.6987362
  25.5144072  23.9877033  36.4222908  72.8092217  32.9048601  61.5657520
  72.1483778  33.3748928  61.0572433  73.0220722  32.1391693  61.0322332
  18.1179535  10.7819390   9.2124909  17.6136756  10.6094110  10.0075817
  17.5346482  11.3118351   8.6691713  71.2005469   4.2821211  15.2206540
  70.9341291   3.4191272  15.5376637  70.3894249   4.7898614  15.1980031
  57.4521120  68.0924086  58.1400750  56.5861066  67.8963213  58.4975867
  57.2962697  68.7908821  57.5044028  12.8073335  25.2565432  28.0721593
  13.1534731  25.4286313  28.9478326  11.8659675  25.4103327  28.1522322
  19.6901011  33.5685968  13.1234801  19.0307200  33.0133128  12.7074158
  20.3103662  33.7699366  12.4227905  14.4347509  58.5825983  32.9362559
  14.5241912  57.7407638  32.4895501  14.0837320  58.3600894  33.7985253
  27.4750900  12.8581297   2.9114524  27.6574922  12.2820973   2.1690586
  26.6084409  13.2200122   2.7265471  70.3018665  24.0266204  35.1320720
  71.0602903  23.8726735  35.6953859  69.7017145  23.3096933  35.3371787
  25.3133503   7.3628783  57.5910282  24.9962583   8.0241793  56.9759178
  26.2668005   7.4052089  57.5177479  50.9689799  14.3420124  18.0599713
  50.1598397  14.3966615  18.5684347  50.6768337  14.2027473  17.1591449
  17.9070123  43.3633080  18.1556165  17.0709404  42.9612294  17.9199326
  18.5674032  42.7723018  17.7939224  69.3589734  70.4050836  17.1816671
  69.7684323  70.2965764  16.3232958  69.2387223  69.5119527  17.5042939
   7.2807225  47.9439178  62.2998619   7.3696145  48.3969346  63.1383753
   6.3423523  47.9686609  62.1125555  16.6877389  25.3184223  23.5026693
  16.6153479  25.4516339  24.4477868  17.3387861  24.6231532  23.4079576
  50.1463597  70.7392040  32.9720187  50.7445232  71.4706582  33.1250143
  50.5989900  70.1894030  32.3324299  32.0984483   5.2951974  11.4150715
  32.4006891   6.2034255  11.4169538  31.3644361   5.2857637  12.0293748
  70.6439540  22.6799679  42.2405767  70.8263800  23.6013317  42.0560837
  70.7048085  22.6098585  43.1932640  63.8246273  66.0335479  24.8851132
  63.3672547  65.8212164  24.0715051  64.4637262  65.3289464  24.9915075
  48.4567595  15.3541231  28.6270857  49.2351723  15.8162284  28.9381576
  47.7396154  15.9728003  28.7655663  32.1637177  39.4644466   3.7254015
  33.0997311  39.3900195   3.5394609  31.7485070  39.4774071   2.8630430
  15.6012233  65.5888686  62.2909641  15.0166210  64.9566576  62.7090359
  16.2431606  65.8051351  62.9672623  64.3849170  62.7505389  58.9057732
  63.7899923  62.4653724  58.2122469  63.8089501  62.9916934  59.6312618
  13.5770988  14.6428633  11.1684489  14.0218151  14.7282732  10.3251433
  14.1955841  14.1611433  11.7176783  22.9238224  37.5627685  20.7378078
  23.8520765  37.7210164  20.9096622  22.8771544  37.4132800  19.7935045
  61.8040793  60.3448275  42.2352171  61.7087304  59.3938628  42.1822500
  61.8450802  60.6325928  41.3232183  14.7876334  50.9583187   9.1089332
  15.0612092  51.3245869   9.9499053  15.0705576  50.0444937   9.1422826
  48.2137211  55.2638428  60.9497158  49.0255578  55.7691758  60.9920351
  47.5265153  55.8967297  61.1581279  52.0742524  71.3611546  23.0985594
  52.2793854  70.6149707  22.5352097  51.4975702  71.0011354  23.7723947
   6.8675792  46.7905998   6.4081889   7.5449693  46.5526152   5.7751495
   7.1590954  46.3966179   7.2303987  54.2187738  39.6588826  11.9341743
  54.5684195  40.0154924  12.7507579  53.3217621  39.9903631  11.8927383
  10.4238558   3.7546793  44.4642591   9.8306602   3.0070269  44.5375204
  10.5525494   4.0476137  45.3664017  18.7347412  21.7595935  46.2250471
  18.4392977  20.8872557  45.9643412  17.9537106  22.3083186  46.1534691
  16.9754982  16.6510510  14.5015109  16.4384198  17.1660364  13.8993740
  17.3175383  15.9356773  13.9653397  20.9604438  66.2641171  30.9894490
  20.9457334  65.5939916  31.6727829  20.5957016  65.8286330  30.2190280
  16.0125685  28.2841277   3.3656296  16.0542428  27.8159952   2.5317556
  16.2369776  27.6245856   4.0220428  16.4722093  71.2002907  22.0353365
  16.3691076  70.2765575  22.2640705  17.2125276  71.4969175  22.5646472
  64.0282822  24.8347425  38.1984735  64.7403431  25.4424858  37.9988480
  64.4267225  24.1784358  38.7700844   7.6831254  56.9357470  41.2441158
   8.3107694  56.4308432  41.7611933   7.7893241  56.6074589  40.3512669
  58.6092551  24.8140972  50.8294128  59.4066937  24.4992583  50.4037402
  57.9965241  24.9637787  50.1094208  24.7722626  25.3522873  56.4362097
  24.5116854  26.2119675  56.7667866  24.8959923  24.8207235  57.2225666
  61.8174701  71.4387933  34.1050506  62.2439187  71.9318816  33.4041667
  61.1883967  70.8760983  33.6535287  49.1398938  59.5214014  42.5252984
  48.4747727  59.7874241  41.8904160  49.8268755  60.1829629  42.4439071
  11.4723548  62.0679668  40.4900646  12.2325166  62.6060704  40.7110500
  11.0194930  62.5622478  39.8068142  28.7930560  26.9492722  34.4651985
  28.4541821  27.0192814  35.3576660  29.0429235  26.0296416  34.3753290
  52.7272356  73.5217365  51.0102177  52.5831489  74.2987867  51.5502739
  53.0156074  73.8673027  50.1654339  12.9590428  24.9660707  45.6754494
  12.4158478  24.4227505  46.2463903  12.8966093  24.5479894  44.8166466
  20.7979584   8.3985674  32.5642657  20.6179380   7.8269774  33.3106613
  21.4732480   7.9373479  32.0667791  47.1795702   6.1350203  10.7167494
  46.3321066   5.8905888  10.3448737  47.6232433   6.6069269  10.0119865
  68.8403454   7.6520783  35.3545213  69.3232676   7.0623440  35.9335136
  67.9389206   7.6168805  35.6745601  25.9309602  16.9751823  45.2947521
  25.6117487  17.0236564  44.3936491  26.5478659  16.2433040  45.2912664
  41.6193008  23.0012035   9.8125255  41.1364031  23.8252115   9.7488564
  42.5394678  23.2574058   9.7501731  20.2611661   0.2167241  28.3657217
  19.8690641   0.7416356  27.6678991  20.5081201   0.8546014  29.0353179
  10.9725547  34.6714973  40.8613873  10.1100814  34.5343351  40.4695225
  11.0120714  35.6129122  41.0299397  67.9837814  37.2189474   4.7687778
  67.4701491  36.7271018   5.4094827  68.6902645  36.6230106   4.5198375
  44.0058231  12.1894157  10.7845891  44.0613747  12.4955738   9.8793745
  44.7149038  12.6471317  11.2361789  37.4504089  15.1869452   3.4565815
  38.1016827  15.3843558   2.7834517  37.6654077  15.7776606   4.1784286
  42.8081846  45.9463787  19.4577098  42.2816038  46.4103508  18.8068056
  43.5621500  46.5169716  19.6066976   8.0035814  69.7708956  25.9390545
   8.4898218  70.5714891  25.7419443   8.5553416  69.3039033  26.5665174
  15.6458211  34.5749211  11.3356364  16.0694695  34.3524241  12.1646416
  16.3686287  34.8020887  10.7506788  42.5172849   5.9801464  39.9315904
  43.0733366   5.5612760  39.2746375  42.9218312   5.7518654  40.7685278
  73.0847851  24.4406009  62.7624559  73.3310714  25.0964355  62.1101856
  72.8033838  24.9515271  63.5213995   3.8853510  53.7733928  51.1824894
   3.2969960  53.9471284  50.4477167   4.7371610  54.0965334  50.8888388
   4.2733929  10.7680392  50.2785540   4.8883992  11.3339555  50.7451773
   3.4227583  11.1911833  50.3951788  42.5431776   6.6323215   1.9118938
  42.1764278   6.1097610   1.1986926  43.4453583   6.3236189   1.9956021
   5.7811993  13.2869101  45.7099915   6.5916938  13.0772579  45.2459049
   5.7332128  12.6389575  46.4129019  64.0900814  70.5443323  36.6842818
  64.8962783  70.1515583  36.3496065  63.4491407  69.8338417  36.6591787
  16.5993547   7.0355904   5.6635237  16.5504062   6.1989069   6.1259037
  16.5374923   6.8014497   4.7374660  75.0690529  12.9354811  20.2216983
  75.6176287  13.3740246  19.5713317  74.3773651  13.5676491  20.4170513
  19.4335473  20.5089736   5.5678725  20.0689435  20.9879112   6.0999668
  18.6150599  20.9926605   5.6790316  74.8976463  21.2870908  43.0127954
  74.7219151  20.3769970  42.7738810  74.5087347  21.8000603  42.3043871
  26.6788150  26.0676269  61.4059289  27.2761595  26.0788171  60.6580744
  25.8276143  25.8444540  61.0292552  55.8655100  70.6174288   1.7144094
  56.6474178  70.9422443   2.1608925  55.2260100  71.3235987   1.8071216
  12.2940516  31.8815184  15.3344810  11.4864588  31.4310622  15.0872660
  12.9759955  31.4506745  14.8191571   3.5547590  41.6441298   8.9742100
   3.8863844  41.5519190   8.0810404   3.8729936  42.5002289   9.2606622
  55.3126383   8.2325876   8.9172637  56.2125635   8.0229628   9.1671199
  55.2274609   9.1697073   9.0927160  28.7642121  29.6815896  42.0938873
  29.5768285  29.4792080  41.6302824  28.9798284  29.5615864  43.0187321
  61.2811702  71.3764239  40.7120323  62.0219641  71.1885184  41.2883520
  61.2244438  70.6124959  40.1380730  58.6611605  17.9340029  42.6983404
  58.3744097  18.8440442  42.7747011  59.6168756  17.9846156  42.6817560
  18.2298720  21.4355278  28.3992314  17.5418139  20.7701898  28.4107494
  18.6671674  21.3132906  27.5565791  58.1440496  26.0164118   8.7377948
  59.0459824  26.0139084   9.0583313  57.6620722  26.5340066   9.3827939
  27.2802997   0.6060280  34.8777246  27.8773117  -0.0781223  35.1806259
  26.5616202   0.5938553  35.5098510   2.5363239  67.2780672  23.0393553
   3.2596239  67.7741745  23.4226894   1.7484315  67.7182690  23.3582282
  22.9449415  15.9744108  31.1655545  23.3963847  16.3016105  31.9436121
  22.8482103  15.0350583  31.3220525  43.5380410  64.5537529  52.8531694
  42.9602777  64.8956713  53.5354519  43.9499097  65.3312794  52.4762774
   7.1815395  17.4363959  16.5692878   6.9707888  16.8543124  17.2993529
   6.8996537  16.9559777  15.7908475  67.5940163  45.0216328  57.0940767
  67.1534760  44.2535894  56.7303978  68.4648497  45.0086765  56.6969453
  71.5754095  49.0660845  10.0749590  71.9871298  49.8887669   9.8105575
  72.1680132  48.3871423   9.7523357  69.3419456  68.4308806  28.3837271
  69.5142304  68.9978534  29.1354537  69.4180488  67.5423351  28.7314725
  76.3471523  10.7498324   3.2134861  75.7120332  11.0484707   3.8643858
  75.8135441  10.4601645   2.4734950  18.1601461  70.8176351  16.3186598
  17.9443582  70.8405617  17.2509384  19.0955576  70.6160412  16.2942171
  29.0309262  50.0650922  22.6932144  29.9431156  49.8032418  22.8180242
  28.7753701  49.6562377  21.8663168  33.5617876  20.2825618  46.6202497
  34.3895507  20.0398421  47.0351315  33.7724829  21.0589027  46.1014700
  31.8663430  34.0695906   7.5632381  31.1727858  34.2811584   8.1880975
  31.7802548  34.7311211   6.8768013   8.4833539   5.7044518  39.5192909
   8.7317997   5.7348424  40.4431868   9.0482593   6.3521928  39.0979290
  27.9076576  12.0958686  45.6059122  27.9539037  12.6663005  44.8386431
  28.6351776  12.3795795  46.1594915  77.6594934  32.1203327  31.8804240
  76.9387394  31.4905119  31.8718886  78.3833953  31.6503143  32.2942853
   8.8641500   7.7315575  28.9325309   8.9766872   8.6399662  28.6525989
   7.9621661   7.5174665  28.6941576  59.3036919  69.0401560   9.5792753
  58.6094009  68.5279361   9.1647601  59.4129317  69.8011485   9.0090221
  74.2651644  25.8555698  56.7491674  74.2664677  25.1887631  56.0624361
  74.0939131  25.3687763  57.5553513   5.6479184  29.1325568  41.7432688
   4.6926229  29.1783111  41.7039011   5.9223048  30.0265269  41.9476293
   7.4285769  29.2013025  48.2991838   7.2975898  29.9067259  47.6655817
   8.1030959  28.6479163  47.9054594   5.8989012  17.8189909  49.8533964
   5.4877579  18.1482840  49.0541697   6.7990017  17.6203251  49.5953608
   6.5030321  59.9678508  11.7449522   7.1691855  59.5088533  11.2332952
   5.7469257  60.0215462  11.1604416  35.4521608   8.6057168   7.1269763
  34.9964118   7.8569645   6.7424065  36.0108018   8.9337903   6.4223331
  38.8088274  11.7239451  26.1957598  39.7656178  11.7137194  26.2217903
  38.5424662  11.4722705  27.0800352  77.0641829  12.8911233  28.0037713
  77.9567010  12.9122019  27.6585197  76.9269624  11.9783819  28.2573557
  60.1452644  56.8720941  64.3622978  59.4481976  57.4924354  64.1489747
  60.7505925  56.9284718  63.6229522   6.9028449  31.9619870  27.4341345
   6.6708195  32.8474331  27.1541691   6.6796660  31.4080596  26.6860795
  36.0220504  14.4154394  63.8856268  35.3504086  14.8536360  63.3630228
  36.8213940  14.4970155  63.3654070  42.0870180  70.2145772  41.9044803
  42.7851732  70.8564000  42.0343826  41.3016553  70.7415252  41.7569588
  24.7630310  28.6311507  40.2768040  23.9607310  29.0103197  40.6356668
  25.1820540  29.3544793  39.8104906   2.0966068  13.5116315  29.1518354
   1.2757744  13.7648118  29.5741677   1.8548931  13.3409655  28.2415152
  19.0959513  22.8062105  31.8144274  18.6456609  23.4618974  31.2819386
  19.4824612  23.3059669  32.5335121  64.3918112  28.7540746  20.3861618
  65.0925985  28.1439424  20.6160879  64.7703424  29.6205997  20.5347514
   4.6701768   3.2210428  33.6659241   4.8665181   3.6252466  34.5110869
   5.4831821   2.7821302  33.4157038  23.8223124   4.0906376  55.1677036
  24.6673346   3.7105536  55.4079294  23.3778930   4.2338824  56.0032892
  41.1970997  20.5178356  34.6935654  40.2849913  20.5858660  34.9758196
  41.2423658  19.6821439  34.2290211  16.8036445  60.6354669  13.2778215
  17.4683364  60.4866794  13.9503407  17.1945318  61.2860015  12.6945150
   2.7519435  38.2664108  12.2892904   2.7696991  38.2455087  13.2460976
   3.5164607  38.7889028  12.0469093  63.0703163  10.8961189  19.2437983
  62.1847963  10.8442879  18.8840735  63.6194038  10.4599106  18.5922968
  31.3213539  23.4934306  17.0554197  31.5671277  24.4146276  16.9704485
  30.4716563  23.5118747  17.4957669   3.3128661   6.9993091  25.5050039
   3.4542724   7.5972211  26.2389922   3.0295646   6.1813474  25.9135509
  35.3723860   1.6702327  37.3006225  35.0911641   0.9496946  37.8645110
  35.0678825   1.4237686  36.4272571  48.7632370   4.9756578  12.8327417
  49.3236351   4.5913827  12.1585619  48.1010437   5.4642576  12.3438668
  28.3864927  29.5115566  16.1176908  28.2255316  29.7367263  15.2013814
  27.6098776  29.0190530  16.3832867  62.4710646  13.5315835  20.2262092
  61.5322843  13.3461583  20.2494431  62.8555015  12.7677500  19.7960949
  28.7304449  27.0768738  43.5547876  28.8395452  26.3959312  42.8909779
  29.6234274  27.3030996  43.8148594  40.8428621  20.9035349  44.6635962
  41.1927366  20.7113075  43.7936163  40.4651451  21.7792368  44.5817280
  21.5494442  11.6145444   9.4136882  22.3032117  12.1773934   9.5905232
  20.9964848  11.7038786  10.1898885  38.6193514  15.7793045  50.9365559
  38.2131863  16.5351427  50.5123234  38.1343627  15.6748188  51.7551517
   1.3020913  13.2759953  26.4996386   1.6778959  12.6683831  25.8626056
   1.0480425  14.0395761  25.9813404  29.9678278  28.4280038   1.6318768
  29.6036530  29.0485263   2.2631930  30.8497000  28.7556815   1.4553590
  76.2747677  32.8141928  34.9271250  76.3409850  31.9127178  34.6121812
  76.2507187  33.3449197  34.1308951  10.4484852  50.1032344  29.2616153
   9.8909458  50.8811370  29.2774415  10.7889303  50.0343767  30.1535726
  11.9964870  66.1473927  43.6402702  11.6643938  65.5035785  43.0146122
  11.3913187  66.8855211  43.5683727  67.2878650  31.9458246  44.6666670
  67.0272890  31.5131617  43.8535643  66.5328613  32.4841714  44.9041176
  28.1820917   9.7722393  27.1842360  28.6699128   9.8688006  28.0021214
  28.2914042   8.8512498  26.9474626  25.6646188  73.5375475  20.9216475
  25.5613741  73.0588243  20.0992155  26.1538538  72.9397802  21.4869404
  47.3906040  28.9212012   7.0403951  47.5153923  29.7615433   7.4813986
  48.2369184  28.7364197   6.6331595  19.8750687  24.2447686  50.5229139
  20.0784063  23.4554386  50.0210762  20.0010157  23.9870620  51.4361286
  34.5972800  54.6955109  22.2318029  35.1420426  54.3645763  22.9459095
  34.1973519  55.4905272  22.5842762   3.2970491  11.4059317  30.2008700
   2.9384944  12.2248733  29.8588085   2.5576782  10.7980978  30.1908851
  39.3044376  42.7479362   9.9547422  38.9016986  41.9648886  10.3300619
  38.8567376  43.4768486  10.3842640  54.7415296  14.5188724   3.7829925
  55.5284873  15.0538384   3.8866331  54.2179386  14.7097813   4.5612242
  62.4683705  27.8530312  16.6498995  61.6714552  27.8784609  16.1202657
  62.1614316  27.6574779  17.5352120  68.9050403  14.0991008  54.2591429
  67.9946664  14.3440580  54.0934801  69.1217426  14.5283103  55.0868225
  36.0027742  30.0185847  38.2848048  36.5733671  30.7560229  38.5012293
  36.2003136  29.3595409  38.9502907  16.6928518  68.0305767  29.1457558
  17.2928286  68.0056906  28.4003425  17.0146668  67.3484325  29.7351170
   5.4596752  29.1637135  12.4325407   5.7539386  28.5793304  11.7338717
   5.3744638  30.0183463  12.0099580  15.6164587  58.9763212  17.6658309
  16.3313520  59.0418148  17.0326889  15.7870328  58.1602526  18.1361127
  30.8655095  20.2353048   2.1902256  30.9546661  20.7005477   1.3584617
  31.4599347  19.4891143   2.1121959  23.3950790  71.5375381  35.4407001
  22.9553922  70.6888268  35.3897285  22.7471145  72.1195005  35.8378124
  31.4230680  21.0587382  60.0986099  31.3016486  20.1313519  60.3021812
  30.5880284  21.4658952  60.3291845  12.4473202  33.9299464  17.1223640
  12.8414261  33.4349751  17.8406358  12.2722304  33.2742238  16.4473808
  33.5613704  25.6915808   6.7485505  32.6448131  25.7589316   7.0161635
  34.0543461  25.7424879   7.5674611  68.5825178  26.8341947  32.6699090
  67.8946582  26.5282059  32.0787644  68.2452050  26.6486478  33.5462785
  21.7149353  34.9285817  20.8053994  21.8347669  35.8776999  20.8377790
  21.1579299  34.7834492  20.0406003  15.3772008  24.0646195   2.4341437
  15.6724381  24.8225927   1.9296208  15.7309997  23.3104849   1.9626138
  28.3117843  13.4540534   5.5632371  27.9673672  12.8854644   4.8745316
  29.2596459  13.4442258   5.4302174  67.8500211  64.2815963  35.8922124
  68.0047213  63.7749353  36.6894531  66.8970870  64.3494568  35.8326817
  12.9253919  49.3577044  59.6267201  12.0748110  49.4749300  60.0498076
  13.3486266  50.2132313  59.6986790  38.1748986  36.2414336  36.1782742
  37.2276497  36.2952423  36.0515714  38.2839394  36.1217618  37.1216822
  35.2645302   2.5169876  19.2288804  34.4591451   2.9458803  19.5180786
  35.6517458   3.1305671  18.6045277   2.7894095  18.3961368  42.4516010
   3.5834780  17.9547536  42.1501589   2.4289209  18.8045466  41.6645288
   6.1075795  31.8628287  47.2220469   5.9450287  32.8060436  47.2344112
   5.3113770  31.4777517  47.5881243   6.1746776  25.4177213  49.7408533
   6.5631306  24.9005961  49.0352154   5.3281432  25.0019598  49.9044228
  28.8735938   2.7802885   6.9956034  29.7585559   2.5844154   7.3033488
  28.6497116   2.0443104   6.4260030  23.1843638  67.3578605   0.2890044
  23.8565301  67.8427860   0.7678282  22.9570722  66.6294697   0.8669464
  41.4090545  61.6927771  56.9580178  42.1635170  61.6254477  57.5432394
  40.8254154  62.3161821  57.3904131  52.0682859  14.4532835  11.1326635
  51.5259218  14.0361619  10.4632723  52.4493408  13.7235916  11.6211081
  62.7097940  68.7964949  49.8161173  63.2975756  69.4125495  50.2534056
  62.5983142  68.0839721  50.4454947  61.0917337  67.3761301  28.6878727
  60.1574333  67.2212629  28.5488342  61.4132889  67.6789884  27.8386901
  41.1141682   5.1178092  26.3731718  40.7934761   5.3323156  27.2491693
  41.7348433   5.8168769  26.1675000  31.1456703  60.1709524  20.8853102
  31.9860672  60.6263665  20.9359479  30.5110525  60.8603648  20.6898522
  65.6890658   9.6874994  21.2502909  66.3120404  10.4121709  21.3049364
  64.8590401  10.0624764  21.5447092  12.1699874  20.2395229  52.6024066
  11.3779180  19.7423320  52.8065251  12.0964973  21.0344999  53.1304620
  25.9266210   0.6585848   7.0968783  25.3007770   0.3805447   7.7656400
  26.5796041   1.1679205   7.5769013  28.2540202  20.1392460  26.1380839
  28.7143016  19.3067575  26.0316205  27.3266578  19.9021304  26.1362863
   3.5425350  28.8682532  56.4647675   2.6789880  28.8771272  56.0519266
   4.0702510  29.4604421  55.9289885   9.1099429  31.2088728  16.4539647
   9.5041090  30.8232808  17.2363865   9.2407560  30.5511713  15.7709217
  18.9671218  26.4109087  36.4329505  19.2706370  26.1619735  37.3059583
  19.5813370  25.9846234  35.8352447  15.1826847   7.7730310  35.1137996
  15.1085782   6.9975471  34.5575929  14.8042214   8.4798568  34.5909286
  13.6620951   5.1403010  37.2707820  14.4618630   4.6267819  37.1571994
  13.6611080   5.3802603  38.1974149  20.9557581  36.7164397  32.7092576
  20.2965522  36.2996769  32.1542907  21.7741919  36.6205359  32.2222257
  77.8598455  23.2822919  62.8315735  77.9134794  24.0784979  62.3029852
  76.9287121  23.0604887  62.8367233   3.4074124  60.6621138  15.0793564
   3.2222112  61.4446655  14.5601785   3.4632262  60.9801749  15.9804404
   0.7476154  10.2146375  29.5521092  -0.0210563  10.7850528  29.5510292
   0.3890563   9.3296647  29.6191239  59.5202755  55.3619865  14.0350115
  60.3285240  55.6636575  13.6203289  59.8145234  54.8246125  14.7704566
  33.2116985  50.0327206  27.5009632  32.4940491  49.4368744  27.7158546
  33.7478757  50.0575352  28.2935119  22.9221845  38.7488866  37.4699306
  23.2620811  37.8812671  37.6888800  22.3676562  38.6024928  36.7035770
  31.9434818  57.5134722  13.3021665  32.7452549  57.4540595  13.8216448
  31.6262277  56.6120389  13.2473958  69.4556268  54.5154374  42.0531271
  69.8338921  55.3907399  42.1367572  68.5730632  54.6004586  42.4137972
   4.1801938  52.4037901  36.4653802   4.0884837  51.8046680  35.7245207
   4.5033272  53.2169214  36.0772610  49.5415226  27.7710509  10.4396224
  50.0908414  28.2376981   9.8097634  49.8119631  26.8561649  10.3616524
  23.3009148  10.7534444  12.4776232  23.4703541  11.1808383  11.6380656
  22.7884221  11.3926113  12.9726470  16.5380478  29.7855735  37.4044824
  17.4232674  30.0047231  37.6953268  16.3647664  30.3934050  36.6856289
  48.2566812  71.2583903  10.5229688  47.8054016  71.9056076  11.0648990
  47.5818663  70.6150082  10.3063679  30.1232028  44.4808388  15.5981410
  30.7332230  44.1365671  14.9457741  30.0676537  43.7924480  16.2609100
  28.2319403  46.2691498  15.6976879  28.8616681  45.6142092  15.3964841
  28.6529160  46.6755962  16.4551926  26.2060213  49.1238737  32.8789449
  26.4912462  49.0581179  33.7902927  25.9152985  50.0308800  32.7838135
   2.8430613  71.7632152  28.1704211   3.1040534  72.4384547  27.5441909
   3.5441741  71.7570444  28.8220644  40.4388296  71.5446289  14.6595263
  40.7683968  72.4235294  14.8470140  39.4866883  71.6425659  14.6512926
  72.0538647  58.9576631  52.6342414  72.5853808  58.4579329  52.0145736
  71.5011580  59.5118432  52.0832132  23.3302959  54.4265214  21.8246841
  23.2838758  53.6989370  22.4449253  22.9983409  54.0630022  21.0037756
  57.9216392  32.8148459  48.4170232  57.1331079  33.0839794  48.8882111
  57.6200397  32.1357332  47.8136359  27.5043464  27.9608607  13.5095441
  27.0201445  27.4382329  14.1487920  28.3310103  27.4923420  13.3940184
  11.0739958  19.8961890  47.1580124  10.2589691  19.5010746  47.4676085
  11.6707683  19.8295033  47.9034328  45.6877326  63.9286736   8.5028422
  45.9791606  64.8389402   8.4507287  44.8027550  63.9808122   8.8638508
  21.2347555  35.4613400  14.3743384  20.6882691  35.9215641  15.0113463
  20.6300831  34.8754716  13.9189672  28.9290094  11.1671317   1.1509804
  28.6053491  10.5579007   0.4874183  29.8737741  11.0152471   1.1751109
  27.6410469  69.7591228  27.6744843  27.9238208  69.1023687  27.0381331
  26.6924127  69.6446953  27.7313089  59.8266309  70.2800563  25.4309559
  59.3923502  71.1140952  25.2520370  59.4007688  69.6571008  24.8420596
  28.1162643  33.7955904  38.2377553  29.0570521  33.8839102  38.3905625
  28.0212307  33.8566422  37.2872424   1.8881960  18.0486000  53.0714941
   2.6935941  18.3475327  52.6493549   1.5102188  17.4247468  52.4516773
  22.2281575   0.9987772  17.2172165  22.6746750   1.8439981  17.2667706
  22.7658963   0.4122613  17.7492571  40.0370979   4.6414039  16.0678995
  39.5172358   3.8380966  16.0419714  39.7578359   5.1324677  15.2951777
  39.0796161  13.1488252  42.1576118  38.3121538  13.5343385  42.5802374
  39.6805835  13.8838601  42.0359707  34.7239049  74.1700942  16.1953163
  35.1048311  74.2021447  17.0728707  34.1850647  73.3789681  16.1968577
  23.0979371   1.2491708  22.0121932  23.3822107   1.3393939  22.9217434
  22.1440339   1.3181718  22.0514250   7.6469100  33.7819910  37.1527791
   8.1015831  33.9311790  36.3237762   6.7676771  34.1324878  37.0101810
  69.3013477  12.1579695  24.8070407  68.6978006  12.8204513  25.1433158
  69.8035002  12.6126564  24.1307759  16.4357829  11.0498750  30.6211209
  17.2254646  10.6169188  30.2968001  16.4780104  10.9444582  31.5715623
  64.8210573  10.2412939  29.3320775  64.2732954  10.6171823  30.0212073
  65.1483250  10.9984934  28.8465095   9.8070538  39.3901110  17.4519515
  10.0867975  40.2325726  17.0938468   9.1255361  39.0888762  16.8510997
  34.3067336  21.2595773  10.8240986  33.4995985  21.6822672  11.1175239
  34.1446686  20.3239489  10.9447861  39.3272662  25.5091262  59.9524641
  39.6829057  24.7220778  59.5397806  39.1357660  26.0970259  59.2217541
  23.0107570  31.5897942  38.4660316  23.9336205  31.6429639  38.7144852
  22.6687527  30.8523488  38.9714432  56.7572021   2.2414817  21.4117599
  57.2178411   1.4035919  21.4563203  57.3967409   2.8831270  21.7208123
  27.5818372  13.5012913  13.5252714  27.1565008  13.9963043  12.8250706
  27.9960608  14.1683757  14.0726745  11.7611659  27.8990483  22.7606130
  11.8249333  28.2091498  23.6639404  12.5470829  28.2405853  22.3340917
  26.8769979   6.7823315   6.3899213  27.2851896   7.0264590   7.2205925
  26.0500908   7.2643322   6.3786125  66.4105466   0.4011955  39.7312331
  66.1555424  -0.0354369  40.5439806  67.0345846  -0.1987035  39.3226624
  31.9708872  40.3587818  28.3464265  31.6666365  39.4704747  28.1604743
  32.8492999  40.3952456  27.9678869  42.3849678  20.6694078  42.3325157
  43.2917023  20.9684467  42.4006081  42.0878029  20.9970951  41.4836645
  30.7605720  29.0296960  39.0175247  31.5854955  29.3536949  38.6559224
  30.7997513  29.2586923  39.9461031  77.3308205  69.0531007  45.2311754
  77.8169154  68.3451894  45.6540298  76.8909001  69.5049927  45.9512424
  50.1055384   8.2511699  33.9795113  50.3811502   7.8558862  33.1524587
  49.7161007   9.0882677  33.7268496  76.1198780  17.2925079  53.1909132
  76.2301335  17.0118237  54.0993690  76.9604755  17.0979977  52.7764320
  20.6134415  14.0918243  13.5677826  21.1919546  13.4563220  13.9893150
  21.1195707  14.9041510  13.5539544  31.5013123  24.7937036  10.1455998
  32.3437595  25.2460980  10.1025426  30.8851099  25.3945446   9.7266513
  34.5693898  44.5498323  33.6634946  34.0497231  45.3420210  33.7999249
  34.6343565  44.1534233  34.5323277  10.4451907  22.3580456  11.5379775
  10.3053677  23.1312323  12.0846605  10.3217435  22.6724553  10.6423557
  19.9517763  24.2079639  47.4275303  19.1622663  23.6678743  47.3927402
  19.6826386  24.9954104  47.9005241  35.5473328  36.5132952  35.8457565
  34.9650979  37.2655988  35.7395983  35.0206280  35.8673310  36.3164401
  36.9299269  21.9167328  54.8555613  37.0559096  21.8438578  53.9094877
  36.5094328  22.7681065  54.9763155  32.3187947  26.0126400  17.0407712
  32.3569751  25.9226561  17.9929674  31.4945316  26.4706612  16.8763363
  44.2097235   2.3881781  37.9386806  44.0756989   1.6632679  38.5492325
  43.7063646   2.1434788  37.1621585  18.0938959  31.7164254  11.7622554
  18.4424281  31.9533372  10.9028196  17.2069430  31.4041710  11.5832460
  16.8059613  70.7771830  61.1361383  16.3768186  70.9529428  61.9735016
  16.7229821  71.5963058  60.6478925  49.2056561  32.2028232   2.7734002
  49.6619701  32.6517701   3.4850582  48.2862473  32.4424386   2.8896090
  36.3022375  19.0615773  33.6422658  35.8872247  19.8534405  33.3002901
  35.5714512  18.5072291  33.9159083  17.8427374  15.6672478  10.6569195
  18.1988358  15.2321577  11.4315951  17.0674884  15.1540887  10.4291260
  77.2707097  34.5069502   8.8165476  77.0232216  35.4292227   8.7502577
  76.6653601  34.1423293   9.4621755  35.2412343  34.8530388  32.8427052
  35.5368733  35.4283905  33.5482550  34.5436239  34.3294978  33.2370090
  19.8449981  14.7006643  18.4327304  19.5217407  14.1985202  19.1807866
  20.2903008  15.4525423  18.8233936  22.1691203  38.0717254  34.9166465
  22.5841188  38.7958908  34.4480348  21.7719197  37.5376225  34.2287540
  76.6375998  15.4002607  26.9908309  76.8221387  14.6335316  27.5333285
  75.7658452  15.6841242  27.2659612  24.2019773  23.4062290  14.0714037
  23.9808679  24.3092942  14.2990303  23.8378382  23.2842016  13.1946230
  11.5050912  16.1544764  12.4813163  11.6637683  16.1211884  13.4246862
  12.1470559  15.5499291  12.1089804  25.9519696  65.6271410  17.6022255
  26.0550284  65.2234316  16.7404664  25.4707146  66.4367437  17.4314320
  15.8210194  48.3595753   9.2370152  16.4411843  48.0748367   9.9082470
  16.3596761  48.5039997   8.4590548   9.0785372  32.0440793  44.6458721
   8.2846582  32.5075793  44.9126244   9.4290465  31.6815543  45.4594755
  33.1312227  43.4863281  24.6692181  32.8673363  43.9182758  23.8568020
  33.6816287  44.1302156  25.1149750  14.6926510  27.4847960  16.7419958
  15.2995718  27.4009418  16.0065722  14.6861911  26.6176534  17.1472776
  63.3780431  48.9157048  15.5832911  64.0655326  49.5817009  15.5770564
  62.9223179  49.0496770  16.4143133  29.7676563  20.2760887  52.6913071
  29.3593979  21.1297560  52.8355646  30.0209284  19.9808586  53.5659075
   6.0691508  70.0834179  19.7441494   6.2806519  69.1828260  19.9899828
   6.0796197  70.0791765  18.7870157  68.7644338  50.0982896  61.2536955
  68.0022477  50.2557627  61.8109274  68.4245228  50.1568023  60.3607941
  16.3920546  38.3117867  21.7376447  15.5836952  37.9205108  22.0688415
  16.2760401  38.3333564  20.7877469  49.6185716  48.7388568  55.9162871
  49.8069151  49.0427833  56.8041984  49.4795735  49.5410924  55.4129688
  23.4764314  27.7385521   5.1016086  23.2546639  26.8754315   4.7522211
  22.7695894  28.3084488   4.7985816  56.3381910  70.0078073  37.0679832
  55.8165234  70.7796312  37.2879434  57.2259670  70.3449950  36.9480228
  27.6333594  14.9436617  56.5894461  28.0585909  15.7823694  56.7682743
  26.7701030  15.1803029  56.2503004  66.7023563  15.4117596  50.8517647
  66.6496944  15.2842915  51.7989779  66.3352394  16.2837696  50.7066631
  24.0221953  12.7171779  48.9352655  24.1347408  11.9122636  48.4296227
  24.7672653  13.2634592  48.6849070  28.9356422  28.7606454  23.2985616
  28.6794043  29.5731282  22.8621578  29.7086477  28.9975023  23.8109994
  27.3381758  52.8173113   1.8882178  26.6668129  53.1525517   2.4824545
  28.0046487  52.4448156   2.4655314  12.6570785  31.1082935  34.3502069
  12.3232806  30.5880570  33.6193395  13.0108488  30.4626203  34.9619126
  72.1675572  37.7308464  12.9119468  71.3041738  37.5922394  12.5226021
  72.3830411  38.6389899  12.6996422  38.4959459   5.1341325  34.8445702
  37.6610827   4.8345482  35.2044058  38.3839703   6.0782725  34.7336960
  78.3230747  13.8934493  39.8173809  79.0384344  13.2633901  39.9040818
  77.8133145  13.7891030  40.6208038  19.8398840  34.0015364  26.9298530
  19.3635559  34.2271328  26.1308241  19.2021382  33.5268378  27.4629331
  32.4653935  39.0721440  25.8227277  32.1993184  39.3234634  24.9382639
  33.3126712  39.4993973  25.9484506   9.3933195  35.5401611  21.2446833
   8.6113101  34.9881840  21.2408018  10.1211679  34.9237633  21.3254571
  67.0080280  13.1608380  59.5846562  67.5191473  13.9364137  59.3534128
  67.6463043  12.5585689  59.9668921   6.8302536   0.9361322  10.6518841
   6.7778677   0.4700719   9.8174536   7.6275271   0.6022164  11.0630870
  45.0538206  26.2434673  39.8591805  44.2426395  25.8849764  40.2193260
  44.9711657  26.1200476  38.9135766  24.3267584  19.1183197  40.3724003
  23.5891461  19.7228301  40.4544115  24.8997545  19.3385983  41.1068296
  33.4394002  30.0186682  26.7395902  33.7852478  30.0289583  25.8471131
  33.6985302  30.8638692  27.1066332  76.2100594  29.4568992  30.5994511
  76.1271162  29.6711755  29.6702385  75.5364877  29.9849343  31.0280657
  19.5463789  16.4711392   7.7090538  19.8374772  16.7735565   8.5693079
  19.9634862  15.6162846   7.6019263  27.0551634  40.9683609  33.0236721
  27.1785378  40.6654119  33.9232469  27.9382539  41.1741161  32.7169967
  14.1567051  58.8049603  29.2082429  14.2781270  57.9524088  29.6261477
  14.9411118  58.9229822  28.6725116  78.2565823  14.0724754  31.0827088
  77.4933016  14.4487178  30.6444430  78.6990837  14.8228693  31.4793611
  37.4957180  33.0417180  36.7345738  37.3569274  33.8049507  37.2953272
  38.1575608  32.5244761  37.1935463  67.5217334  49.0728426  27.8854203
  68.1036356  49.7514200  27.5431442  66.8177071  49.5565796  28.3173609
   3.9000386  37.5707388   9.6180189   4.2744058  36.6917562   9.6769351
   3.0242521  37.4837875   9.9944085  25.4946613  22.0277095  24.7735548
  24.8181963  22.5467587  24.3385673  25.0155520  21.3128638  25.1926970
  29.6007109  48.8400936  11.2463737  29.9372220  49.4681358  11.8855596
  29.2706656  48.1136942  11.7751896  46.7653990  66.1748075  36.5132093
  45.8185196  66.0583591  36.5912604  46.8800974  67.1140575  36.3687086
  25.8200439  18.5527123  53.3973370  24.9528774  18.1581534  53.3047472
  25.8541425  18.8450898  54.3081526  50.6538677  23.0216837  20.5806422
  50.8050489  23.2194209  21.5049148  51.1559677  22.2224379  20.4214621
  70.7310200  67.4864197  23.8322282  71.0485363  67.2057581  24.6905088
  70.5271816  68.4149408  23.9441490  45.5310726  57.1897793  25.0051546
  46.3791561  57.5444365  25.2719975  45.5249166  57.2753716  24.0518093
   3.8658477  12.0202526  22.0886564   3.8805342  12.3549637  21.1920047
   3.4381581  12.7107700  22.5951076  43.0951405  53.6499500   5.8604354
  42.5184584  54.3445683   5.5423546  43.8593721  53.6911249   5.2855575
  26.3778099  33.0358876  61.6325584  25.7768377  33.6470450  61.2064688
  27.2234281  33.4842481  61.6210337  61.3740253   3.2450618  20.9976624
  61.7332953   3.3224858  20.1138256  61.7763447   2.4516810  21.3510941
  27.2265077  57.3315430  21.6622066  27.0369697  58.2092810  21.9936943
  28.1321573  57.3814201  21.3563585  49.2832518  60.2221155  11.4392495
  50.0523233  60.7410955  11.6746545  48.9386654  60.6472349  10.6539035
  22.8078818  49.7027111  33.2648134  22.6945925  48.8814783  33.7433267
  22.7527213  49.4521570  32.3426366  71.0549498  43.1805897  30.3915048
  71.1840725  43.3901596  29.4664979  71.7833614  43.6115170  30.8386660
  54.0053590  18.2645644  59.4552813  54.6474775  18.2034625  60.1625179
  53.2735284  18.7489547  59.8374115  63.5421944  44.7098637  36.8944383
  64.3463707  44.9586630  36.4387703  63.5623169  43.7530088  36.9106340
  14.3804669  59.6647406  13.5352278  13.9719486  60.4355049  13.9292657
  15.3132534  59.8773432  13.5045958  22.2363091  11.0599407  36.1107492
  22.9627372  10.4409012  36.0378027  21.4554120  10.5083736  36.1577916
  68.9959732   5.6833109  14.0439868  68.2874886   5.1963076  14.4648302
  68.6816374   5.8422312  13.1539476  10.4929598  24.6943797  62.2154896
  11.1795338  24.7191085  61.5489812   9.6773490  24.6410979  61.7173190
  37.4721527  61.5655184  23.4915662  37.9497838  62.1358061  24.0939569
  37.0469570  62.1661758  22.8794742   4.4203505  47.8858566  24.8376632
   3.9795527  48.1182909  24.0204120   5.1196322  48.5336018  24.9252462
  64.0751791  19.9191332  11.2255490  63.5312223  20.6611252  10.9613740
  64.8789930  20.3180432  11.5586936  68.9962975   7.3824772  51.0748816
  69.7413746   7.9317173  51.3186455  69.2067973   6.5203270  51.4335346
  23.7789464  37.0133877  27.6273441  24.4587231  36.4717054  27.2264504
  24.1912627  37.3726439  28.4129405  16.5462431  32.2640742  56.4682238
  17.3656114  31.8541564  56.1910407  15.9426340  32.1079434  55.7419221
  15.1681650  41.8889427  23.7899351  15.4217994  41.6991425  22.8866768
  15.4232693  42.8017950  23.9235663   8.2030970  36.3022423   4.3229225
   7.6657045  35.5911851   4.6719736   7.6413190  36.7329574   3.6786228
  21.5058947  11.1816772  22.0396543  22.1957494  11.0616097  22.6922774
  20.8872748  10.4717812  22.2116685  21.8628550  39.2050266  13.5931456
  21.5646076  39.7596359  14.3140399  21.0647917  38.9900875  13.1103098
  39.8947243  15.4862675  47.2350359  40.6026379  15.3592094  47.8666592
  40.2587024  15.1833138  46.4031887  70.3231096  49.0221643   6.7821395
  70.9903145  48.6830568   7.3788613  70.5930662  48.7097597   5.9185654
  67.4666150  70.4528527  57.8957329  68.1886847  70.8734016  58.3626185
  67.8633721  70.1203256  57.0905994  41.3190365  67.7205324  29.6426892
  41.0359478  67.3131466  30.4613018  42.2430277  67.4832726  29.5640826
  10.9264382  23.8439406  51.5693949  11.6844472  24.4018735  51.7436431
  10.2347454  24.4532908  51.3115512  33.5500264  70.5199528  26.3124681
  32.6048136  70.6574965  26.3747835  33.6565232  69.5693254  26.3470411
  29.1592153  22.8651322  61.1046977  29.0458807  23.5787000  60.4768373
  28.2713350  22.5475873  61.2692274  27.9033232  62.4635410  14.3654692
  27.6619291  61.6080570  14.7205913  28.7434530  62.3144007  13.9316833
  16.5598441   3.0303558  24.3490100  16.6543294   2.4567637  23.5885549
  15.6211043   3.2110247  24.3975759  27.6322603  58.0125904  25.3501272
  28.2911730  58.6328411  25.6621456  27.2744989  58.4198809  24.5612335
  65.1440477  66.5940666  11.3773596  65.1309252  65.6516743  11.2101507
  64.3309546  66.9175005  10.9894061   2.2807071  52.3590422  29.6212578
   2.7541074  53.0900955  29.2241597   2.9638582  51.7319918  29.8586226
  77.8866688  12.8194317   9.6220124  78.5187212  12.1067795   9.5277804
  78.2412926  13.5268578   9.0834749  74.9066233  12.6789607  56.2811498
  75.2393412  11.8336572  56.5828089  73.9701366  12.5335731  56.1466573
  70.7170820  31.1309767  23.6808038  70.1353073  30.4713035  24.0584326
  70.2835751  31.9648242  23.8624740   3.1324419  40.3497314  53.1147623
   2.5785670  39.5969439  52.9079819   3.9324412  39.9667859  53.4747505
  11.2442541  66.4224482  21.6553450  12.0177531  66.9792986  21.7439294
  10.7682335  66.5412092  22.4772525  32.7866218  10.1843723  19.1904867
  31.8437610  10.0700935  19.0713799  32.9201666  11.1313232  19.1495979
  49.7059727  63.2294655  23.4944057  50.3028870  63.5660553  22.8260994
  50.2723932  63.0162764  24.2359900   7.9132208  39.7515464   4.1702625
   8.3207068  40.5461645   3.8256347   7.7649721  39.2045140   3.3988962
  57.2816420  53.2299185  20.0098658  57.9550266  53.1904411  19.3307292
  57.3432827  54.1198874  20.3568316  47.9372215  58.3447361   2.9335001
  47.1026325  57.8760481   2.9379559  47.8158236  59.0560436   3.5624164
  38.1330371  66.4388037  19.9945128  37.2686982  66.5321350  20.3950644
  38.6215568  65.8866119  20.6049776  76.3652729  16.8560780  24.4382785
  76.1765336  16.9373788  25.3731583  76.5377235  15.9234609  24.3089698
  26.7731477  25.4330429  39.6206331  26.0170079  25.0810703  40.0903177
  27.0865441  26.1488518  40.1734638  69.7799603   2.3427233   7.4730957
  69.2189804   2.7445730   8.1364590  69.4363228   1.4547571   7.3748022
  60.1591110  46.3620567  32.2756600  59.3956041  45.7974911  32.1550417
  60.2755404  46.4079332  33.2246447   8.0637487  17.4452914  38.7819122
   8.7832340  17.1752681  39.3525766   7.3472150  16.8499459  39.0018628
  77.2855663  44.5948219  30.8835793  76.4832497  44.0923882  30.7418871
  77.0917797  45.1469374  31.6411066   7.7864775  29.6378660  32.4417758
   8.0472788  29.2462778  31.6081858   6.8430743  29.4844866  32.4936962
  59.7334297  67.0155291  57.7538095  60.1268680  67.1072559  58.6215786
  58.7988003  67.1638327  57.8976898  50.7104143  28.1469764  61.3339142
  51.1954340  27.4974479  60.8248944  51.1990722  28.2225408  62.1535085
   6.7902121  32.7411819   9.9304289   6.1166605  32.0698047  10.0390995
   7.6051935  32.3053908  10.1797020  11.0537958  61.6325998  30.1531458
  10.6420231  62.0797014  30.8925891  11.6710460  61.0219431  30.5560589
  55.1302210   9.5225414  36.8276405  55.3683225   8.6069569  36.6818309
  55.9680549   9.9760994  36.9201112  75.2720992  16.6664681  37.2581005
  76.0212008  16.8384060  37.8286433  74.8617474  15.8858761  37.6302910
  62.3270607  48.7754869  35.8225322  61.4231253  49.0872717  35.8664107
  62.5818920  48.9074993  34.9093699  70.5250978  42.5087786  20.7889390
  70.9389400  43.3471680  20.5838442  71.0945797  42.1160603  21.4505267
   5.7606570  21.4206405   2.4840881   5.4175894  21.6737647   3.3410980
   6.5086190  20.8572049   2.6824047  35.5883265  39.5333672  13.3155048
  36.0673904  38.8070536  12.9165089  34.7722721  39.5841718  12.8178024
  63.9480114  66.5716887  17.9362202  63.0236578  66.5531540  18.1841302
  64.2689657  65.6938124  18.1425047  63.8501978  48.9939022  43.0635357
  64.2524290  48.4418249  42.3929739  64.5092630  49.0488577  43.7555218
   6.7913628  18.5059055   2.5458145   7.6473380  18.5678848   2.9697165
   6.2130976  18.1563076   3.2237735  74.7345877  69.0591574  14.6339273
  74.4381142  68.7005901  13.7974083  75.4217720  69.6821165  14.3974197
  41.3039494   6.9301113   7.5959581  41.3815690   7.6656422   6.9883335
  40.5177975   7.1233067   8.1067050  53.9780092  54.3306446  30.6426859
  53.8412952  55.2729607  30.5448079  53.8070965  54.1587353  31.5686822
  76.0677195  63.9185238  31.5227246  76.3297272  63.4566259  30.7263374
  75.1790524  64.2242289  31.3409281  48.7016344  38.7047124   4.4734651
  48.4535456  37.9003215   4.9291363  49.0124750  39.2866945   5.1669407
  37.1280957  15.6522354  29.6405387  36.2264157  15.7510170  29.9462271
  37.4900246  14.9524960  30.1842284  31.8921018  56.4816809  25.9947824
  31.3606691  56.6080809  25.2087569  32.4950814  57.2250748  25.9983230
  59.4766665  68.6706495  49.1053534  60.0988770  69.1046953  48.5216713
  59.7744226  68.8995838  49.9857903  43.1916555  10.4553689  56.8488948
  43.1521972   9.5014848  56.9180135  42.2902139  10.7196845  56.6651253
  50.9364223  45.1419973  60.3880119  51.6895008  44.5528078  60.3437328
  50.2576065  44.7019291  59.8763657  18.4876998  54.4082774  58.8086496
  18.9249595  54.9827231  59.4371818  18.3900436  53.5764541  59.2720745
  56.6899347  64.6937561  53.4342957  56.2035275  65.1110363  54.1452932
  56.0906935  64.0310431  53.0908442  34.2395923   3.5417685  48.0578470
  34.6389357   2.9789194  47.3945522  34.4946162   3.1472191  48.8918304
  73.2511107   3.5502180  51.3113499  74.0963952   3.5571941  50.8622646
  72.9634825   2.6383671  51.2663174  24.5459414  67.1444988  39.1996169
  25.3440285  66.6684437  38.9701486  23.8657546  66.4716578  39.2289209
  34.6560073  70.7977629  18.5995090  34.8437858  70.9417629  19.5269978
  35.4906940  70.5128193  18.2275736  56.4800111  10.0179657   3.2456857
  56.1772624   9.3278202   3.8358247  56.9796363  10.6109222   3.8069516
  13.6742306  21.5658936  58.0964708  13.3070422  22.4431500  57.9877472
  13.2006169  21.0277161  57.4622107  44.5229530   3.2586890   0.2071824
  43.6617756   3.1690896  -0.2009523  44.5822954   2.5150543   0.8069470
  46.5236616  40.4353714  11.4986300  46.0889339  39.7185016  11.0367393
  47.0625305  40.8589125  10.8304524  57.0690624  23.9576706  15.3900230
  57.4527780  23.1360039  15.6963956  57.6277415  24.6378407  15.7661545
  62.5792789  46.2322140  15.8110416  62.8940582  47.1179914  15.6306279
  62.7341175  46.1091185  16.7475808  15.7551273  51.2693347  61.1504988
  16.5668996  51.4175929  60.6654484  15.7185062  50.3205623  61.2718557
  16.1189382  48.1417413   1.1736442  15.6418245  47.4694295   1.6600563
  15.7584588  48.0978150   0.2880050  70.6913185  63.6899424  13.2864428
  70.0205708  64.3329000  13.0563629  70.4659557  63.4164619  14.1756284
  59.6906471  41.9199133  39.2747688  58.8723135  42.0755816  38.8032508
  60.3647566  41.9328499  38.5953259  64.7734308  54.2083263  55.5980253
  64.8402023  53.3421612  55.9999418  64.5216370  54.0328884  54.6913528
  12.5454474   1.6457304   9.3356729  12.0067836   1.8649277  10.0959527
  13.4441663   1.6684088   9.6643376  66.4298951  31.8745650  58.1119250
  66.7596339  32.5956811  57.5757329  65.8528971  32.2947206  58.7497161
  33.4742022  56.6660881   1.2673755  32.6809788  56.9335985   1.7315573
  34.0346813  56.2916899   1.9470231  18.1212449  56.6490221  19.9491942
  17.5623918  56.5267897  20.7166409  17.5722587  56.3893175  19.2093301
  65.0087301   0.6954941  25.5218101  65.4874889   0.2335390  24.8336077
  65.4510991   0.4429277  26.3322139  49.9028492  72.2282362  19.7222102
  49.3910742  72.0167780  20.5029845  50.4819155  71.4752483  19.6042073
  19.9068487  66.6545153  25.5295706  19.4165170  66.7287779  26.3482833
  19.4062448  67.1763229  24.9023986  73.0448627  51.0823345  58.6254501
  72.7141619  51.7235327  57.9963779  72.3342848  50.9793472  59.2584658
  59.4962597  40.8569670  42.0249224  60.4298019  40.7536554  42.2094870
  59.4673252  41.3526583  41.2065792  75.5722157   2.9051241  45.1690865
  75.2582518   2.7158436  44.2848778  76.4923922   3.1409201  45.0511551
  46.9712631  15.5822262  17.6061583  47.5863258  15.0714382  18.1324863
  46.8843214  16.4112362  18.0767131   2.2502709   8.2204231  44.4673014
   2.3498154   9.1519531  44.2708874   2.7500821   8.0908474  45.2732944
  57.5705290  57.8313112  22.3935771  58.3986950  57.9948950  22.8448129
  57.0082808  58.5613346  22.6527643  67.8743267  44.0630579  50.4048252
  67.8717947  43.9080954  49.4602537  68.0873203  43.2115507  50.7866669
  38.3982968  52.5093174  20.4145074  37.5121069  52.8652048  20.4796600
  38.9539289  53.1742430  20.8211708  58.3347368  56.3413763  11.6634917
  58.6972666  55.8655167  12.4107265  58.9182425  56.1254597  10.9360790
  21.1821668  69.5295362  53.9673005  20.6816451  68.7254505  54.1057090
  21.3506667  69.8615556  54.8491166  58.1375027  65.2416801  43.2905293
  58.3667994  65.7815838  44.0469408  57.8415775  64.4134617  43.6683035
  63.7036991  52.4757338  45.1618099  63.1181669  52.1793127  44.4650173
  63.7818241  53.4196806  45.0236177  64.8409605  41.8695259  25.7411289
  64.5056438  41.6908312  24.8625708  64.0937328  41.7142344  26.3188553
  47.5418464   4.2393860  37.6856589  47.0779935   3.7429604  37.0113921
  47.8215233   3.5789236  38.3195353  68.1391621  68.8242531  21.3924909
  68.1037045  69.1114092  22.3049140  67.6264620  69.4770718  20.9158444
  14.8861266   0.0016436  45.7350874  14.7745991   0.7054504  45.0959873
  13.9937163  -0.2647034  45.9562254   4.8756839   3.9326366  42.5657892
   5.3032161   3.6747059  41.7491388   5.3110409   4.7471985  42.8171682
  50.9101963  68.1821346  19.3146145  51.3843727  68.6865759  18.6536109
  51.5660095  67.5868273  19.6775961  54.2696825   3.1300768   3.6415130
  53.8712565   2.3152956   3.3355281  53.5559980   3.7676605   3.6222976
  33.0735350  46.4947939  26.8967175  32.8925562  45.6158781  27.2298574
  33.6230350  46.8973780  27.5691819   0.9741720  49.8016739  24.6597695
   1.7532954  49.9616909  24.1272306   0.2412781  50.0138426  24.0817714
  19.6728183  27.6520142  18.5444617  20.4733563  27.1274456  18.5582685
  19.0317345  27.0989689  18.0979443  52.7139679   9.6512207  55.0048780
  52.5885693   8.7482819  55.2967834  53.5972754   9.6632942  54.6362925
  27.0758773   2.0736918  32.5655627  27.0627785   1.3210091  33.1567740
  26.8326474   2.8165134  33.1180930  67.7722406  65.9305334   1.1292896
  68.4084368  65.6347942   0.4781207  68.1608534  65.6899452   1.9703160
   2.5741896  39.8906898  40.7165623   3.1100783  39.6031928  39.9773765
   2.4141249  40.8194923  40.5494261  56.6982794  61.7316961  34.4242764
  55.7430744  61.7380428  34.3627834  56.8830967  61.2528133  35.2322006
  50.9695959  52.5605297  31.5157127  50.1831722  53.0782652  31.6880965
  50.7285881  51.9962454  30.7810497  69.5382547  62.3904514  43.9960337
  69.4772768  63.3118963  43.7441397  68.9973736  62.3209047  44.7827005
  35.2640796  60.1347923  51.9675970  34.5618081  60.0422573  51.3237906
  35.0018358  59.5660830  52.6914930   9.2399748  46.0147704  62.4608703
   8.4873303  46.6045608  62.4171218   9.9684700  46.5754928  62.7275510
  73.4696054  71.1767960   6.7107075  74.0479612  71.5265274   6.0328937
  73.5036278  70.2280474   6.5884477  65.7982063  37.4469876  45.1035976
  66.4032507  36.7070007  45.1543188  64.9523687  37.0831394  45.3651333
  51.3586664  50.9202576  42.2029018  52.0155716  51.3836861  41.6833448
  50.6186295  51.5256500  42.2484875  14.7782310  42.2207393  63.7230167
  15.0119337  41.3588132  63.3784967  14.1023000  42.0421304  64.3768121
  72.1608686  23.3245873  11.5166879  72.6324177  23.3165002  10.6837356
  71.4883471  22.6506734  11.4177442  26.1971664  68.6130333  30.7675171
  25.9508109  69.5273113  30.6273985  26.7375326  68.6289406  31.5574431
  14.0126929  58.6264706  40.3338003  14.9285826  58.3484173  40.3264618
  13.5178980  57.8257561  40.1598024  -0.1057926  68.2993698  21.3409066
   0.5782112  68.6909389  20.7977247   0.1466545  68.5174561  22.2380900
  66.4688969  57.3742151  41.3632870  66.8882418  56.7512083  41.9567871
  65.5313301  57.2571230  41.5165377  52.4165487  44.8147106  19.5856440
  52.7300358  45.7145071  19.6768761  51.9782734  44.7988796  18.7348247
  43.9387751  61.5659237  54.9775362  43.0328846  61.3630390  54.7442389
  44.0935183  62.4338102  54.6046305  19.7637916  68.5761881  31.8954945
  19.2189145  68.3971214  32.6618338  20.3666377  67.8339767  31.8515348
  77.9107046  42.0847750  49.2148447  78.5712576  42.5793695  48.7297916
  78.1004047  42.2699022  50.1346111  43.8106823  68.7567663  25.1632977
  44.4001579  69.0115404  24.4534779  44.1651630  69.1939068  25.9375644
  70.7152748  42.2093964  39.5596766  71.5666771  41.9857645  39.9356198
  70.2769804  41.3667250  39.4411945  50.6819296  65.9049749  14.5374584
  51.4855623  65.4030848  14.4013822  49.9942684  65.3670979  14.1449726
   1.3949999  60.3297138  22.7413821   1.6182360  61.0586357  23.3202338
   1.8259939  60.5408764  21.9131994  57.0435190  61.2682581  13.1782889
  57.3441410  62.1449709  13.4175289  56.0884380  61.3297653  13.1947386
  24.3476344   0.4420170  35.9745049  23.8092137  -0.3072325  36.2293887
  24.3217993   0.4410633  35.0176525  17.7469718  59.6255016  53.6710691
  17.2658706  59.4292974  52.8671551  18.6661768  59.6335793  53.4041786
   6.1504111  37.4021196   2.0874265   5.7051119  36.8384123   1.4548311
   6.6863379  37.9868126   1.5515670  16.7136527   4.4572481  17.6295924
  17.6588298   4.4106993  17.7734900  16.3410712   3.8815149  18.2973838
  11.8537093  11.1653503  37.2892165  11.6606856  10.2750572  36.9953465
  11.8910504  11.6807255  36.4834762  61.1698389  48.8279200  30.1941729
  60.5650425  49.5565462  30.0543213  60.6289196  48.0447769  30.0925422
  15.6973775  55.1323546  57.8743528  15.7173523  55.2779330  56.9284992
  16.5818533  54.8366012  58.0898945  43.4349680  65.8505821   5.9859574
  44.3282223  66.1106253   6.2111431  43.5153437  65.4372358   5.1263553
  60.4563665  57.4784899  23.0470634  61.4109468  57.4538279  22.9806876
  60.1508904  56.9668245  22.2979879   4.9693903  55.0040770  59.8547649
   5.8982310  54.8169994  59.7187853   4.5275626  54.5634985  59.1288805
  78.0607564  66.5367031  28.8487077  77.8087022  65.6189394  28.7466502
  78.9444713  66.5030718  29.2149711  63.4441853  35.4498267  36.8738651
  63.9366961  36.0516977  36.3158202  62.9385853  34.9151063  36.2617564
   5.8655962  69.8683786  41.5624523   6.2342772  69.5741653  42.3953629
   4.9191698  69.7795486  41.6747522  16.7470896  65.1995993   2.8115606
  16.4918280  65.9289455   3.3764771  16.6109610  65.5264425   1.9222477
  31.7772294  22.4270710  44.7863722  30.8772660  22.1389660  44.6337461
  32.2652531  22.0983776  44.0313721  35.1914867  22.3229970  41.5674780
  35.8725914  22.9873361  41.6722534  35.0204500  22.3017491  40.6259225
   4.0181097  47.5502682  11.1455870   4.3871054  47.6513243  10.2681696
   3.6122259  46.6834307  11.1363459  51.1002254  67.5379515  34.8832917
  51.0630512  67.3841047  33.9392686  51.3118553  66.6826010  35.2572107
  33.3471131  53.1118011  10.0255191  33.5751963  53.8244009   9.4285178
  34.1899395  52.7754068  10.3300083  41.1636162  61.3033104  46.0343790
  41.6029787  60.5253887  46.3779402  41.8760443  61.8682575  45.7351923
  48.5708284  37.4314594   7.1561909  48.6510944  37.9193425   7.9758000
  47.6343155  37.4470901   6.9588828   8.8286719  65.2834511  50.2737999
   9.3142256  65.7566404  50.9494925   8.8476023  65.8649206  49.5136929
   2.6235152  12.2973808  16.8984926   2.4677134  11.3703999  16.7177880
   1.8018246  12.6088223  17.2780478   7.0941544  22.3363098  31.8425250
   7.9693700  22.7023300  31.9700575   6.9971801  22.2729095  30.8923650
  43.1060997  14.5642361   0.5334314  42.9657785  13.7614140   0.0314259
  42.3614732  15.1214870   0.3070808  61.5093931  41.2073935  63.8948651
  61.8407472  42.0865811  63.7119376  62.1513685  40.8297719  64.4961110
  68.3789364  28.3538422  19.1311514  67.7028004  27.6985821  19.3035018
  69.1834275  27.9634079  19.4726002  50.6099510  62.0307255  20.0182080
  49.8681307  61.4278173  20.0675726  50.3439331  62.6854277  19.3725801
  19.1569392  31.4162822   1.7701389  19.6006791  32.2235103   1.5099384
  18.3479469  31.4120717   1.2585260  68.2420301  58.1929970   8.6384314
  67.8062868  59.0450811   8.6207443  67.6791859  57.6251841   8.1121027
  73.6176411   9.5964417  12.4512768  72.6666037   9.5038494  12.3948288
  73.9123503   8.7888416  12.8721750  56.8427849  60.6202078  20.4012084
  56.1003447  60.9331799  20.9179926  56.5988016  60.8061028  19.4944835
  10.5681261  71.5011835  30.5283213  10.3070578  70.8686590  29.8590064
  11.3213190  71.0969591  30.9590673  50.5752420  60.7001019  33.1438708
  50.4087305  59.9246597  33.6797786  50.4632950  60.3970766  32.2428298
  18.6406779  50.1659632  13.3889496  17.7119589  49.9355698  13.4140790
  19.0408194  49.4886065  12.8436923  72.8812170  57.5193262  60.6501484
  72.6907444  56.8713808  59.9718285  72.5809193  58.3492661  60.2796745
  47.3403025  56.5419197  32.3572707  48.0853271  56.0380507  32.0297265
  47.6579475  57.4442196  32.3917007  74.3778133  57.7909470  51.3892221
  74.7741699  58.6596298  51.4564991  74.6321774  57.3482609  52.1988916
  32.7386165  70.6482077  21.2687945  32.0891833  71.1991978  21.7056918
  32.7722144  70.9824419  20.3724742  55.8230448  60.7899761  17.7860630
  55.4164457  61.6543818  17.7251041  56.3029909  60.6925106  16.9636369
  27.6549697  63.6109829  18.7757099  28.5190201  63.9529991  18.5462010
  27.0435190  64.2825127  18.4733748  30.3593779  49.1057539  19.0814424
  30.3324914  49.9247551  18.5867250  31.0290599  49.2514563  19.7496712
   1.8614054   4.4757351  41.6393423   1.6705991   3.8734421  40.9202671
   2.5864363   4.0646824  42.1100807  56.5300369  61.1978149  29.7760987
  57.1104002  61.8707180  30.1319265  56.4229441  60.5711031  30.4916358
  61.0272694  52.7224445  40.8222818  61.7889357  52.2900629  41.2084675
  60.9535074  52.3412895  39.9473476  11.9281805  68.7210083   4.7170663
  12.7531457  68.2367992   4.7518432  11.6313779  68.6238194   3.8122484
  60.4706240  46.2285900  34.9073029  60.9967852  46.5068197  35.6569505
  60.1127481  45.3798437  35.1676750  30.1189264   8.2006682  58.6683719
  30.9648164   8.5492219  58.9498214  29.8350700   7.6454152  59.3945615
  70.2203989  31.6123033  42.9660606  70.4643869  32.0444012  43.7845945
  70.9870672  31.0882401  42.7340937  15.4401828  11.2608704  35.6919622
  14.9423695  11.1050972  36.4945507  16.3156892  11.5004047  35.9958434
  52.2465372  54.1385412  57.1104002  52.2889900  53.1834745  57.1581030
  52.5104189  54.3455362  56.2138796  69.8939228  54.1995478  47.9059649
  69.8027420  55.1409674  48.0531025  70.6573534  53.9486790  48.4260321
  47.2177068  20.7331833  47.2881365  48.1465141  20.9591660  47.3379183
  47.1718422  20.0558552  46.6133356  71.7635714  62.4492969  58.4977303
  71.0678100  62.4102916  57.8415088  71.3935637  62.9732074  59.2082546
  60.8988740  42.9524846  10.5098631  61.3946469  43.6855073  10.1450159
  60.4862870  43.3100934  11.2960674   0.9874758  62.5045156  42.8456163
   1.3352141  61.9541788  43.5473633   1.4161572  62.1814203  42.0531082
  74.1899729  71.4775133  25.2871633  73.8798189  70.7103014  25.7682323
  74.4262028  71.1392546  24.4234443  42.1741391  17.3938736  18.6876798
  42.2684861  18.1890091  18.1631804  41.2287522  17.2550758  18.7443221
  54.2229462  56.4083004   6.0804874  54.5454931  55.6614113   6.5848178
  54.0838099  56.0604048   5.1996696  45.6979179  46.2935019  22.5193095
  46.4881229  45.7550430  22.4761295  45.0309038  45.7112408  22.8830409
  25.6607755  20.2774991  49.2408822  25.7479700  19.6886291  48.4913061
  26.5615734  20.4589833  49.5089422  24.1048750  68.3174706  51.2885571
  23.8156828  68.0886936  52.1718788  25.0522646  68.1816244  51.3039970
  77.0721880  34.1833099   0.6494060  77.1567742  34.4649586  -0.2615001
  77.2378413  34.9750122   1.1612651  58.3674860  70.5413818   5.5053943
  58.9284754  69.8750496   5.1084971  57.5473928  70.0841618   5.6914765
  27.2097206  59.7562313  14.1984093  26.4977455  59.6989346  14.8356223
  27.4773049  58.8483000  14.0559649  46.9925594  72.5044060  36.5437412
  47.8119516  72.7481508  36.1131358  47.1726322  72.6090002  37.4780130
  32.9353213  43.5418558  11.2885404  32.4879599  43.1457043  10.5407703
  33.8616228  43.5292864  11.0476232  23.7071070  18.3537543  24.6685219
  23.9537176  18.2037771  23.7558746  22.9154524  17.8300285  24.7918749
  54.1704559  59.7143030   8.8212836  54.5625067  60.4870987   9.2278767
  54.8001099  59.0121508   8.9848429  76.1709738  53.8038206  39.6615148
  76.7845345  53.1813288  40.0517368  75.3297377  53.3471966  39.6682858
  73.2296562  66.6015100  28.7051940  73.1412792  67.0371723  29.5529103
  73.9048958  67.1024799  28.2476878  46.5275177   3.2121648  34.2786167
  46.4242300   2.7571453  35.1143931  45.7123741   3.7020959  34.1702984
  74.2863083  60.7905340  21.9468045  75.2424240  60.7450485  21.9458413
  74.0909243  61.7216015  22.0525241  71.4937146  53.5321217  56.8034641
  71.3633807  52.6595609  56.4321373  72.2322543  53.8932090  56.3131504
  64.5789909  25.8088660  16.5370810  64.0402079  25.0194573  16.5898240
  63.9478064  26.5270782  16.4922285  60.1957130  70.8151913  28.5043192
  60.5085373  71.7195463  28.4816170  60.2689981  70.5136013  27.5988317
  26.3724948  34.0205463  16.1166906  26.7103577  33.9200195  15.2267623
  25.8073045  33.2588848  16.2457716  24.5806822  69.4318008  55.9553623
  25.1779303  70.1340246  56.2130547  24.0864405  69.2337751  56.7508173
  66.8132877  71.9533587  41.6402435  66.0270691  71.4382458  41.8212080
  66.5072393  72.8601837  41.6249704  52.6528343   1.5494122  61.8426558
  53.4372171   2.0071734  62.1450220  52.4241861   0.9636654  62.5643579
  56.5698051  52.7838182  15.4628956  56.6272926  51.9888783  15.9929883
  55.7697868  52.6719475  14.9493945  41.8177589  11.2936820  62.9505963
  40.8615430  11.3056792  62.9089083  42.0601686  10.4217233  62.6388924
  69.1726494  50.7626534  36.4331865  69.3679523  49.8671007  36.7090034
  68.5532665  51.0852003  37.0878339   6.5725423  17.1711334  27.1135736
   7.0802212  16.9518742  27.8948689   6.1708165  18.0155262  27.3181319
  26.6571689  52.3399544  25.9559870  26.8455315  52.6854229  25.0834036
  27.5071955  52.0507526  26.2877202   2.0445546  14.5357837  56.3611023
   2.4065598  14.1171254  57.1420686   1.2836989  15.0209893  56.6803322
  69.9000311  62.0764828  36.0602212  70.0803280  62.9002142  36.5132070
  69.8957443  61.4173889  36.7543435  34.4927406  64.3991232  18.8685071
  33.6799550  64.7279930  18.4845090  34.9702549  65.1866531  19.1292858
  47.4889612  50.3029203  58.7423849  48.4318686  50.1590014  58.8226557
  47.4080086  51.2206459  58.4826517  68.7169806   3.8422426   9.5649093
  68.1759325   4.5146069   9.1508728  68.9899270   4.2322716  10.3953350
  49.2072868  60.4797840  26.8052673  49.7261000  61.0654545  26.2538576
  48.6338615  61.0637045  27.3017120  48.2628584  69.9953032  53.6503124
  47.4891424  69.7569227  54.1609669  48.9948463  69.6059513  54.1286707
   4.5674929  42.4710846  24.7400618   5.3996786  42.0659924  24.4959283
   4.7541270  43.4097481  24.7578001   0.7889637  69.2758608  31.8681908
  -0.0372282  69.6938610  31.6254592   0.5529055  68.3661270  32.0495462
  38.9723889  22.0257267  41.8389797  39.6308414  22.4189934  42.4117041
  38.5689703  22.7696404  41.3916779  68.2312202  70.3221750  23.6832857
  68.7861347  71.0252285  23.3456230  68.6722994  70.0312805  24.4814467
  77.8808260  71.3776970  54.2577600  78.0588198  70.6114817  53.7123585
  77.4662447  72.0034170  53.6637640  48.8049301  32.0743407  62.9752037
  48.9703544  32.6407327  62.2215007  48.4091457  31.2872209  62.6010090
  59.5564127  58.9651680  30.4751611  59.0493774  58.1880951  30.2399945
  59.0420961  59.3875980  31.1631060  62.9650608  13.4996876  57.7100658
  62.5911871  12.7408680  58.1580019  62.3773948  13.6548504  56.9706011
  59.1989279  21.0179114  25.8495831  58.6489630  20.9671116  25.0677967
  58.9544964  20.2490902  26.3647485  53.7757556  70.2738099  42.9998992
  54.2144458  70.9821300  43.4711359  53.8825099  70.4988913  42.0756839
   4.3627581  53.2016468  15.8280051   3.5760054  53.5303974  15.3930700
   4.0850481  53.0301476  16.7278385  28.7938882   9.2085346  29.9175286
  29.5621587   8.9098915  30.4041505  28.2234288   8.4410175  29.8760056
  43.3484745  66.0043716  17.0698535  42.8019142  66.5804720  17.6042819
  43.2345247  65.1373053  17.4590099  11.1064196   0.3977236   6.5694475
  11.3817454   0.7379898   7.4207085  11.6197396  -0.4018656   6.4537168
  73.1583691  44.4118309  31.8743634  73.0034733  44.1747236  32.7887034
  72.8609705  45.3192759  31.8085623   8.0893454  58.8948202  49.1738653
   7.2714457  59.0298605  49.6524477   8.7579188  59.3067217  49.7212029
  33.2301235  66.7970324  38.3157206  33.8344598  67.4042511  37.8887677
  33.4850645  66.8143511  39.2381835  31.6256333  12.5125488  13.3923912
  30.8866597  12.0920071  12.9527509  31.5652276  12.2148975  14.3001258
  12.0341826  46.2353310  31.7027283  12.1513558  46.9029221  31.0268378
  12.6689196  46.4669498  32.3807359  48.2272435   3.4756359  47.1197462
  47.5990010   2.9736647  47.6389456  48.6990643   2.8159889  46.6113377
  20.6343556   2.7216753  29.7492361  19.9160529   3.0374369  29.2009997
  20.7127763   3.3772596  30.4422641  71.3468981   2.6974509  44.1086255
  70.4124928   2.6329253  43.9112495  71.4076376   2.5073073  45.0447796
  42.7897358  69.2793894  52.7793694  41.9614363  68.8177538  52.9099131
  43.0252314  69.0962744  51.8698406  13.2600976   3.7402472  20.3141689
  12.3635865   3.4673962  20.5092239  13.1777144   4.2984137  19.5409322
  76.5099350  14.6032223   4.7359776  75.9249560  14.1252216   4.1481438
  76.6184536  15.4593452   4.3218377  37.5068688  68.6457443  31.1142540
  37.6497793  69.5919085  31.0901308  37.9537821  68.3562136  31.9096613
  19.7553953   4.0509404  61.7995369  19.5571502   4.1619863  62.7293749
  20.0537714   3.1445016  61.7248431  40.5272198  15.3716835  41.7021847
  40.8825589  15.4171452  40.8145475  40.8166886  16.1838230  42.1179485
  67.1125793  58.8772917  15.6533456  66.4919996  58.2901525  16.0850585
  67.9663181  58.4671497  15.7917142  20.9696151   2.2912439  58.0661249
  21.1338998   3.0866894  57.5596571  21.8278075   2.0459494  58.4119081
  11.9418661  47.5533910   2.8346063  12.7263896  48.1001611   2.8769447
  11.3604276  47.9166265   3.5026028  10.7434655   4.4977984  32.3546100
  10.4783583   5.1058420  33.0447078  11.4441396   4.9545464  31.8891311
  47.7131796  70.5083656  14.8375666  47.8079557  70.3020334  15.7674468
  47.2590780  69.7505426  14.4691479  50.6167603  56.7688370  30.1748490
  50.6237030  57.6810694  30.4647064  51.0600853  56.7836618  29.3266296
  47.8029299  72.2671032  33.2947445  48.6849213  71.9256639  33.1473017
  47.3992109  71.6376591  33.8922787  62.2431692  67.7047290  56.8747912
  62.2334035  66.9518413  57.4658029  61.4199480  68.1595649  57.0526908
  62.0500565  70.1011038  22.1026850  62.6682711  69.5147181  22.5387907
  62.1687794  70.9435225  22.5414014  24.7112036   4.3937000  19.3653750
  24.1220856   4.0824732  18.6781251  24.9344874   5.2867874  19.1031265
  60.7246923  66.8034458  52.6445007  60.4968500  66.4933205  53.5209370
  60.1091528  66.3553667  52.0643473   6.3769278   9.4486171  42.3839951
   5.6664595   9.1180992  41.8342400   7.1387896   9.4679344  41.8048334
  77.5384378  72.5830507  16.0144567  77.0763874  72.3906565  15.1985371
  78.3420944  73.0226135  15.7366860  27.6420911   8.5470523  63.4000147
  27.2785934   9.0393437  62.6639797  28.5901674   8.6026086  63.2804353
  10.0776800  40.9303522  10.0714624  10.2200350  40.9928942  11.0159492
   9.6299776  41.7447615   9.8422778  20.9450865   9.4794067  62.1402502
  21.1469079   9.6191200  63.0654430  20.5577756  10.3059658  61.8521166
  67.6688576  70.0228310   7.4738210  68.0831957  70.8662701   7.2917157
  67.2877216  69.7575283   6.6368121   5.5295595  55.7125092  17.0151401
   6.0323271  56.0844612  16.2904918   4.8084292  55.2465105  16.5920031
  21.6101027   4.1975340  43.1239605  21.3694096   4.9203619  42.5444651
  20.8137227   4.0149769  43.6226463  21.6866923  10.1171860  58.7542200
  21.1843205  10.6491932  58.1371069  21.7831565  10.6737503  59.5269918
  26.0882219  24.8566236  54.2187427  25.5937942  24.8458804  53.3991931
  25.4674896  25.1860942  54.8686449  64.5411062  39.2175984  30.4822993
  65.1572037  39.0954900  29.7599816  64.7522926  40.0825977  30.8335948
  45.6468471  30.8042468  60.4245214  44.8819383  30.2322425  60.4874430
  46.3756021  30.2641572  60.7302142  52.8486109  69.8672056  28.5523725
  53.2045126  69.8500824  27.6639628  51.9758368  70.2476215  28.4534574
  55.2986860  51.3776875  34.0461445  55.5606508  50.7375288  34.7078109
  56.0526180  51.4379501  33.4594679  32.7702618  19.4476494  31.8759656
  32.9484845  19.5371231  30.9397697  33.5884858  19.7044548  32.3011589
   0.0288249   8.1249126  24.9711037   0.7889796   8.6981186  25.0702572
  -0.0785875   7.7186283  25.8311176  11.5788031   9.5011124  39.8589683
  10.9134818   9.6562561  40.5294275  11.4250279  10.1842579  39.2063522
  24.9578858  10.2888283  30.6348419  24.4170762   9.5073303  30.5207229
  25.1749135  10.5621513  29.7435379  15.1072598  68.5912704  34.2480206
  15.2991927  68.6447620  33.3117867  14.5648396  67.8076220  34.3369222
  72.1411037  47.0013857  32.5011802  71.9246149  47.6390648  31.8209362
  71.2969160  46.6326571  32.7612138   1.7866549  73.8182068  54.1780329
   2.7181563  73.9510727  54.0022945   1.7347559  72.9328537  54.5381546
  66.1635017  54.0317202  30.6504607  65.6326532  54.8192835  30.5314183
  67.0517588  54.3603134  30.7892489  62.1610546  51.2504053  19.4279683
  62.8511000  51.7109776  18.9505386  61.8599606  50.5744028  18.8208485
  70.6076447   5.0408682  60.6146574  69.9927393   5.7559237  60.7784414
  70.1409928   4.4556173  60.0180435  66.5862942  61.8698454  49.3786240
  65.8769989  62.4953938  49.5263624  67.3342943  62.4111271  49.1261482
  38.2802996  69.5734835  41.0527706  37.3996195  69.2035341  40.9913921
  38.2705340  70.0819063  41.8637228   6.0675383  19.8302063  27.1897364
   6.1449099  20.3032097  26.3611770   6.4462662  20.4221043  27.8397012
  53.3225155  57.8115463  24.4807458  52.7386856  57.5591087  25.1960421
  52.8587532  58.5178471  24.0309739  70.9123373  65.5004025  45.2477837
  70.2595854  66.1991787  45.2046108  71.5547180  65.7309198  44.5766354
  49.8257923  68.0593824  15.9503829  50.2067518  67.3541498  15.4271698
  50.3156900  68.8402939  15.6926787  71.1237335  54.1916609  45.3831434
  71.0537624  54.1518259  46.3369513  71.5861416  53.3886576  45.1431656
  18.7936370  57.9839749   5.0839521  18.2448690  58.7007566   4.7656586
  19.6899955  58.3002038   4.9709751  46.1022472  66.0803652  19.7962368
  46.1029768  65.1534700  19.5572829  46.6248894  66.5037012  19.1151571
  50.8281946  73.7946272  14.9156308  50.4856777  74.2357254  15.6930268
  51.2525702  73.0065536  15.2548575  55.9187571  29.4725880   7.1625376
  55.1338378  29.0570530   7.5195700  55.6418888  29.8181519   6.3139164
  28.1314183  34.0958008  14.0295231  28.3324433  34.3758568  13.1365585
  28.3502103  33.1640419  14.0432894  66.9485728   3.6045345  14.5238030
  66.0801021   3.2188877  14.4086039  66.7802063   4.4605001  14.9177659
  37.4926901  68.2048130  50.5657339  37.3850346  67.3479366  50.1529360
  36.7919517  68.2469320  51.2164450  63.4533930  66.4912462  51.6747999
  63.7956285  65.5987883  51.7260170  62.5506735  66.4197636  51.9849873
  67.6542202   7.9480919  62.9493046  68.3553759   7.3201927  63.1235361
  68.0458657   8.8017735  63.1338978  43.8875429   8.5376152  63.7414360
  44.3114463   8.9718231  63.0011654  43.0176596   8.3051380  63.4166479
  22.4280883  30.8823475  26.7753077  22.4610186  30.3569588  27.5747538
  22.8542996  31.7060074  27.0122790  32.6510219  26.2762245  29.4935656
  32.9632667  26.1925968  30.3945327  33.2593337  26.8923840  29.0854764
  51.0022545  45.2884769  16.9590616  50.9042406  46.1162519  17.4296033
  51.7319536  45.4394436  16.3582468  54.0507126  62.7392006  28.7986064
  54.6366739  62.0496464  29.1106892  54.4019890  63.5432816  29.1810870
  57.0470524  47.5100565  15.4454052  57.9222965  47.8972054  15.4626071
  56.8412447  47.4245214  14.5145130  50.7175064  44.6765232  23.8276267
  51.0336351  44.1172695  23.1180263  50.8115578  45.5674267  23.4904671
  71.3615751  34.2067599   8.8192403  72.2451401  33.8399673   8.8510644
  70.8760595  33.7200332   9.4852763  26.5880156   3.8012680  23.5918403
  25.8656646   4.1105923  23.0452514  26.9105578   3.0198750  23.1428123
  20.2906108  72.2245932  45.6660366  19.4241285  72.5414371  45.9210825
  20.6999993  72.9717779  45.2297449  42.9334545  62.9339552  44.9713707
  43.4842205  63.6340666  45.3217077  42.4679613  63.3388901  44.2395401
   8.2479256  41.5504731  62.6478547   8.9896458  41.2932767  63.1955149
   7.7444904  40.7445563  62.5325870   6.4150366  66.9138575  19.4230449
   7.3335203  66.6479206  19.3794549   5.9443125  66.1125851  19.6524179
  69.0936756  59.7070360  37.6042390  69.7696686  59.0612555  37.3987269
  68.3461142  59.1861486  37.8976083  50.5625216  26.2004551  37.0529485
  51.1169735  25.8504566  36.3555861  51.0732833  26.0720524  37.8522396
   7.9033328   2.9446491  29.0557504   7.2037650   3.3288607  29.5841575
   7.8009129   2.0001968  29.1730046  65.9058046  69.8995209  45.0446987
  66.7894888  70.2655411  45.0816011  65.4217529  70.3736353  45.7208252
  42.5389910  37.2344112   6.6203749  43.2303619  36.6906190   6.2428498
  43.0069208  37.9172683   7.1009803  66.3469315  62.9160070  45.0267315
  66.9728613  62.9771852  45.7483292  66.4615297  62.0293427  44.6847868
  75.5307499  44.0086731  14.4792104  75.2150647  43.5729107  15.2708411
  75.9039418  44.8327526  14.7920501   6.4850665  32.4727901  57.7209759
   5.8675147  31.8119415  58.0342579   7.2457124  32.3808941  58.2947397
  41.4097357  62.6044369  13.6481369  42.1394825  61.9895840  13.5729468
  40.7326031  62.1163559  14.1166413  58.7871011  36.6902818  49.5701633
  59.2521413  35.9962787  49.1029130  59.3886884  36.9553174  50.2659200
  76.8722121  29.5041641  19.3313348  77.1143071  29.1585621  18.4721613
  76.2115876  28.8932308  19.6577752  24.2282010  10.3442940  47.3594999
  24.9541474  10.3102192  46.7365408  24.4223452   9.6522125  47.9916096
  34.8289466  15.4628873   0.7452291  35.3885818  15.9902287   1.3152730
  34.2743397  16.1013520   0.2968911  42.9247189  18.6945486  38.1978464
  42.0002937  18.5887289  38.4225011  43.3832455  18.6347413  39.0359449
  76.6033124  59.5802287   0.9829190  76.3000678  60.1949326   1.6510612
  77.5363588  59.4691506   1.1654557  11.4271283  18.8549781  41.2854624
  10.9356678  19.5616651  40.8667850  11.3239849  19.0146339  42.2236013
  34.2905760  34.3269110   1.2296240  35.2049279  34.0445447   1.2082212
  34.3192887  35.2506995   0.9805836  67.7564346  59.6387115  33.5687280
  68.5654628  60.0990823  33.3456492  67.9479288  58.7179199  33.3906746
  14.7879203  61.7278675  39.9414182  14.6210512  61.3549510  39.0757847
  15.4152092  61.1273459  40.3440475   8.6701711  71.6633229  11.0880589
   9.0371998  71.6061542  11.9702458   9.1779979  72.3536164  10.6616354
  40.4144557  18.7219756  58.8764028  39.7180171  19.1672401  58.3937607
  40.9436734  19.4309370  59.2418264  67.1913277  52.0919982  23.6217046
  66.6715657  52.4820748  22.9189110  68.0372214  52.5369111  23.5692644
  28.7891269  17.7619576  39.2629027  27.9908633  18.2182503  38.9968085
  29.4334435  18.4589219  39.3867183  72.6642727  72.7463884  21.6931510
  72.2821926  72.8295602  20.8194661  73.3814334  72.1221516  21.5825057
  31.1778863  56.4712897   3.1434932  30.3998741  55.9251944   3.2562608
  31.9061359  55.9073964   3.4040812  64.5449483  73.8830339  45.6984758
  64.0025937  73.8564620  44.9102020  64.1535961  73.2316618  46.2805319
  42.7157879   9.3166858  48.0008125  43.5652971   8.9591044  47.7425528
  42.8829908  10.2472818  48.1500340  20.0390387   0.3867417  10.4512656
  19.1616392   0.5029862  10.8158016  20.0105596  -0.4709819  10.0273180
  43.2486105  17.2366774  15.5470979  42.7681112  17.0369232  16.3504970
  43.5637712  16.3869965  15.2389646  57.6687725  64.2811971  34.4442557
  57.6566894  63.3299808  34.3380759  57.4000438  64.6209102  33.5906695
  28.5692048  19.0835464  12.9090250  28.7034392  19.9701488  12.5741386
  29.4423556  18.6913431  12.9052591  30.2990079   4.3397027  26.2640214
  30.1273131   3.8050240  25.4888630  30.4732299   5.2148277  25.9175587
  66.4444208  28.9453077  16.6970360  67.3696423  29.1453385  16.8391120
  66.2363005  28.2893014  17.3622966   1.5628966  69.4698161  29.1137934
   1.9608506  70.2644289  28.7581873   1.4165219  69.6684906  30.0386357
  19.3185504  66.0068700  15.5719006  18.5374340  66.0416290  15.0197434
  18.9805015  65.8680836  16.4566004  46.7325592  17.4929965   8.8523549
  46.3839388  17.1660781   8.0230057  46.3849974  18.3819461   8.9244759
  31.1095285   3.7100109   0.3422626  30.7557821   3.9464828   1.1996865
  31.9092989   4.2297032   0.2615125  17.7730592  61.9600955  38.1369567
  17.7547010  61.8723658  39.0899515  18.0993398  61.1160329  37.8249741
  73.0745347  37.0377549  62.7898508  73.0613454  36.2567213  63.3430635
  73.1467278  37.7665942  63.4061412  10.2029928  61.0259012  12.6062787
  10.0973304  60.1468185  12.9699838  11.1086854  61.0500697  12.2974610
  18.3095726  62.8685037  13.6223137  19.0787633  62.7392069  14.1771662
  18.6073860  63.4646574  12.9351878  25.3142285  38.6093259  32.4959540
  24.4630480  38.8046265  32.1040630  25.6239247  39.4518995  32.8282070
   3.9538988  64.2716965  35.7759547   3.7821349  64.2712203  34.8342919
   3.3235558  63.6470417  36.1347127  31.6226991  64.6764139  21.5456223
  31.0205921  64.1906259  22.1092820  31.3043006  64.5129124  20.6578612
   7.1674094  16.8381929  33.6837363   7.4846014  17.4176061  34.3764830
   7.9462370  16.3636792  33.3930659  69.3644594  71.4992763  43.1030893
  69.7458243  72.1567354  42.5212431  68.4371590  71.4791447  42.8665733
   5.3246816  73.0582692  33.2800412   5.1098045  73.9717868  33.4685731
   4.8011454  72.5553954  33.9039469  70.3863716   4.9951980  31.5224266
  69.6598721   4.9973261  30.8991885  70.5088997   5.9166950  31.7505980
   9.2271646  59.7549323  19.6098948   8.7224301  59.7032979  18.7982249
   9.8098858  60.5035356  19.4823658  14.4852281   0.6179496  33.0497885
  13.9773846   1.3965161  33.2781768  15.1803291   0.5840975  33.7069941
  20.1920867  17.8722119  27.1458626  19.7627664  17.0290363  27.2906709
  21.0965061  17.7317345  27.4260807  72.9591917  70.2664104  35.7413769
  72.1273183  69.8903054  36.0290623  72.9592227  70.1492396  34.7913742
  50.9766538  70.5143146  42.1342681  51.4797337  71.1463432  41.6207669
  51.5609272  69.7618084  42.2269462   2.6634868  48.7288180  16.7934406
   2.4981888  48.8262287  15.8556664   1.9799002  48.1311575  17.0963264
  40.9104776   2.0923965  21.4493036  41.3250971   2.3822556  22.2618961
  41.2832594   1.2260254  21.2860036   0.9884533  57.2593788  29.4855595
   1.4887508  57.0494262  28.6969829   1.0682257  58.2091371  29.5740294
  21.8091631  21.2837005   6.9993931  22.1912193  20.5708003   7.5112897
  21.8210721  22.0362902   7.5907451  66.4542650  69.4263262  33.3954048
  66.4691126  68.6101911  33.8953400  65.5311345  69.6787057  33.3762455
  40.1068258  11.7637289  37.7156925  39.9414372  11.6807747  36.7765474
  41.0562849  11.6765785  37.8003049  52.7301956  68.7822160  22.1732688
  52.0233175  68.3821366  21.6668177  53.1820264  68.0426184  22.5795650
  14.9818405  63.1149128   3.1893662  15.6958183  63.7477878   3.1123155
  14.1934093  63.6518196   3.2690030  18.8200557   8.3859986  13.6999393
  17.9204786   8.0688030  13.6200666  19.1124952   8.5068834  12.7965581
  31.1345005  11.4388371  15.9047878  31.5395355  12.2308171  16.2582672
  30.1936221  11.6061199  15.9595096  38.5430717  22.5961661   2.1828637
  38.1789470  22.6326966   3.0673462  37.7771688  22.5835276   1.6088739
   6.6656129  36.7365805  57.9531471   7.2654788  36.0690012  58.2859115
   5.8175676  36.5075140  58.3333866  54.5357163  39.5286627  60.0932000
  54.6557625  38.8361512  59.4433935  55.1373012  39.2993476  60.8015369
  44.9731000  64.2511659  62.8881162  44.1158970  64.4033484  63.2859546
  45.5677088  64.1506677  63.6314681  28.6559486  18.6644626  18.0752313
  28.4505868  19.0618479  18.9214849  29.6064711  18.5522878  18.0876565
  63.0773497   4.6737844   4.6404952  62.9473972   4.0414542   3.9337397
  63.0307674   4.1511342   5.4410565  21.4063549   1.9674467  12.3698378
  21.0932446   1.3615775  11.6981864  20.6158996   2.4070954  12.6830828
  77.8840239  42.8774356  34.9002979  77.4516280  42.0466207  35.0978134
  78.7299855  42.6251333  34.5302604  18.8072586  12.7079308  20.2432227
  19.2566085  12.1090627  19.6468401  17.8782201  12.5082135  20.1282001
  26.1420417  17.2361994  34.8756194  27.0912242  17.2019923  34.9944139
  26.0007000  17.9792714  34.2890215  67.9863882   0.5257253   6.1948448
  67.6356411  -0.0901328   6.8382156  67.2345734   1.0611042   5.9411174
  45.4458952  11.8727922  29.6536422  45.1165438  12.2723603  28.8485909
  46.3954258  11.9834650  29.6048927  55.3738212  62.2312156   9.5246392
  56.0603147  62.5961259  10.0830293  54.9169325  62.9965166   9.1756433
  12.7457488  11.6019416  31.5286016  12.1729231  11.6363263  30.7624936
  13.6270034  11.7205203  31.1742544  13.6319797  59.6952109  52.3778485
  12.8827541  60.2295809  52.6411722  13.5062043  59.5520739  51.4398060
  75.5205663   8.4158902  63.3402680  74.8408492   8.5505752  64.0006287
  75.4834397   7.4793701  63.1458898  45.1287985  21.0542536  42.1993113
  45.4859304  20.1743817  42.0788479  44.7824621  21.2919974  41.3392162
  67.7707850  71.3154728  19.5785666  68.3833396  71.3855869  18.8463831
  66.9924258  70.9055728  19.2012465  57.0978212   7.7731007  12.6230609
  57.0235634   6.8317598  12.7798879  57.2900486   7.8457338  11.6881788
  29.9484253  27.2393203  16.6814268  29.5541930  28.0306411  16.3145149
  29.5093989  27.1214652  17.5238037  21.5476680  11.5397978  15.1769316
  21.9284487  10.8140290  14.6824634  20.8574510  11.1354256  15.7025898
  14.2965078  23.8960862  21.9248652  15.0004923  24.4159079  22.3127103
  14.5642257  22.9878497  22.0651054  67.5009997  21.4609508  46.0588000
  68.3976395  21.1282318  46.0983823  67.5291426  22.2839086  46.5468357
  56.2340212  42.4583864   7.8899854  57.1699953  42.5913668   7.7399713
  56.1746836  41.5825987   8.2716960  13.3614123   3.6793241  24.5311475
  13.1220365   3.7512350  25.4551387  13.5914838   4.5719287  24.2731619
  43.2540607  13.0961955  33.1503797  43.6900187  13.4529126  33.9242816
  43.8396978  12.4041593  32.8432178  20.7558712  55.3215543  52.7995348
  21.1207183  54.8536697  53.5506678  19.9500784  54.8487643  52.5912094
  27.8569555  41.9813395  29.2842388  27.8069258  41.0636377  29.0167332
  28.7447262  42.0827055  29.6274900  35.6645989  21.3091779  26.6230106
  36.1395645  20.6015897  26.1871672  35.3201771  20.9099174  27.4218845
  42.1130228   9.2016578  59.0764666  41.6532898  10.0259888  58.9172316
  41.9903183   9.0356636  60.0111437  18.8718860  52.3991268  48.0615626
  18.8360231  52.6264005  47.1324275  17.9636352  52.2097652  48.2970498
  19.8405528  15.1633823  27.3028064  19.5660758  14.9834490  28.2019830
  19.5795786  14.3839955  26.8122149  72.9570887  28.6676288   8.0191612
  73.7772217  28.6750317   8.5126776  72.3282173  29.1050339   8.5931218
   6.8728646   3.1194819  54.1452698   7.2211846   3.0608310  55.0349127
   6.0980757   2.5574674  54.1538708  40.8298779  13.0313492   3.0153188
  41.3186550  13.7814522   3.3539522  41.4499760  12.3032975   3.0559599
  11.7651236  51.2839890   8.6682761  12.6681161  51.4493895   8.9393413
  11.5009522  50.5142546   9.1722155  66.5145015  73.1555431   6.0070294
  66.6503131  73.9283945   6.5551972  66.8189835  73.4209168   5.1392162
  63.0206633  32.9733109  35.1746225  62.4519300  32.6614714  34.4706821
  63.1278610  32.2154522  35.7494187  52.9243429  26.8937926  47.9944585
  53.1789501  26.8865697  48.9171479  53.0967076  26.0023301  47.6914476
  29.4775899  52.1590844  27.2645140  29.8085531  52.0180455  26.3774943
  30.1917299  52.6066795  27.7182698  73.5417866  10.6800498  42.8496693
  73.6107754   9.7467889  42.6484202  72.6009225  10.8561315  42.8497670
  44.3348169  22.7838898  14.7935355  44.1538477  23.5396290  14.2346632
  44.7427988  22.1455574  14.2084563  26.3258553  19.1062856  47.0837545
  27.2193289  18.7673175  47.1388578  25.8859563  18.5226345  46.4656353
  18.6422324  28.8565850   8.1219465  18.3413064  27.9592705   8.2651263
  19.2227054  29.0354562   8.8617349  15.8427080  72.4844665  25.7617188
  15.9651550  73.1664680  25.1013303  14.9262222  72.2239645  25.6699157
  67.2526217   5.3281564  30.1721716  66.9335222   6.2272620  30.2497411
  66.6862297   4.9291337  29.5117068  73.1512021  48.9229361  25.9577036
  73.3694004  49.7788182  26.3266063  73.9621090  48.4189430  26.0259056
  53.9126348  16.9466794  40.1137733  53.3311844  17.4064434  39.5081639
  53.9718914  17.5248170  40.8743525  47.8167057  10.1697612  48.2496548
  48.0204582   9.9763864  49.1647100  47.4109554  11.0364068  48.2726049
   4.4394764  54.3517128   8.4147388   4.4870313  53.4575048   8.7529117
   4.9683865  54.3345812   7.6171219  27.4618228  59.8999742  22.4393392
  26.9822582  60.7114402  22.2726822  28.3002075  60.1872078  22.8010488
  66.6362944  15.9377837  25.7563138  66.6830304  16.0481727  26.7059779
  67.5448421  16.0042858  25.4624581   1.7110412  46.1470382  41.5078972
   0.7846133  45.9067999  41.4921306   1.9922464  45.9581731  42.4031542
  36.1047578  12.6017547  20.8917022  36.3012338  11.7342210  21.2452722
  36.4969516  13.2101178  21.5180492  52.0074542  19.5899110  47.1798537
  52.5003274  19.2664485  47.9339622  52.5983842  20.2128725  46.7568253
  72.6185631  58.4520915  10.8036983  71.7114746  58.1581095  10.7200480
  72.6563024  59.2608038  10.2930188  72.8408074   3.5958661  41.5571736
  72.3210906   3.6623563  42.3582385  72.1945655   3.6032332  40.8510945
  63.5298808  18.8457529  37.0792149  64.0057452  18.1243925  37.4908255
  63.2322676  19.3852346  37.8117560  44.0474224   3.7473747  31.5139222
  44.9251652   3.4696275  31.2518978  43.4792137   3.4458619  30.8050776
  73.6158037  19.3190730   7.7120453  73.9680767  19.4166434   8.5967004
  72.9257870  18.6615467   7.8001815   6.6522682  24.3920970  33.9747524
   7.1668297  23.6018705  34.1390753   6.3506353  24.2979217  33.0712152
  32.3073530  25.5910468  19.7851360  32.4871564  24.7323561  20.1679564
  33.1638908  26.0155082  19.7360539  15.1894462  55.4985332  12.4329138
  15.6061292  55.7338619  13.2619059  14.8948288  54.5967722  12.5604308
  52.6709659  42.4289088  37.3885153  52.7704437  41.4805086  37.4714158
  51.7444713  42.5555931  37.1840928  70.7187507  60.9681702  12.3492789
  71.5407291  60.6228209  12.0009756  70.9239116  61.8694210  12.5980568
   9.8260248  31.1985064   7.5288028   9.2071128  30.7489419   6.9534141
  10.6877685  30.9308290   7.2094631  44.5217180  36.2395191   0.1596244
  45.0189543  37.0494866   0.0458714  44.5481634  36.0725522   1.1017784
  63.3590566  73.2972060  32.6839638  63.8267552  74.1219085  32.5522256
  63.8448476  72.6600561  32.1602488  15.4399856  73.4992514  21.1222291
  15.1801380  73.3769474  20.2091312  15.7356390  72.6339090  21.4050794
  33.0706620  10.4676461   7.9365140  32.2189903  10.6843090   7.5571120
  33.2539034   9.5818019   7.6235694  63.8611960  60.7758454   1.9303846
  64.0966820  60.9223631   2.8465232  64.0920090  61.5937785   1.4899963
  47.5572920   3.5182041  51.3215494  47.9102898   2.7555126  51.7797279
  47.3417664   3.1937778  50.4471779  75.0168371   5.6652319  42.0414543
  75.5051327   5.0138968  41.5379095  74.2283916   5.2044225  42.3282385
  43.0341482  17.3150873   8.7351072  42.8155470  16.8965638   9.5677429
  43.6636448  17.9975128   8.9680535   6.6013305  30.1761244  45.0867985
   6.3871495  30.8088778  45.7723485   6.4602916  30.6525003  44.2686270
  24.6178659   6.9311131  63.0629184  25.5340465   7.0273484  63.3228927
  24.6476635   6.8372716  62.1107955  33.3967575  69.2614383  30.9112072
  32.9030307  68.8523665  31.6219282  32.7617630  69.8288372  30.4740906
  17.0531476  34.7165084  29.7519517  16.9066429  34.0158153  29.1165018
  16.3143790  34.6495414  30.3569055   6.3652404  56.0834340  23.2299638
   6.4145216  56.0835770  22.2740316   6.9800004  56.7649928  23.5015869
  73.3367905   7.0065343   2.5911117  73.8778731   7.0330292   1.8019605
  73.1127706   6.0819602   2.6969859  23.9015722   5.0549114  22.2020912
  22.9748511   4.9718186  22.4268508  23.9479613   4.8023832  21.2799692
  64.4591427  26.0207129  34.8506331  65.0175571  26.1938834  35.6085372
  64.7125244  26.6849518  34.2096829  16.5978110   1.4446157  29.9794054
  16.2531030   2.3160125  30.1745367  16.5309811   1.3682179  29.0276027
  62.4501467  26.0233402  32.1314263  61.6396093  25.6852198  32.5121260
  62.3429871  25.8968258  31.1886954  56.6642618  16.0519314  17.2547102
  55.8223295  16.0418868  16.7994213  56.5200806  15.5189800  18.0366349
  75.6369852  67.6107124  28.0271053  76.2905430  67.3203537  28.6633301
  75.9340643  68.4800414  27.7583265  61.9305580   3.0930699  59.3944420
  61.2356817   3.2962598  58.7682692  62.5200176   3.8459720  59.3507494
  58.2542849  11.5509164   5.0354171  59.1905880  11.5967667   4.8418474
  57.9888058  12.4631763   5.1517522  43.6037730  11.8248834  52.3940859
  44.1707747  11.9311036  53.1579302  43.3177757  12.7135552  52.1826611
  27.6020861  31.7806482  40.2756119  28.2240582  31.4245200  40.9100819
  28.1244373  31.9340205  39.4882989  15.7894500  61.0154263  34.1233492
  16.0516723  60.6252733  33.2895327  15.9505113  60.3286103  34.7703242
  55.2780922  65.1855283  56.7228798  54.9798234  66.0077600  57.1117256
  56.0933240  64.9849849  57.1826760   1.1459033  46.8940924  46.5009795
   1.7582004  46.3273321  46.0318242   0.8213966  47.4997048  45.8345245
  67.1762585  48.5444561   4.8418546  67.9870867  48.2326880   4.4398701
  67.1414363  48.0982700   5.6879860  26.5747118  32.5388265  24.0881252
  26.1424279  33.3307242  23.7683415  27.3122597  32.4110174  23.4915352
  30.5254769  32.8807926  41.4884520  30.0427771  33.4641027  42.0740986
  30.9457326  32.2493386  42.0723057  55.0678110   1.9402628  24.6841192
  56.0050011   2.1283467  24.7344112  54.9014330   1.7996147  23.7520432
  34.5385488  66.2151030   4.2083937  34.9264654  65.8466772   3.4146601
  33.6232027  66.3724587   3.9768389  19.3372774  22.6727676  20.7389927
  18.9344656  23.4668040  20.3875971  20.2671576  22.8879023  20.8116150
  31.6175389  42.4207926   9.3766207  31.1118078  42.6467800   8.5959822
  32.1118259  41.6408873   9.1243064  59.8082781   5.9484035  16.4155614
  59.3551350   5.1080316  16.4838994  59.3678951   6.4001334  15.6956756
  45.3848823  59.5031825  17.4500465  45.2834686  60.1761416  16.7769396
  45.1282819  59.9375013  18.2635307   0.7879035  53.4321313  41.8988989
   0.9065311  54.2396455  41.3988183   1.4156453  53.5014491  42.6181815
  36.1154242  57.7943449  55.8639399  36.0493024  57.2488837  56.6477327
  37.0372494  57.7405839  55.6117902  16.3772655  17.3116779   2.0296091
  15.4521275  17.5571644   2.0389916  16.4676428  16.6907454   2.7524543
  38.0556488  17.2919905   7.8450447  38.7263870  17.0273328   8.4745687
  38.3178067  16.8729138   7.0253611  16.4294767  12.2924316  14.9769711
  15.7801580  11.7231607  15.3899467  16.8500769  12.7455461  15.7077336
   2.6624068  57.1421317  12.8619039   1.8056043  57.5478843  12.7296567
   2.7954587  56.6037765  12.0817101  26.0472139  21.6113366  45.9989141
  26.2812313  20.7696856  46.3901792  25.1506313  21.4892997  45.6867037
  42.5953531  26.8480229   2.5674370  42.9317808  26.2920046   1.8646622
  43.3261871  26.9277716   3.1804246  28.7992525  17.3961771  24.8283672
  28.1424785  16.7391300  25.0589561  28.4908485  17.7625096  23.9995599
  45.7945347  14.5909786  34.1922379  46.0257483  14.6609533  35.1184535
  46.0890341  15.4170930  33.8087845  64.2276295  47.0146387  56.3769923
  63.9396818  46.1315344  56.6081707  65.0511463  46.8827580  55.9072463
  70.3584559  61.2179952  56.2637304  70.6897290  60.4362779  55.8216832
  69.9182875  60.8829932  57.0449196  56.9390965   5.0304013  31.0765553
  56.6462469   5.5460739  31.8279243  56.8639278   5.6275892  30.3322792
  19.3855059  38.7233233   9.5334125  20.1129794  38.7592435  10.1544785
  18.8394880  38.0017591   9.8455709   6.6846144  13.7926495  32.4339676
   5.8405989  13.9687252  32.0181966   7.0152861  14.6565747  32.6799798
  65.4917717  12.9060137  18.1398547  65.9869194  13.4983468  17.5739932
  66.0874462  12.7125287  18.8637090  13.9680946  31.9919586   4.6460596
  13.8332808  32.0294499   5.5929762  13.0937934  31.8447065   4.2853010
  31.6028357  23.0047107  47.4726057  32.5270486  23.2066894  47.6184273
  31.5177107  22.9461884  46.5209961  71.3475449  50.8737700  60.6438575
  71.2267430  51.8082337  60.8124245  70.4759581  50.4950671  60.7585661
  66.7142868  37.4559593   9.1411048  66.4650440  36.5904737   9.4652104
  66.9862223  37.9355621   9.9235797  18.2677111  25.6589603  17.2339308
  17.4260458  25.7880187  16.7967069  18.6727080  24.9302745  16.7635775
  26.9666648  20.6651926   8.3600712  26.3350677  21.0585713   7.7579302
  27.7761674  20.6055522   7.8527474  60.4981232   3.2993132  27.6045108
  61.3735533   2.9635009  27.7970672  59.9057674   2.6919970  28.0478120
   7.2518381  29.3140067  56.4994542   7.2696050  30.1577462  56.0477708
   6.3445576  29.0192498  56.4207355  64.0366323  45.2176993  60.7192038
  63.8193353  46.0265778  60.2558137  64.4677551  45.5101238  61.5222309
  50.9158230  18.8941967  36.2375689  50.5574942  19.6815765  35.8278561
  51.7281675  19.1874671  36.6502690  50.7951355  15.1892459   0.7538712
  51.6119814  15.4771948   0.3463467  50.4279900  15.9835744   1.1417860
  24.0795398  30.8167505   7.6389027  23.4924054  30.0913715   7.8518146
  23.5779476  31.6025472   7.8560734   0.7728562  23.7435699  25.5710101
  -0.0268141  23.5879707  25.0684667   0.7158455  24.6623206  25.8334613
  54.6832609  14.2879522  37.0948792  55.5906725  14.5729804  36.9871998
  54.6314764  13.4648871  36.6089630  35.3593218   8.5282935  59.3224682
  35.7344591   7.6588477  59.1825689  35.7552695   8.8313426  60.1395468
  26.7527366  25.3838587  33.0875540  27.3705220  26.1071181  33.1946421
  26.0393906  25.7532597  32.5670600  59.8428726  63.1556702  13.5861671
  60.0049829  63.9920616  13.1498230  60.2005672  62.4999475  12.9875720
   9.9767417  54.8627043  18.2910657  10.6251073  54.7244310  18.9815259
  10.4868233  55.1696491  17.5415099  17.1431144   7.3500384  61.5276788
  17.9116758   7.8257455  61.2126334  16.5951475   7.2388782  60.7507585
  46.2870891  46.9798832  41.5722726  47.0035131  46.3496225  41.4964984
  46.7198356  47.8131967  41.7581533  33.5184503  26.3903403  38.3488870
  32.8647184  26.0322762  37.7483392  33.5356951  27.3271847  38.1532955
   8.5563120  10.0804627  14.9219894   7.8080401  10.4711199  15.3733385
   9.2096934  10.7793510  14.8923361  75.0575119  11.9180667  25.1970029
  75.3340671  11.9791746  24.2826629  75.7351250  12.3869729  25.6840348
  40.9523058  20.8676028  11.3574898  41.3219404  21.6928196  11.0434532
  40.5065775  20.4991651  10.5947232  43.8092168  66.8900624  28.0786943
  44.0049585  66.4952597  27.2289610  44.0824779  67.8028688  27.9873371
  75.3106880  29.6264482  27.8868842  74.7616673  28.8745975  27.6643300
  75.4951859  30.0454760  27.0462847  35.2695394  32.7946448  35.4065824
  36.1362624  32.7424645  35.8094478  34.7280073  33.2375050  36.0599184
  61.9507153  72.9503088  47.4799381  61.6203840  72.2925906  48.0919181
  61.1669166  73.2926946  47.0502160  62.7906942  13.7938154  17.1634364
  63.6396074  13.3682859  17.2838640  62.5516272  14.1029418  18.0372322
  57.1659374  15.1648068  37.0984221  57.9601049  14.7214377  37.3966694
  57.4656057  16.0291135  36.8166351  44.3154669  13.5559416   5.7550591
  43.5648346  13.2092428   6.2373251  44.0794230  13.4468579   4.8338562
  53.0710316  37.3172593  14.8613155  52.6172400  38.1393766  14.6757758
  52.5424433  36.6483927  14.4260657  51.1389446  22.7150464  39.0049887
  50.1974583  22.6004696  38.8757300  51.4402580  21.8683529  39.3344593
   6.5516441  54.4883935  49.2442094   7.4606769  54.5260219  48.9467619
   6.4301984  55.2945464  49.7458075  34.9630976  66.5971661  20.0042796
  34.5526290  67.1228600  20.6908607  35.0074363  67.1828270  19.2484546
  65.8340120  14.7411907   3.2853410  65.5671263  14.5226133   2.3924647
  65.9631872  13.8936210   3.7109816  54.1331800  15.5434979  58.4024350
  54.0971788  16.4334239  58.7530975  53.2765659  15.1697482  58.6091940
  34.7258735  65.9002686  23.8758731  35.4867721  65.9281015  24.4559503
  34.4703388  66.8168449  23.7718606  19.0032323  67.1804598  27.9942417
  19.6910175  67.7662799  28.3104610  19.0899213  66.3954249  28.5350156
  47.7396996  59.6885042  62.1650319  48.6891182  59.6627550  62.0459959
  47.6053818  60.3026109  62.8868789  36.6671300  10.8579433  42.5972366
  36.1967015  10.0243402  42.5912905  36.2605166  11.3674295  41.8962955
  43.5548639   5.0201857  37.4551606  43.7571049   4.0987447  37.6172638
  42.6028156   5.0746214  37.5380778  11.0181487  22.7124596   2.1024260
  11.2814391  22.6400495   3.0198497  11.4345956  23.5182405   1.7966127
   7.8796228   7.5111331  45.8600746   7.6264270   8.1083287  46.5639780
   8.7018498   7.8696574  45.5259572  50.4554875  61.5256720  63.2839168
  50.6849153  61.2414889  62.3991374  49.5155413  61.3584714  63.3530059
   4.8524778  57.7185779  56.4094488   4.8170821  56.9024377  55.9105544
   4.7637336  57.4452119  57.3224805  45.3038883  13.6010635  16.1311460
  45.6578875  14.2047048  16.7842436  44.9085569  14.1688168  15.4696333
  71.9264777  55.8634107  40.0823615  71.9412883  54.9257891  39.8903249
  71.1692031  55.9783881  40.6564210  70.5232596  69.5459643  39.2697120
  70.2935230  69.0500239  40.0555229  71.1690258  70.1853863  39.5703077
  38.9383292  47.9426861   4.7862625  38.7073851  47.0195436   4.8897347
  39.7659922  47.9300976   4.3055892  20.2483463  41.0369825  -0.0494372
  19.8537171  40.5291462   0.6595072  19.8728669  41.9123554   0.0452270
  53.3417368  45.1465464   2.2157070  53.2908678  45.3723955   1.2869249
  53.4620714  44.1969872   2.2250545  18.4805882  68.6145926  -0.0262612
  19.2031980  67.9935122  -0.1175055  18.7687194  69.2183828   0.6583183
   1.6241534  71.2943940  63.9936805   1.4035662  72.2258286  63.9945708
   2.5128634  71.2590628  63.6398769  18.8355478  16.9786967  63.6345378
  19.5665248  17.5965871  63.6450010  18.2903751  17.2400416  64.3766430
  25.0325584  62.4319363   6.7735589  24.7207046  61.6033697   6.4096069
  24.9939084  62.3066854   7.7217412  36.7738938  34.4123507   4.1899109
  37.1284962  33.8421035   3.5077769  36.0338449  33.9235353   4.5499349
   7.0994361  69.3774525  37.3817849   7.4743923  69.4872371  36.5079498
   7.2443374  68.4545628  37.5903749  56.7046261  15.4873586  31.9814396
  56.7319393  16.4428067  31.9304085  55.8208179  15.2573562  31.6947103
  72.1766710   4.5190278  53.7205172  72.1126461   5.4640740  53.5826015
  72.6732206   4.2000964  52.9668856  68.3420165  50.7083337  47.7524732
  68.6597617  51.2230377  48.4943305  68.2279332  49.8256426  48.1047152
  17.6439285  45.9809875  23.2854033  18.0620003  46.7052794  23.7510777
  17.4794424  46.3241053  22.4070835  57.4114259   3.7722386  57.3901485
  57.7065691   4.6268310  57.0758341  56.7781385   3.4813489  56.7339746
  58.6785412   3.5010502  35.1737952  58.8334465   4.3332666  34.7269702
  58.3720350   2.9123154  34.4841027  52.9352045  15.4208291  26.2560058
  52.5084925  14.5843434  26.4415908  52.3705196  16.0744715  26.6684580
  67.7564669  16.2950957  16.2055886  67.6374769  16.0339141  17.1187460
  68.6018276  16.7439103  16.1930525  58.5756779  47.1501160  11.8093348
  58.1354952  47.2461796  10.9647965  59.2192459  47.8584766  11.8259358
  12.5451207  15.2836454  43.8218880  12.5109458  15.7823730  44.6381807
  11.7194986  14.7997141  43.8021278  10.2975595  19.0528202  26.7580104
  10.5397093  19.9254584  26.4480114  10.9200191  18.8671315  27.4610710
   9.8111017  73.8399057  49.8974178   9.3266435  73.6843781  50.7081841
  10.6442244  74.2139225  50.1842104  53.9437103  15.1618004  30.6628537
  53.5026646  15.7537520  31.2722015  53.2848930  14.4999588  30.4527116
  68.6472479  46.9982241  16.5052654  67.8435627  46.4797424  16.5440609
  68.4752575  47.6566349  15.8321049  20.7825645  58.4073833  12.9740310
  20.8987793  59.3282524  13.2079637  19.8824247  58.2068697  13.2304895
   1.7576083  54.0338436  38.1634998   1.5969952  53.1018034  38.0160666
   2.7086218  54.1026333  38.2476044  57.5570297  14.7048438  56.9271088
  57.9690218  13.8411891  56.9026899  57.4506712  14.8931932  57.8595495
  56.6278975   0.2378549  56.0422544  55.7535779  -0.1218377  56.1919795
  56.6410785   0.4551972  55.1101492  33.0332184  18.3334577   2.2868723
  33.2626247  18.9396930   1.5825409  33.3979106  18.7340975   3.0759975
  55.2302225  65.4758840  63.1604266  55.3948076  65.3270988  64.0915582
  54.2862351  65.3522186  63.0613065  46.0162783  36.1652660   8.9819783
  45.8802032  36.9001317   8.3839089  45.8565712  36.5315914   9.8517662
  19.1466427  38.6821198  12.4848425  18.5958946  38.7608337  13.2637596
  18.5620713  38.3320761  11.8125498  21.8126488  44.3417406  27.4443793
  21.8325591  45.0639963  28.0722213  22.3546600  44.6431732  26.7152739
  60.3100903  34.1549646  48.5784362  60.5465515  34.1780131  49.5056830
  59.6392424  33.4747575  48.5191701  63.8347395  69.0731673  54.9039130
  63.2696159  68.3096700  55.0219802  64.2392595  69.2065840  55.7611142
  58.5822678  64.6092606  39.6257186  58.5413837  64.5933485  38.6695242
  58.9566660  63.7610388  39.8635864  16.2249625  11.0620332   2.4198420
  16.9325662  10.6044686   2.8738937  16.6577744  11.7903769   1.9743957
  50.7343395  56.5233939  60.7163866  51.0806973  57.2234421  60.1630316
  51.4919169  56.2131970  61.2124558  64.8920059   0.6209516  10.6885493
  64.7117615  -0.1853071  11.1719656  65.4384756   1.1379920  11.2803912
  64.2199905  72.4454050  56.2497233  63.4971245  72.0941596  55.7297967
  64.3387277  71.8094616  56.9552086  61.8292847  64.5207357  44.7536945
  62.3098913  64.9316931  44.0351105  61.6050854  65.2455521  45.3373146
   3.2481512  65.4950476   5.1358539   3.3001837  65.0765467   5.9951466
   3.4283099  64.7895384   4.5145413  30.9022689  23.2146597  14.0116274
  31.5809059  22.9172921  14.6176422  30.1996803  23.5350084  14.5772958
  22.4262571   7.9760253  22.9570746  22.9054260   8.6079258  22.4210405
  21.6139054   7.8205138  22.4752736   2.4262938  31.7934012   0.1695278
   2.7372011  30.8891702   0.2134439   1.4784130  31.7157626   0.0611989
  49.9691105  19.6213841  10.8996451  50.0504112  18.7052405  10.6344986
  50.8715677  19.9354959  10.9556758   7.5754580   5.6802040   5.6498998
   7.8587183   6.4650559   6.1189449   6.8779597   5.9862721   5.0701988
  66.2682088  66.2433915  62.3385405  66.4331420  66.2735300  61.3961385
  66.3342078  67.1551089  62.6225212  70.9763861   3.8948169  19.6287417
  71.9026947   3.6645597  19.5569098  70.9736347   4.8459950  19.7359085
  57.9256090   5.5139102  47.8844903  57.4805196   4.8862590  48.4538589
  57.5822958   6.3661469  48.1529365  44.4165977  67.9564938   8.4061325
  43.5868772  67.6619557   8.7816954  44.6578773  68.7213746   8.9286011
  39.1324782  13.6888921  19.1803038  38.9058733  14.4109058  19.7664607
  39.2084146  12.9278862  19.7559226  53.3933735  45.9533691  15.2252328
  53.1523609  46.8362570  15.5056894  54.0341997  46.0902739  14.5274997
  63.2531166  35.3268528   0.1000203  62.4790478  34.9599242   0.5271152
  63.7625265  34.5627594  -0.1699726  61.3255818  70.8840136  62.0966972
  62.0020850  71.1945014  62.6985039  60.7060273  70.4139213  62.6547295
  70.0255284  38.9885163  32.6923990  70.1275143  38.1095791  33.0575061
  70.2545407  38.8919497  31.7680311  58.2514048  53.2346535  12.9435813
  58.6800003  53.8087177  13.5783958  57.3291206  53.2406712  13.1996715
  37.4866319   3.1749097   3.5415542  37.8172231   2.3186803   3.8132390
  36.7446995   2.9750806   2.9707345  72.1631384   9.0003395  37.8522062
  72.2448874   9.0046626  36.8985128  72.6105213   9.7980595  38.1345630
  18.5939519  16.3882308  37.7040957  18.2487456  16.6593652  36.8534802
  18.9351718  15.5065803  37.5541161  20.8851266   7.9119360   5.2892417
  20.3980112   8.5344559   5.8290750  20.2141500   7.3348039   4.9246329
  62.4128945  46.5435951  63.2101775  61.8636234  47.3274569  63.2004945
  63.3066566  46.8783050  63.2836014   5.5458625  64.3698600  17.2514236
   5.2768453  64.3977234  18.1696200   5.5440005  63.4387556  17.0294476
  17.9365508  65.7905440  47.0336924  18.0387561  66.6278582  47.4861227
  17.0679538  65.4828219  47.2926841  26.8888211   3.1161919   1.4634198
  26.3960099   3.0967283   2.2837794  27.2013283   2.2185311   1.3503894
  67.7480935  69.2424119  41.3498783  67.4935972  70.1603213  41.4442444
  67.7530693  69.0911982  40.4047108  22.0196025  69.2322426  35.4023288
  22.3053376  68.3889704  35.0509332  21.5919892  69.0141349  36.2304638
  62.4062586  12.6647007   7.3575836  63.2211304  12.5900471   7.8542179
  62.1252823  13.5696542   7.4930102  68.0992079   2.0045011  34.0907264
  68.6818790   2.5586283  34.6100259  67.5558472   2.6215062  33.6005282
  46.3212354  59.0779190  38.8280008  45.8159454  58.2676368  38.8940046
  46.8875773  58.9457588  38.0677221  63.9207554  25.6080294  25.9490895
  63.9114952  26.5443635  25.7505298  64.7229958  25.2842474  25.5394506
  46.0165548  31.2843823   8.7927437  45.7600117  30.9378600   9.6473432
  46.3891315  32.1448302   8.9852148  63.5287619  66.5234566  34.6064210
  63.5573769  67.1850443  33.9152503  63.2422543  65.7253742  34.1623378
  69.0226793  53.0035973   3.0901837  68.5258055  52.3725414   3.6108711
  69.9080992  52.9684114   3.4521627  27.9642423   7.0416535  46.6820226
  27.0936330   6.6703309  46.5392135  27.8236612   7.9884709  46.6825710
  60.8900435  60.5531006  60.0903778  61.0097988  60.1936464  59.2113535
  61.0804994  61.4863520  59.9955083  47.8330071  25.6559019  58.9328222
  47.1827109  26.2054746  59.3702195  47.7764733  24.8132615  59.3833692
  39.5958471  11.9280493  35.1247668  38.8112354  11.3909698  35.0144863
  39.3630862  12.7736723  34.7413921  12.9022467  10.5598164  22.2265959
  13.6206770  10.7393181  22.8331184  12.3241603  11.3182878  22.3088789
  77.9823191  53.1353359  57.5254045  78.4956010  52.5138669  57.0091192
  78.2342274  52.9592113  58.4319113  47.4863037   3.7463273  56.2622480
  46.6399845   4.0431298  55.9277539  47.5246032   2.8190364  56.0279391
  45.1168346  53.0212307  14.3637359  45.4697323  52.5015593  13.6414933
  44.1732216  52.8633356  14.3337107  68.7318642  56.1896388  45.3403185
  69.4625647  55.5779080  45.2503346  68.9372809  56.6939824  46.1275123
  75.1651812  39.5479536  17.9571414  74.9129105  39.6599603  17.0406020
  74.3778086  39.7751474  18.4517658  29.2526722  46.5556717  18.2663357
  28.7731075  47.1413279  18.8522172  29.0075850  45.6761122  18.5536325
  27.3343754  38.6908197  22.3275042  27.8408241  39.3789458  22.7590442
  27.9469919  37.9603052  22.2421503  64.8508835  57.4458122  37.0164180
  64.6158552  56.6042328  37.4072409  65.4083204  57.8665400  37.6710033
  55.9232537  10.6526073  20.4724979  56.4803139  10.2602562  19.8002040
  56.1485378  10.1818451  21.2749100  69.1685708  60.1144938  60.8014898
  68.3523019  59.7064977  61.0904078  69.1721900  60.9713249  61.2281756
  54.7601557   2.3502015   9.7909266  55.1060057   1.9434856   8.9964443
  54.9821758   3.2770106   9.7016829  26.0283598  17.1394624  61.3153909
  26.9413456  17.4268712  61.3246082  25.9102758  16.7446031  60.4514609
  12.5866986  13.3103165  35.5643058  13.4974719  13.6042007  35.5455732
  12.1169282  14.0145382  36.0110831  47.1806765  55.3233910  22.8551197
  47.8122234  56.0022593  23.0928636  46.8073893  55.6232166  22.0262718
  76.5365458  70.5269051  13.4932184  77.3710251  70.6199932  13.0336463
  75.9633970  71.1742306  13.0824816   2.4304804  21.5753031  26.3684916
   1.7029318  22.1470451  26.1234856   3.0845007  21.7129183  25.6832552
  32.6169157  48.4710121  24.4423723  32.9632759  48.0133200  25.2083898
  33.3570862  48.5194826  23.8373685   0.9130892  10.4814446   9.0503812
   1.7735228  10.6048441   9.4512069   0.7593903   9.5379084   9.0988290
  40.5876923  40.7069445   4.7812703  40.1466560  40.8855247   3.9507127
  40.9330368  39.8196197   4.6831346   4.4243845  65.0051880  49.3274546
   4.4891581  64.4558716  50.1086617   4.2920050  65.8901930  49.6672630
   4.3957648  15.7048583  21.5793586   3.7717661  15.2164829  22.1163392
   4.8810610  16.2424111  22.2052550   7.4042296  22.7504277  10.8462453
   7.0565641  22.6638985  11.7338669   7.0641565  21.9865727  10.3802955
  17.3126586  16.9454802  53.8000212  16.3939270  17.1558227  53.6329220
  17.7685865  17.2129859  53.0020199   1.0469565  54.7541761  49.5034695
   0.5401978  55.5650616  49.5469713   1.2778792  54.6653605  48.5788012
  45.5588627  53.1058168  17.1776366  44.6035576  53.0477762  17.1935797
  45.7862568  53.0579472  16.2490726  65.1839670   1.4869250  61.6067938
  65.8821043   0.8736218  61.3772581  65.6422933   2.2906174  61.8522344
  32.1051200  17.2856082  23.8378809  31.7905792  17.8250350  23.1124066
  32.9046758  16.8784369  23.5044811  50.9726509   5.9122266  32.2396420
  50.7993921   5.0620784  32.6439522  50.2889522   6.0057582  31.5762876
  71.8122149  29.8940730  20.6209397  71.6544151  29.9490929  19.6784401
  70.9685850  30.1104379  21.0180640   9.5739858  72.8524308  55.7495712
   9.0631311  73.4299641  56.3167707  10.2373426  72.4749212  56.3272200
  28.9637733   7.0041096  16.3836122  28.9800000   7.7846122  15.8297324
  29.8137927   7.0050234  16.8237221  34.8262008  18.0900659  49.9714397
  34.7357877  18.1231631  50.9237860  34.6199974  17.1837796  49.7426246
  42.5770426   3.9824009  15.9218788  41.7430496   4.3933943  16.1494088
  42.3585749   3.0619252  15.7761800  16.0716105  14.3068871  62.8305769
  16.8042613  14.1793999  63.4332371  16.1484910  13.5870060  62.2044134
  57.3227262  49.1374874   5.9420317  57.9523754  49.7802258   5.6154346
  57.0320749  49.4924164   6.7821372  58.9064741  49.6474981  18.8566637
  58.9086533  49.8484039  19.7925401  58.2397747  48.9676142  18.7591994
  64.0896320  38.7251377  41.4808035  63.7672853  37.8666139  41.2064743
  64.0948963  39.2466712  40.6781816  12.5231012  17.0789565  45.8216832
  12.2162541  17.9842843  45.7721267  13.4635910  17.1533431  45.9834717
  32.0696998  32.0349526  24.4023108  32.4783516  31.9457555  25.2632856
  31.1705613  32.3038554  24.5906568  59.7517920  34.7499871  38.8846707
  59.9603128  35.4587340  39.4933009  59.4652462  35.1954794  38.0873871
  65.3932190  37.5560856  33.8275909  64.6317434  37.3084664  33.3031201
  65.4054022  38.5126662  33.7953973  42.1985483  28.6224484   9.6857411
  42.7636576  28.8785625  10.4146338  41.3111448  28.6752605  10.0406551
   5.9829360  55.8924150  43.8736534   6.4981616  56.0008574  44.6730375
   5.1130974  55.6383324  44.1819620  27.1222043  35.4383945   2.5666490
  26.6858697  34.6286035   2.8313738  27.2830081  35.9032917   3.3877742
  30.3680778  20.0987649   9.6689975  29.7342300  20.7986379   9.8259830
  31.0836577  20.5250549   9.1973466   7.8809771  41.6031885  13.8459134
   7.5097975  41.9683886  14.6490860   7.3218188  41.9432974  13.1474125
  14.2557368  11.9101560   8.2577920  14.2044482  10.9813750   8.4835488
  13.5241255  12.0513463   7.6569170  59.1946125  33.4357333   6.3719535
  59.6394920  32.6605129   6.7145157  58.7934971  33.8410139   7.1407747
  23.3177614  60.1819468  19.7486973  23.3364153  59.2457151  19.5503318
  24.2327023  60.4572630  19.6910727  73.9622807  15.7905711  51.6089009
  73.4241437  16.4154281  51.1229048  74.7138047  16.3028897  51.9071816
  34.0637565  56.3820219  20.0879121  33.4592867  56.0229206  19.4383764
  33.7691236  56.0115480  20.9198809  67.9218149  16.7972302   5.5033594
  67.0005083  16.6474080   5.2912724  68.2115984  17.4490368   4.8650745
  62.3753548  38.6044073  34.4362688  62.6417398  38.3147860  33.5636926
  61.9045210  37.8563166  34.8035693  60.8617544  58.8518238  11.2268627
  60.9735775  58.4606552  10.3604245  61.1495876  58.1716108  11.8357074
  41.3357401  66.7244053   0.3268247  40.6374502  66.0899973   0.4885279
  42.0950651  66.1904573   0.0932445   1.6216437  57.5234656  22.0615147
   0.8584182  57.1762280  22.5231980   1.4953296  58.4722571  22.0697258
  30.0178083  16.8841399  63.1164493  30.7788595  16.4342631  63.4833855
  29.4552358  17.0576467  63.8711942  68.5807402  67.3916869  43.0646465
  68.2580741  67.5083785  43.9582370  68.1017287  68.0414562  42.5502704
  50.6003603   1.7715229  53.6463247  50.9970935   2.1271361  52.8511034
  50.7040247   2.4659695  54.2968862  54.0553617  45.0343513  23.9487076
  54.5446825  44.4277763  24.5044637  54.2923975  44.7850990  23.0554438
  61.0502195  35.2159786  17.7491987  60.1388073  35.0629067  17.4999392
  61.1913204  36.1476398  17.5808775  62.3100217  23.9297713  63.8753164
  62.8416093  23.5991324  64.5994221  62.8934702  23.9005746  63.1170506
   1.5491120  65.8883386  60.0494779   1.0867374  65.1553731  59.6430216
   1.6925637  65.6091742  60.9537564  35.9300160  57.3550987  25.5930519
  35.7157254  57.1439219  24.6843624  35.1094007  57.6802826  25.9632969
   8.8362536  58.6078835  10.8094752   8.7953982  58.2653093  11.7023373
   9.4021162  57.9929686  10.3426635  28.2170709  56.7983035   5.4499233
  28.2429632  56.1738888   4.7248945  29.0000566  57.3359254   5.3310847
  78.0188020  48.9069180  35.4339979  78.5447152  49.5295696  34.9320481
  78.6296065  48.2057242  35.6608890  72.0728719  28.1677855  62.8109148
  72.6008438  28.9611186  62.9009063  72.1934771  27.7045096  63.6398080
  71.3634348  42.5789928   9.1888028  70.6176519  42.0319319   8.9422911
  70.9822226  43.4397936   9.3618208  38.9151621  22.3913574  22.1824193
  37.9614305  22.3655653  22.1052146  39.1845655  21.4743328  22.1302462
  55.4255009  40.9488487  13.8816988  54.9531603  41.7100668  14.2188549
  55.5435562  40.3829956  14.6446586  61.8029928  31.3867188  33.1562591
  61.8185520  30.4378247  33.2811165  61.0361099  31.6804624  33.6480331
  59.5853996  18.0804229  26.6921139  58.8596010  17.5928664  27.0816493
  59.9184513  17.5048053  26.0036564  57.0004892  43.0096340  15.6928575
  56.4854240  43.5868645  16.2565410  56.4710999  42.9131269  14.9012363
  70.8356047  45.7670259  28.1131077  70.1017904  46.1444044  28.5982180
  71.0599184  46.4321947  27.4623704  53.9720535  48.4948826  17.2327495
  53.6612654  47.8110409  17.8260481  54.5988464  48.9970684  17.7534878
  71.3199663   6.3785207  10.0332510  71.9247961   5.6864226   9.7660106
  71.6910648   7.1781200   9.6602088  46.5098190  24.8634267  14.8716235
  46.7045689  24.7276402  13.9443338  45.9514189  24.1234159  15.1099479
  36.7303109   1.9319095   8.8451916  37.4290419   1.9403784   8.1910253
  36.6668677   2.8404802   9.1396505  77.4607277  54.6644878  16.1520815
  77.2224283  53.8634491  15.6854069  77.9115438  54.3581581  16.9389462
  54.1534472  26.5829420  39.4796491  53.9521694  26.7846537  40.3934526
  53.4097052  26.0599542  39.1803861   6.6149145  16.5313077   8.3891439
   7.3257226  16.8573904   8.9410985   6.5704829  15.5952096   8.5840273
  55.1947355  38.9393592  15.7895780  54.7850990  38.1747103  15.3849280
  54.5441723  39.2560911  16.4162159  70.9297323  45.4347706  22.3117876
  71.4965868  46.2057495  22.2895193  70.6519270  45.3680420  23.2253551
  21.0290846  33.5053062   0.2099201  21.3733897  33.9335775  -0.5738315
  21.7405829  33.5647202   0.8474706  11.4138329  27.8734183  18.1191981
  11.1913836  27.1513629  18.7068903  12.2910655  27.6611781  17.8003740
  53.3167171  52.1497869  11.9063127  52.6478338  51.6094017  12.3267949
  54.0678549  51.5652323  11.8047142  70.1668485   8.6900653  59.8815451
  69.5024427   8.0092896  59.7750030  70.9108575   8.3816709  59.3642689
  30.5027556  66.8588305  19.1648757  30.9712863  67.6677227  19.3707943
  31.1677217  66.2883854  18.7793255  13.4015116  28.9284396  35.7866335
  12.5395808  28.5431433  35.9443259  13.8129553  28.9565754  36.6504335
  62.9948235  44.9327183  11.3676786  63.6688185  44.4779301  10.8625710
  62.6336384  45.5773401  10.7592082  22.5501108  53.4330225  13.7966394
  21.6685057  53.1102133  13.6100984  23.1289101  52.7230835  13.5187733
   6.3717318   3.3475193   6.7320454   6.7296220   4.1500792   6.3525105
   6.6533423   3.3687958   7.6466364  56.9303560  39.5137501  22.9055929
  57.4606705  39.5060468  23.7024236  56.0262060  39.4987607  23.2194710
  45.1225901  16.3383687  11.3221240  45.4060793  15.8155751  10.5720878
  44.8141193  17.1594644  10.9388769  18.2009284  54.1491811  54.7922675
  17.7256982  54.9113636  54.4614134  17.7099340  53.3978467  54.4596205
  19.5054755  49.0437746   8.9892977  20.2473769  48.5210228   9.2934930
  19.8262629  49.4775009   8.1985968   7.2078236  18.4567346  35.8061646
   6.3822945  18.8670100  35.5484651   6.9457801  17.7000417  36.3305495
  32.2255485  66.0342221  57.2051124  31.8320243  66.9038706  57.2764192
  31.4920966  65.4295044  57.3173187  68.5024691  42.5585699  22.7578044
  68.6106157  43.2715607  23.3872342  69.2910767  42.5952435  22.2165275
  68.6171738   2.6922497  44.0890169  68.5672299   3.6480698  44.0770626
  67.7645651   2.4037632  43.7633514  39.7012313   3.0755938  50.7114397
  40.4356035   2.8836311  50.1282762  40.1009592   3.5098924  51.4649854
  57.5588083  19.8473036  29.3075061  57.3585081  20.4246211  28.5707450
  57.5386333  18.9662933  28.9338136  65.4139042  33.7413645  30.7065892
  65.7247543  32.9611874  31.1658597  64.4629765  33.7194347  30.8137774
  72.1687762  19.4749626   4.7415939  72.1999422  18.6909088   5.2897811
  73.0472294  19.5404419   4.3670759  73.8976669  58.7707567   6.3459146
  73.2913017  58.1725168   5.9092617  74.6807480  58.2438850   6.5053606
   3.6590800  21.6265869  10.6938887   4.5534167  21.2956142  10.6110859
   3.5308584  22.1677089   9.9147999  22.0568149  58.6209636  55.9305934
  21.6713016  59.4686656  55.7091997  22.9958360  58.7404470  55.7885067
  53.0655146  48.6759377  14.7832322  52.5620651  49.4633579  14.5764935
  53.2161808  48.7289047  15.7270157  14.5537107  73.4749393  50.1969300
  13.6469047  73.2721977  49.9670897  14.5107858  73.7646227  51.1082326
  73.2347488  29.2729855   4.2926654  72.8300762  28.4527564   4.0103552
  72.8384590  29.4547105   5.1448172   8.0895154  69.5750122  60.3475781
   8.8901965  70.0941281  60.4228072   7.7110784  69.8386221  59.5088126
  17.8956287  36.7482980  53.0566476  18.5271375  37.0148986  53.7247430
  18.2538430  35.9358517  52.6990948  56.3329458  50.6737947   8.1702197
  56.7245865  51.4305878   8.6062419  55.3966427  50.8708906   8.1433260
  70.4966767  64.3586712  60.2563791  71.0335667  65.0831036  60.5775882
  69.9960311  64.7343450  59.5321844  49.5151933   8.9470519  54.7123264
  50.1421341   8.9985694  53.9908527  49.6970972   8.1042136  55.1279770
  11.1456141   6.7045611  27.7605176  10.1980814   6.7674357  27.8808093
  11.3336405   5.7682401  27.8251576  44.5240387   3.1248893  41.4480708
  45.0843748   3.8928498  41.3362811  44.2594131   2.8899754  40.5586765
  61.6358995  39.7071695   2.2111721  61.5199041  38.8752055   1.7522478
  60.8791447  39.7665930   2.7942866  53.0605268  33.1077290   2.4880591
  53.8897514  32.6741576   2.6896262  53.2355547  33.5977387   1.6846363
  61.3587761  19.1221774   5.3335190  61.6533661  18.3964682   5.8837873
  61.4511633  19.8964930   5.8886153  74.0463400  53.3490944  16.7998481
  74.1544294  52.9732990  15.9261632  73.7930298  54.2582035  16.6398811
  49.7310670   5.5051078  48.4250329  49.5059522   4.7521819  47.8785322
  49.0863880   6.1726273  48.1904362  34.7855346  56.7522614  58.7001692
  33.8644187  56.9228034  58.8968383  34.8006408  55.8466809  58.3904467
  18.1519636  71.2304688   3.6692232  19.0906462  71.4174604   3.6812621
  18.0570635  70.4460382   4.2094952   6.8182215  36.4246321  28.3635712
   7.1544585  37.2268367  27.9640150   6.7459235  35.8067894  27.6360583
  52.7912506  63.1258098  44.8442602  53.3343061  63.7823525  44.4080591
  53.1389936  62.2872773  44.5406675  75.2413130   9.9997872  34.8412108
  75.0078106   9.8037398  33.9338660  76.0769320  10.4624772  34.7788668
   8.1428656  36.9492769   8.9329445   7.7346072  37.6093698   8.3727336
   7.4067911  36.4843607   9.3307906  61.2269020  39.6420646  24.0121770
  61.2468529  40.5476522  23.7027550  61.8420076  39.1805887  23.4421587
  20.0993665   2.6746096  54.7321526  19.9657329   2.2968210  55.6014339
  19.3328937   3.2306422  54.5922379  66.9455516  41.7731990  58.4362302
  66.2217139  42.3394526  58.7039040  67.6087879  42.3754729  58.0991600
   2.9760870  33.1682158  23.0503750   2.2287592  33.6616492  23.3883905
   3.5744414  33.8374138  22.7181578  35.3552035   6.3881287  10.8043158
  34.4960419   6.7268642  10.5526590  35.9545813   7.1188625  10.6526113
   9.8674139  13.1647052  41.9936917   9.8289712  14.0690268  42.3050664
   9.1161974  13.0814923  41.4063404   5.0565562  57.6311398  39.8847079
   5.3801951  57.7220297  38.9884758   5.6836733  57.0444298  40.3074741
  52.5485277  60.1843071  20.4324365  52.5492907  59.3882513  19.9009037
  51.8268585  60.7060146  20.0813818  54.0214571  11.6795052  59.8876892
  54.0672716  11.1269177  60.6679342  53.3757146  11.2493552  59.3271334
  18.5836422  27.7401018   5.0041461  17.9748368  27.0728970   5.3210431
  18.8298666  28.2313108   5.7879323  19.4981321  21.5984954  58.6024652
  19.3697723  22.3928822  59.1208328  20.3463968  21.7244376  58.1772367
  22.0837912  52.8981066  19.8872042  22.2044691  51.9630861  20.0527716
  21.3779578  52.9379368  19.2418861  65.3361034  56.8433094   9.7834116
  65.9410143  56.2463617   9.3429899  65.8409595  57.1996164  10.5144346
   2.7754974  12.7376485  12.8308558   3.2178521  13.3378720  12.2306168
   2.2031437  13.2997310  13.3530676  35.7765841  14.3302536   6.3690603
  35.6325316  13.5052121   6.8325120  36.6986394  14.5346487   6.5248454
  53.7731934  20.4092312   6.7938441  53.8613653  19.5137691   7.1203470
  52.8743601  20.6561208   7.0115125  49.5453882  65.4702806  20.6285000
  50.4453039  65.7280254  20.4286218  49.2606211  64.9779987  19.8585653
  76.3698959  55.0964785  56.2430239  76.7904663  54.2489338  56.0980368
  77.0625114  55.6485939  56.6059113  51.6040453  16.5474690  42.7828310
  51.3073667  17.0541657  43.5387896  51.1680015  16.9556464  42.0348428
  77.1507692  34.4929504  40.3840017  76.2859631  34.7386026  40.0553703
  77.0769262  33.5583997  40.5773735  16.1655840  67.4716905   4.2896545
  16.3490089  68.3171907   4.6991873  15.5160268  67.0640061   4.8624551
  67.9601812  71.5756750   3.0578601  67.7503872  72.5090742   3.0892587
  67.1510553  71.1581278   2.7625656   5.8869108  13.7488055   7.6968688
   6.6646227  13.2806683   8.0005747   5.8049616  13.5043597   6.7750430
   9.9295346  62.9830031  51.3235353  10.7579486  62.9275422  50.8472131
   9.4845073  63.7400751  50.9427164  69.0736707  18.7810697  61.4921222
  68.1514486  18.6355008  61.2810747  69.0820249  18.9329661  62.4371569
  53.7698364  27.2684169  45.1421499  53.1197882  27.6110172  45.7555771
  54.0652227  26.4490080  45.5390692  55.0469875  45.0222540  12.7676117
  55.1221704  45.9245634  12.4570942  55.7209301  44.5453405  12.2832751
  53.0147314  31.5807033  13.4485006  52.3869181  31.2120032  12.8270996
  52.5220251  31.6658378  14.2647243  46.8038877  13.7353648  51.1730657
  47.3441013  14.2036761  50.5366002  46.9647440  14.1865529  52.0017908
  73.6783600  56.4909601  23.4630919  74.5502090  56.8549776  23.3094740
  73.2329226  57.1517658  23.9933348  33.2024924  69.4334631  46.4839659
  33.0475394  70.3611903  46.6615735  32.4214904  68.9920049  46.8176983
  28.8357004  60.5409721  12.2491121  28.4093984  60.3725830  13.0894339
  28.1380685  60.4383353  11.6018033  27.5905355  13.8107099  43.4779094
  27.6624044  13.6725129  42.5334690  27.9329666  14.6935882  43.6175249
  55.3531154  49.5153384  46.3273535  54.8597057  48.9389472  45.7437859
  56.2059148  49.6121280  45.9035657  18.6248124  52.5935984  20.6300688
  19.2295671  52.7976847  21.3434076  17.7746844  52.9056644  20.9401155
  25.0687488   7.5966157  54.6401994  25.1335224   7.8754415  53.7268041
  25.8810695   7.1169700  54.8023842   9.6780451   8.0958213  52.9648922
   9.0125593   8.5700740  53.4633337  10.2747210   8.7766017  52.6538430
   8.4237704  65.9018660  39.6355653   9.3686232  65.9614086  39.4943953
   8.2773909  64.9925661  39.8963022  19.8213355  55.3890233  56.7564331
  19.3324296  54.9709802  57.4652646  19.3762176  55.1045375  55.9582047
  67.4072981  41.4412403  26.5372348  67.8104258  42.1827984  26.9886875
  66.5214062  41.7393017  26.3308716  63.9274263  57.4525499   5.5434191
  64.1863871  57.9210520   6.3369399  63.4443283  58.0999804   5.0299138
  14.1049704  37.1959710  22.3215032  13.4659609  37.8675246  22.5600600
  13.9874586  36.5094995  22.9781437  24.8465221  73.8095980  42.5631068
  24.7822730  73.3006124  43.3712147  25.0740354  73.1659822  41.8921159
  60.6127024  51.1207962   1.9214216  61.1493206  51.5148211   2.6091847
  61.2046576  51.0377073   1.1738145  69.0573406  31.1613035   1.2138934
  69.7537756  30.9970021   1.8496741  69.4682550  31.0068989   0.3632808
  67.7965768  16.3296021  48.6588095  67.4590047  16.0197534  49.4992076
  67.0311292  16.3451613  48.0842803   4.4914469  12.8534281  15.1152515
   3.8284144  12.8294301  14.4252908   3.9954790  12.7522933  15.9276652
  51.1836990   1.8915523  38.4969495  51.8013795   2.5319327  38.1439470
  51.4735445   1.7508210  39.3982886  39.2030978  51.2198353   0.4576094
  38.2750463  51.4289761   0.5634880  39.3442726  51.2293577  -0.4890747
  77.2369623  14.4161010  23.7720466  78.1150436  14.5299911  23.4084129
  76.8796396  13.6618090  23.3034348  46.7436393   2.0477976  63.6124293
  47.2606405   1.6395844  64.3069104  46.3650497   2.8259529  64.0215464
  67.4799871  54.4923401  14.3428147  67.4654818  54.8819160  15.2170289
  68.4095526  54.3674326  14.1516566  25.7628775  35.5084109  26.4845443
  26.5652299  36.0048676  26.6457725  26.0666156  34.6298146  26.2564087
  74.9743891  29.1038251   1.6814892  75.3153610  29.9619937   1.4294639
  74.4529438  29.2742229   2.4658963  57.1835264  22.4880160  48.9135550
  56.4362081  22.0446385  49.3150125  57.8892644  21.8420161  48.9427660
  74.1734616   3.6918386  33.7532854  74.2297951   2.9034885  33.2133150
  73.5164658   3.4812435  34.4167876  57.1313620  63.8324308  14.3411779
  58.0862808  63.7925243  14.2885065  56.9551516  64.2444420  15.1870084
  14.9785551  55.3131104  37.1238256  14.2146239  54.7364664  37.1351290
  15.5400309  54.9533844  36.4371157  75.0780424  38.5978784  58.6787222
  74.9921640  38.0055989  59.4257594  74.1874822  38.6854733  58.3389090
  73.5425997  24.7514057   0.3133048  74.1700029  24.2239642   0.8076739
  72.9962301  24.1101789  -0.1411637  71.5687180  18.4813368  31.9648504
  71.8671322  17.6077580  31.7117858  70.8106852  18.6471903  31.4043951
  69.6599245  53.3833408  23.0559134  70.0578499  52.6542568  22.5801826
  70.3643703  54.0255499  23.1428385  53.9851046  48.1435966  27.3118567
  53.8299322  48.3264160  28.2385349  54.0104532  49.0065479  26.8984532
  73.6509085   9.4157219  32.2629809  73.5897160   8.7074482  31.6220164
  73.1973124   9.0792227  33.0358028  73.1708273  55.4970492  43.8925431
  72.4224504  55.1060142  44.3433796  73.0834707  56.4365043  44.0538428
  18.5266146  35.3023052  24.7526288  19.4329771  35.5965424  24.6622372
  18.0054316  36.0150385  24.3830276  32.3135694   4.2648543  56.1755650
  32.2355732   5.1562537  56.5154998  31.4216980   3.9185132  56.2047080
  75.2114391  38.9067030  38.2404017  75.6678772  38.2610035  37.7009869
  74.9382639  38.4193540  39.0176392  52.6805258  69.7239304  14.7005808
  53.2276249  69.7434330  13.9153826  52.8606367  68.8714409  15.0968802
  75.4031324  13.4532487  35.8110523  75.3530407  13.2787633  36.7508817
  75.8885717  12.7091420  35.4548383  75.8373419  27.7924618  16.9358003
  75.8494679  26.8774303  16.6551018  75.0568787  27.8641018  17.4853230
  24.0445615  17.9924664  14.7194266  24.4742203  18.1572708  15.5587518
  23.9909220  18.8534817  14.3046772  20.6667376  57.0137310  19.0952992
  19.7383142  56.9124794  19.3050814  21.1016750  57.0544815  19.9470031
  66.6088724  33.6163950   4.9905363  65.6842709  33.4754825   4.7868359
  66.6120148  34.3704820   5.5800909  43.4423590  49.2459631  17.9496753
  43.4411001  50.1914644  17.8004706  44.3689251  49.0058470  17.9568040
  15.7397589  33.4467220  15.4936564  16.1881289  32.7040601  15.0891221
  15.2040991  33.0559731  16.1840332  54.3862534  24.5468029  24.9233937
  54.5084000  24.7082123  25.8589458  53.6218072  25.0723537  24.6874785
   1.5690375  -0.2303616  35.3468800   2.4161578  -0.0889507  35.7695174
   1.4464951   0.5401024  34.7922587  48.2807398  48.4408379  22.7543235
  48.3059835  49.3614292  23.0152965  47.3741722  48.2929993  22.4850440
  68.8274431  72.2104120  27.3263121  69.0506315  71.2806225  27.2826123
  69.5559263  72.6523542  26.8901587  34.0264989   1.4461693  35.0951600
  34.1898061   0.5705532  34.7446561  33.1156159   1.6300329  34.8655248
   6.9548091  17.1939458  42.5829623   6.4754947  16.3810052  42.7430127
   6.5218576  17.5814713  41.8222998  23.0982463  28.1627793   8.3015444
  23.5097806  27.6630206   9.0066101  23.1700484  27.5965543   7.5331261
  71.1815453  28.4201980  17.5714540  70.5176306  28.2220244  16.9110155
  70.9387684  27.8812718  18.3243489  47.8453064  47.0372534  19.5745325
  47.8498602  46.1487818  19.2184079  48.7687874  47.2403574  19.7233999
  16.4756919  16.7663940  42.7603436  15.7118417  16.4284691  42.2928238
  16.4449597  16.3337406  43.6136341  66.5616417  65.3123045   8.9848238
  66.0405588  65.4952145   8.2029980  66.0308313  64.6941948   9.4872344
  61.7065144  46.9576931   9.8052019  61.7719555  47.6131773   9.1107285
  61.6209841  47.4690056  10.6098640  17.3396476  25.3491630  63.7946474
  17.6600822  24.9435986  64.6002970  16.4672407  24.9758233  63.6691268
  74.9427319  70.8758259  18.6434877  74.3239975  71.3140488  18.0592251
  74.6054459  71.0484123  19.5225120  34.1607095   8.1859287  20.2442551
  33.9331818   9.0603909  19.9283624  33.3205128   7.7865967  20.4697371
   5.8774313  64.9874783  57.2234297   5.2358755  65.4600096  56.6930056
   6.6839728  65.4948044  57.1320820  72.4196386  30.3805208  10.2222955
  71.8574619  30.1831198  10.9714448  72.2097731  31.2870049   9.9976385
   5.1345286  64.8160839  32.6923847   4.1869482  64.6829367  32.7167606
   5.5018839  63.9340210  32.7493811   0.3864098   7.6552948   2.4947396
  -0.2032089   7.1648106   3.0674556   0.5163384   8.4906658   2.9436299
  65.2094316  28.7324500   2.0724574  64.4415188  28.5913992   2.6262146
  65.0073528  29.5286179   1.5810181  45.1189519   6.4426693  19.6323669
  45.4902268   6.6427311  20.4916477  44.8948289   7.2970280  19.2634892
  48.3717521  49.1147892  49.8277424  48.0192454  48.2339947  49.9549089
  48.0572326  49.3759959  48.9622484  66.7569256   9.4639128   1.2249104
  66.3315582   8.6779386   0.8820656  67.4532843   9.6530694   0.5959989
  34.0377141  20.8643707  19.5912182  34.7173501  20.9070286  18.9185297
  33.9154816  19.9282440  19.7491693  74.1808558  39.8502588  15.4668629
  73.4294415  40.4403019  15.4080558  74.4638634  39.7317505  14.5601702
  12.9235968  20.9316278  11.8588614  12.8688368  21.4753747  12.6447189
  12.1039233  21.0994530  11.3938904  23.3651416  67.4292879  54.0420244
  24.0001075  67.4365168  54.7582660  22.8381745  68.2161670  54.1811625
  63.7443686  13.4913170  14.0834808  63.2320070  13.3978629  14.8865902
  64.6217346  13.7267983  14.3851507  73.2888316  29.6219624  56.3510667
  73.9114069  30.2166451  56.7693840  73.2670759  29.9027432  55.4362331
  27.2178126  15.7014164  12.0099151  26.8825198  16.0245976  12.8461981
  27.9137517  16.3160500  11.7772758  63.0994749  36.0441160  40.6845760
  63.5330486  35.2300048  40.4287100  62.8770161  36.4677954  39.8555779
   2.9952010  37.0139111  55.6763731   3.7191566  36.3983716  55.7913957
   3.2205161  37.5035514  54.8853509  63.1998666  23.0192889  25.5670498
  63.8964590  22.6203002  26.0883926  63.4008153  23.9551248  25.5750058
   2.8148811  69.2150502  57.1704255   1.9304483  68.8795285  57.3168371
   3.3356397  68.8341861  57.8775219   8.1191556  44.1575591  31.8518232
   7.9873149  43.7061267  32.6855252   8.7429969  44.8550658  32.0531748
  72.9971647  26.6333628  25.4608583  72.2665024  26.0819817  25.7407594
  73.4046078  26.9235182  26.2769651   1.6169104  36.2090039  16.9154155
   1.4985976  35.7674074  17.7563834   1.0201678  35.7549882  16.3204396
  72.5018167  17.1692742  53.4837554  73.1282114  16.4478673  53.5423063
  72.7247881  17.6143207  52.6661668  17.9612288  64.8522854  37.1133471
  17.0203718  64.8200464  36.9401884  18.2048449  63.9423037  37.2831011
  76.5642834  60.5871248   3.7015578  77.2862244  61.1390877   4.0021729
  75.7759142  61.0393238   4.0019363  64.3728352  66.7229366  29.9538136
  65.1811600  66.2763405  29.7020292  64.1902733  67.3165178  29.2254138
   8.3524943   2.8359589  13.4626889   8.9934827   3.3575567  13.9457071
   8.6031628   2.9385551  12.5446081  16.7436823  33.9504123  23.5367775
  17.5398287  34.4644237  23.6716223  16.8239722  33.6141992  22.6441717
   0.8946785  66.7788315  43.0447435   1.6424498  67.3034143  42.7585936
   1.2409004  66.2336588  43.7512493  12.8457674  56.2111855  40.0976610
  12.5101122  55.8519316  40.9189463  13.1335196  55.4451609  39.6010351
  35.2054858  55.8336258   7.4509263  35.0812769  56.5031099   6.7781740
  35.1820588  55.0053263   6.9717568  69.3378210  67.7442360  12.7522874
  69.0311909  66.8994236  12.4229038  68.6908293  68.3742094  12.4348497
  75.8023167  50.3894711   3.8926378  75.6995296  51.0417986   3.1997186
  75.3629875  50.7743406   4.6509898  21.0317659  68.5449123  38.2078362
  20.9313607  69.1943407  38.9038181  20.9754491  67.7016211  38.6571908
  34.9428559  -0.1320044  17.8087032  34.9193574   0.7900557  18.0646002
  34.4076920  -0.5767075  18.4660196  43.0325794  29.4071722   0.5150571
  43.9592886  29.4393849   0.7525574  42.7736425  28.5010934   0.6830026
  50.4736122  58.9201011  62.1806836  50.8758243  59.2791118  61.3897516
  50.5270704  57.9711760  62.0670116  56.8078375  65.2785540  16.6981900
  57.4757147  65.9557486  16.5905821  56.5857077  65.3069639  17.6288247
  75.6431437  72.2849035  21.2967944  76.3416529  71.8602228  21.7947578
  75.7205534  73.2127094  21.5190864  49.0695047  44.4051743   5.9813231
  48.4714270  44.7355223   5.3109467  49.3265009  45.1825905   6.4771199
  14.3315221   0.2386173  36.8984056  13.6709691  -0.2034536  36.3650441
  15.0578261   0.3988966  36.2958932  59.8616838  51.0405016  29.1886139
  60.1468706  51.7637110  28.6301661  59.0234756  50.7665634  28.8163257
  64.8879576  43.5668468  58.7900925  64.4879436  43.6585808  57.9253340
  64.6579552  44.3756771  59.2473984  60.3840542  42.3542929  18.6623991
  60.3896666  43.1139183  19.2447793  61.0373878  42.5602198  17.9938340
  67.8661362   0.9872707  22.6182294  67.1059624   1.5657219  22.5568795
  68.5103909   1.3747486  22.0257473  66.4245701  53.6748934  21.4688540
  65.6967163  54.0213203  20.9526730  67.1167183  54.3295860  21.3764095
  51.4880943  66.7396402  31.8510461  50.9223175  66.0641956  32.2250819
  52.3519135  66.5614176  32.2229099  58.9449453  57.0855236  33.0495572
  58.6079884  57.7048445  33.6969614  58.1696272  56.6174889  32.7396345
  50.1757701  13.3138360  53.4502862  49.7778543  12.4439467  53.4846364
  50.1464542  13.6265029  54.3545054  57.0956087  64.0726185  49.1909981
  56.2751198  64.0424442  49.6830511  57.7732229  63.8986683  49.8443031
  53.6005243  25.4083814  56.2155245  53.6968692  24.7855176  56.9359360
  54.1905340  25.0819386  55.5361448  67.9647112  35.2604723  52.2188091
  67.1171093  35.2555633  52.6635265  67.9618931  36.0692477  51.7068434
  53.9264099   1.4617571  22.2003675  54.2690054   1.7216095  21.3451862
  53.1962744   0.8767304  21.9981861  10.2092656  15.8359183  50.4945419
  10.0509389  14.8922671  50.5208300  10.6040295  15.9887208  49.6360300
  11.2857724   8.5237965  33.7915850  10.9117175   8.3337959  32.9312277
  11.2853003   9.4793781  33.8472342  48.1237364  50.3427219  14.3332362
  48.2719946  51.2830448  14.4334579  48.7076426  50.0827932  13.6206925
  45.4912456  16.7558707  54.5588915  45.9820922  16.3162412  53.8646064
  45.5013069  16.1363496  55.2884994  66.5879250  41.1872625  10.1785541
  66.5840101  41.1274338  11.1338735  66.1958981  42.0399857   9.9903703
  59.1964991  58.2589321  52.8365777  59.6754153  58.9360504  52.3586844
  59.8364575  57.5589542  52.9658554   5.9873041  33.1170893  30.3339291
   6.7308077  33.5242581  29.8893571   5.2422461  33.2842922  29.7567225
   9.1479930  26.9248237  55.6815873   9.5880564  27.5100316  55.0650619
   9.8445138  26.6242970  56.2653480  26.4296889  58.3303070   8.0874783
  27.0371628  57.8421736   7.5316608  25.7663250  58.6628914   7.4828553
  75.3119373  43.4934807  47.3409605  75.8865547  44.1496849  47.7352238
  74.5787859  43.9979076  46.9884348  65.4841280  35.5466938  26.0640478
  65.6069326  34.8254275  26.6812396  66.3707113  35.8548188  25.8762646
  30.3865561  53.1662846   7.5954187  31.3330588  53.3036661   7.6339638
  30.2719530  52.2345734   7.7825558  62.1666495   4.4204268  24.8332524
  61.4147607   4.5181116  25.4175067  61.9426385   4.9453434  24.0648031
  48.9860106  64.3313217  12.8971529  49.5192671  63.6077785  12.5679851
  49.1945648  65.0649881  12.3188186  50.1764011  61.4597797  38.9612675
  50.2072334  61.1430502  38.0585122  49.7843981  62.3306084  38.8963103
  31.3217895  10.2711148  10.7511236  31.6598289  11.1403365  10.5356838
  30.5665891  10.4406447  11.3142969  39.6884330  15.5206622  64.2317555
  39.5793899  16.2380160  63.6074582  40.4773792  15.0652255  63.9378648
  32.3174954  15.4200443  14.5699358  31.9433594  14.6568760  15.0101936
  32.0606423  15.3177151  13.6535370  35.2317095  60.0371838   4.3769202
  34.3604827  60.2802801   4.6901307  35.2398515  60.3066349   3.4584641
  58.6141968  57.7072954  40.7389545  58.3506536  57.3436785  41.5842676
  58.5271215  56.9769192  40.1264191  24.7318634   6.5179051  40.2665256
  25.1221355   5.8885325  40.8729981  25.0909170   7.3635997  40.5350779
  63.9033731  14.1251077  30.6473158  63.5776075  14.2600860  29.7574328
  63.7874731  13.1881703  30.8052586   0.6683955  32.2100949  12.2684860
   0.6194100  31.3807130  11.7931354   0.8175644  32.8672981  11.5887344
  19.5029641   1.4870199  25.7709312  19.9859668   2.2920260  25.9577656
  18.9504004   1.7077860  25.0211525  73.3128977  31.5075040  23.6248636
  72.4086666  31.2044549  23.7071013  73.5038710  31.4403105  22.6893187
  55.1899481  49.2277431   2.0155776  55.5355787  48.4174633   2.3900339
  55.8232927  49.4683647   1.3394096  12.6417550  42.7815808  52.1038757
  12.5966629  43.5100783  52.7231429  12.0707043  43.0449714  51.3822375
  29.1223749  58.3030033   9.0263921  28.1746039  58.1831408   9.0863109
  29.4432101  58.1202745   9.9095166   0.2283415  39.6638799  39.3331051
   1.0062346  39.3669295  39.8052645   0.5628332  40.2878523  38.6888981
  23.7538561  54.0661955  59.0588045  23.6436686  54.7220087  59.7472811
  23.2112059  54.3833351  58.3368683   9.7077402  30.5031204  24.5145321
  10.1101240  31.1963964  23.9913821   9.8654398  30.7653141  25.4215145
  72.6830101  62.0045137  29.4798040  73.3972216  61.5634727  29.9398184
  72.4744940  62.7599382  30.0294280   2.3465602  58.1078248  39.6177958
   2.1053187  58.8067822  39.0099381   3.3037488  58.1064825  39.6135305
  12.5976468   6.7223629  25.4380560  11.9935895   7.1305737  24.8178077
  12.2479296   6.9515404  26.2991071  69.7298622  53.6465168  17.8392839
  70.1995850  54.2525816  17.2663260  69.9780369  52.7775717  17.5237274
  55.8599091  66.0749626   6.9393855  55.6244659  66.3580751   6.0558444
  55.2048254  66.4843655   7.5046152  72.2577620  28.9305806  36.7074919
  72.7037764  28.1008935  36.5374327  72.7681780  29.5803356  36.2242460
  71.2851249  35.7470979  60.6854893  71.2781894  35.7456340  61.6426630
  70.8615612  36.5708579  60.4441614  60.4840279  21.4585066   7.2252715
  60.9726000  22.1820474   6.8328249  59.8397875  21.2159324   6.5601838
  13.6691476   4.6649059  11.7723262  13.2672978   5.5224022  11.9118142
  13.9522744   4.3884501  12.6438999  57.2834730  51.5702057  10.8842981
  57.3099995  52.3124409  11.4881349  58.0335665  51.0308456  11.1346579
  52.5470352  23.2417679  16.4107370  53.1337166  22.5237560  16.6484189
  53.1235552  23.9087033  16.0378420  66.3180494  44.3867111  33.6737108
  66.9196367  43.7764788  33.2471657  65.4496431  44.1121435  33.3792281
   4.1154862  18.0464729  11.0125935   4.1215373  17.0906624  10.9613764
   3.2793666  18.2588085  11.4273763  73.5998678  23.1375456  13.8206506
  74.3860054  22.6055169  13.6975288  73.1489420  23.0973411  12.9772758
  24.3798431   9.2663421  35.5444143  24.3196043   9.9245204  34.8520277
  25.1680454   8.7665547  35.3318618  49.8326492  62.1928167   3.7584943
  50.6062365  61.7008352   4.0337268  49.1310453  61.8728828   4.3256125
  74.6944403  33.1876029  55.8985559  75.1348185  32.5661649  56.4783053
  73.7725686  32.9317702  55.9291290  67.7360725  59.1042900   1.1471979
  67.7143908  58.1795979   0.9008124  67.3238516  59.1318178   2.0106480
  55.1324177  43.9782095  26.4317942  54.6023130  43.3690977  26.9458032
  55.9248686  43.4853125  26.2189364  17.6978049  63.5752726  16.9281018
  18.3329710  62.8638411  16.8464947  16.9011626  63.2327747  16.5227854
  12.9196200  19.0900338   4.9285802  12.0884642  19.1772258   5.3952795
  13.3336958  18.3201909   5.3186029  75.5937433  48.1122160  27.5894594
  75.9181166  47.4112749  27.0240402  75.1408482  47.6570654  28.2993555
  28.6527857  40.2413607  11.0223830  29.2766413  39.6231484  11.4029706
  29.1655001  41.0348940  10.8685458  66.8614864  46.6481543  31.4042139
  66.0363579  46.4309740  31.8380618  66.9243860  47.6008558  31.4723182
  56.4121437  55.5630636  32.4772882  55.7243824  55.1300669  32.9829836
  55.9434319  56.1779022  31.9129157  70.7992220  45.8892584   7.3624504
  70.1856375  45.2392387   7.0200789  71.3402414  46.1277485   6.6096878
  10.5235895  49.5307446   4.5125696   9.6657213  49.7373915   4.1416362
  11.1101469  50.1897478   4.1412219  10.6023265  18.7469181   2.0554748
  10.4289103  17.9506191   2.5575492  10.9361363  19.3694290   2.7014482
  70.7155546  25.5580749  44.1754101  70.9653600  25.5768384  43.2515715
  70.8663972  24.6523799  44.4459651  58.4097481   6.3429245  26.1024165
  58.2901955   6.8462643  26.9077706  57.9154969   5.5363211  26.2484932
  39.5789624  11.6813454  21.1306882  38.9523125  11.0209354  21.4263344
  40.4262162  11.3648399  21.4440727   3.6431917  54.4265127  33.2915688
   3.3362231  55.1097059  33.8876033   2.8662619  54.1794491  32.7899909
  66.2321043  56.5539598  18.9060688  65.6295967  56.8582249  19.5847726
  66.7074347  57.3402739  18.6377382  51.8335533  58.1548738  18.8954723
  51.9021749  57.7209759  18.0450284  50.8926725  58.2643509  19.0332770
  47.2664548   1.7164787  49.2219925  46.7291451   0.9384903  49.3711901
  48.1350232   1.4726576  49.5419693  39.7748169  29.6788825  62.4786588
  39.7376426  29.8285760  63.4233502  38.9520343  29.2346181  62.2739963
  50.2902253  70.6025844  51.6024755  49.4860442  70.4987554  52.1111427
  50.7915600  69.8071794  51.7819939  72.0233567  56.4008181  63.2490489
  71.9866927  56.6344695  62.3215283  72.5457700  55.5991237  63.2736194
  45.9991033  54.4433944  52.0943068  45.4594024  55.0037472  51.5366696
  46.5039761  55.0544863  52.6308702   6.0399739  29.6083580  50.6745945
   5.5693738  28.7748318  50.6740044   6.4078776  29.6763163  49.7935389
   9.3963179   9.0129787  12.6479161   9.0183958   9.0530193  13.5264409
   9.4375357   8.0779457  12.4473000  23.4025558  20.8420838  45.3444896
  23.0814680  21.6886271  45.0338517  22.9698547  20.2004470  44.7811959
  67.9432853  52.9333763  46.3069354  68.1424840  52.0397382  46.5861557
  68.4381755  53.4885220  46.9095383  66.3246043  15.4746895  53.6467515
  66.3348182  15.9314446  54.4878827  65.7860644  14.6987514  53.8020812
  75.4910596  31.1949276  57.8478716  76.2639649  30.7578032  58.2053159
  74.8330815  31.1212717  58.5391579  56.7609739   5.0609803  41.6434813
  57.4166203   5.6272531  42.0505333  56.3393402   5.6159341  40.9873676
  76.3731225  29.2501192  49.4153784  77.2731240  29.4407337  49.1509984
  75.8461602  29.9096094  48.9641414  54.8555477  50.6207662  55.3616564
  54.4057496  49.8090129  55.5961142  54.5160253  50.8407645  54.4941555
  42.2847303  68.1700227  18.5386372  41.8691572  68.5822681  17.7812815
  43.2135566  68.3825806  18.4473896  58.3837032  37.1490836  12.8432763
  57.8070784  37.7011943  12.3151577  59.2139864  37.1453977  12.3669910
  54.1452694  21.6325021   3.1290820  54.5939302  21.3335419   2.3381594
  54.4649172  22.5247598   3.2630068  60.4195436   5.7664527  53.9981232
  59.9613222   4.9637450  54.2469696  60.8116849   5.5648316  53.1485329
  67.3757172   0.4952380  15.1000822  66.7237425   0.2294953  15.7485723
  67.4312210   1.4463848  15.1921213  24.3107867   9.0162468   7.5327992
  23.5878992   9.6325499   7.6504207  23.8946605   8.1542879   7.5426036
  34.8872590  15.8858407  17.9187977  34.5927143  15.1838291  18.4990156
  35.7533312  15.6049204  17.6234388  50.0917538  21.8045263  48.0752586
  50.2480538  22.3934131  48.8135098  50.0428088  20.9337406  48.4696804
  49.1754627  50.9515190  23.9047885  48.8221979  51.5967226  23.2922935
  48.4989691  50.8631611  24.5761895  34.3183994  28.9965487  24.4527650
  33.9592552  28.1095171  24.4733548  35.1672053  28.9214587  24.8887968
  19.6268570   6.0578555  29.7463465  19.9656665   5.4843920  30.4337907
  19.0896332   5.4846644  29.1994691  47.9154348   2.6677787  10.9826553
  47.5365305   2.4302153  11.8289578  48.8603449   2.6702839  11.1355150
   9.8110326   1.4474596  62.4379244  10.1971515   2.2999729  62.2370213
   9.4106444   1.1660184  61.6152982  25.7180135  65.8032851  58.4663151
  26.3311164  65.6179671  59.1776500  26.2371509  65.6977277  57.6690767
  26.1017871  27.9449296   5.2452230  25.1539111  27.8793287   5.1292104
  26.4444971  28.0561376   4.3584228  45.0603962  11.0759056  20.3792620
  45.6392813  11.8228734  20.5314684  44.1906309  11.4631689  20.2804399
   3.9878353  57.6351825   9.1243178   4.5726307  57.1908322   9.7381580
   3.1078490  57.4080029   9.4247282  10.3972109  72.0823060   7.1300316
   9.8947795  72.5612957   6.4709687   9.8339375  71.3476298   7.3733532
  19.3311803   2.5427942  48.0756746  20.1026599   2.2579603  48.5654877
  19.6527974   3.2436948  47.5086353  45.2437305  28.9391541  36.0073137
  45.9638214  29.3136692  36.5146995  44.9474525  29.6561909  35.4466820
  44.5867491  28.7965703   7.3642045  44.3432379  29.2116523   8.1916356
  45.5045557  29.0366387   7.2368091  24.2245102  13.4227931  34.7810793
  23.7646818  12.9767931  34.0698338  25.1031280  13.0430496  34.7735023
  10.6635158  43.3771746  50.1991962   9.9914281  43.3208941  50.8784352
  10.2699630  43.9216708  49.5173798  16.1357514  46.9592910  63.2037380
  16.9831483  47.1934800  63.5822999  16.3509385  46.5766917  62.3531243
  65.0354004  24.0130115  42.3851156  65.7345009  24.5161891  42.8026104
  65.0902700  23.1466079  42.7883101  20.1523876  22.5175571   1.3318650
  20.0282717  21.7509127   1.8914036  21.0546207  22.4435377   1.0208524
  69.7263081  53.5482566  53.0021105  69.2958291  53.3112888  52.1806691
  69.5006783  52.8390317  53.6040435  72.4525483  69.1162329  48.0237542
  71.5062077  69.1652541  47.8885649  72.7177937  68.3149462  47.5722919
  48.3820566  14.5325173  43.5210036  48.5099777  14.8539056  44.4135163
  49.2655595  14.3407239  43.2065652  70.9224796  21.3136554  20.8828521
  71.1238861  20.5376053  21.4057398  71.5608215  21.2943316  20.1698470
  17.8086679  40.0394131  62.6858233  18.5336082  40.6311839  62.8870725
  17.8947703  39.3299607  63.3226083  22.1331803  25.7248394  50.3786777
  22.1748845  26.1329226  49.5138298  21.4151446  25.0953727  50.3121207
  29.7913504  16.1580944   8.1898218  30.7044387  16.1624014   8.4770221
  29.8357654  15.9655154   7.2532469  78.4877825  30.4374385   4.0385655
  77.7226114  30.6566882   4.5702386  78.9215326  29.7340798   4.5216542
  71.9394095  23.2890730  26.9971083  72.8719457  23.1988625  27.1932529
  71.4983781  23.0317478  27.8067420  72.2186995  21.9149685   1.5012646
  73.1742287  21.9191909   1.4448971  71.9269753  22.2338200   0.6471783
  10.4246871  37.9620402  44.3191014  10.8293407  38.3223585  43.5300134
  10.5160062  37.0140071  44.2235730  11.7654817  50.6199233  56.5188925
  11.8183200  51.4601462  56.9743775  10.9233110  50.2536981  56.7888216
  65.7672453   5.1517379  40.0422335  65.4767561   5.2766329  39.1387653
  66.3647318   5.8816808  40.2047873  72.6544650  67.5988417  19.9603842
  72.1122010  67.8585677  20.7051800  73.5523970  67.7602248  20.2500437
  44.1843430  60.8550235  49.0408765  44.0883986  61.5782948  49.6604787
  44.1642872  60.0684377  49.5859550  56.2576723  58.2146549   9.5647150
  57.0286655  58.7253428   9.8117024  55.8613348  57.9609537  10.3982520
  30.2884102  17.2790921   5.7454294  31.1427522  17.5791359   6.0557592
  30.4487348  16.9863808   4.8482963  10.8621423  51.0914283  44.6753524
  10.4132430  50.4090111  44.1763244  10.8927123  50.7529216  45.5701767
  37.9778942  60.8446554  29.4991994  38.3188613  60.7201901  28.6134887
  37.8857931  61.7931429  29.5893002  16.1267058  52.0836537  48.7576447
  15.7308261  52.4612837  49.5430778  15.5516832  51.3541107  48.5266815
  23.9630334  60.0821905  43.3132981  24.1063373  61.0095768  43.1244753
  23.0193059  59.9598126  43.2101868  41.2947258  53.7261334   8.1555730
  41.7825349  54.0106300   8.9284509  41.9594081  53.3523766   7.5770068
  77.8563054  25.9447079  61.4994795  77.5795825  26.4614491  62.2562067
  77.0387919  25.6407087  61.1051576   2.6521079  56.6248827  52.6254187
   2.1019618  56.1460392  53.2453201   2.0340459  57.1306066  52.0977138
  77.2860129  29.9251746  59.4419051  76.8968661  30.2922325  60.2356724
  77.9967530  29.3680124  59.7591646  26.1652645  11.6007031  55.9574310
  25.5595144  11.5289868  56.6950987  25.6118616  11.8464459  55.2160905
  14.9719271  40.3970289   2.4215676  14.3154845  40.4996586   1.7325304
  15.2385649  41.2915802   2.6335073   4.8550908  41.3464834  50.4866455
   4.5763938  40.5201884  50.8813558   5.7682817  41.4447047  50.7562195
  33.1663069  23.2641673  21.2387538  33.0683455  22.5629735  20.5945778
  32.3115954  23.3177066  21.6663456  68.4600099  52.3303238  19.7662389
  68.7318452  52.7332703  18.9416337  67.6316007  52.7592150  19.9807537
  43.4284592  18.3331120   1.5173028  43.1041670  18.9562714   0.8671205
  43.2596445  17.4739170   1.1306292  72.6901133  57.4083381  47.3903452
  73.6315472  57.2433810  47.3381255  72.6193269  58.3547597  47.5148628
  28.5125701  68.8417606  54.1138170  27.8677241  69.3560080  53.6280666
  29.2681567  69.4232850  54.1983650  40.7473326   4.6324873   6.5864742
  40.8935452   5.5439180   6.8397504  40.5496931   4.6726766   5.6507629
  16.7202219   3.0399455  62.3112978  17.2569736   3.6940183  62.7588682
  16.5763219   2.3583259  62.9677422  49.7707279  67.8623586  54.6504234
  50.2045853  68.3015375  55.3819440  49.2515881  67.1704631  55.0603060
  69.4414234  32.2049665  40.2059507  69.6023130  32.2859001  41.1460543
  70.1826048  31.6949844  39.8791409   4.2959993  46.4275049  27.6200484
   3.5472028  45.9271996  27.2956584   4.5820539  46.9454657  26.8676398
  51.0052919   7.3014873   3.1220567  50.2745438   7.5633943   2.5620157
  51.2811995   8.1118274   3.5503742  10.5021667  17.6149166  17.4729800
  10.4263496  17.6484561  18.4265828   9.7758001  18.1516719  17.1559358
  27.6301646  24.1603184   7.7561104  28.1742811  24.3213415   6.9852400
  28.1555533  23.5755277   8.3022040  36.0324836  40.9732151   6.5906817
  36.9583154  41.1522388   6.4263153  35.6194496  41.8366718   6.5994525
  54.2444468  14.2798150   6.8253475  53.4422874  14.6205509   7.2211653
  54.7259426  13.8917673   7.5559735  20.5921730  70.1534999   4.7433218
  20.6069072  69.4367695   4.1090411  21.5072950  70.4231334   4.8213431
   6.0842578  52.6954560  53.8474343   5.5498902  51.9025581  53.8027595
   5.5711667  53.3001964  54.3833969  43.4568453  23.1903291   1.9861314
  44.3533993  23.4393930   2.2106092  43.5443974  22.3364329   1.5625460
  61.4919806  29.6334243   1.1410537  61.2295866  29.9752784   1.9957566
  61.3713074  28.6867023   1.2144308  23.5934544  16.9902289   6.4585370
  24.2809486  16.3374698   6.3262808  22.8062892  16.5864384   6.0930866
  39.3698430  11.8381667  10.7782805  38.4218907  11.7074966  10.7549191
  39.7350717  10.9566236  10.7026291  40.0069746  70.2772397  38.7263989
  39.3819984  69.7204081  38.2621002  39.6014198  70.4329512  39.5793414
  53.2972288  36.9676042   6.3135111  52.5104427  36.4749336   6.0801113
  54.0050125  36.5241194   5.8459747  26.9084009  12.7632178  34.0786956
  27.5814851  13.4400310  34.1501878  26.3749107  13.0339564  33.3314894
  51.4360094  13.2971704  27.2055221  51.3365459  12.5399768  26.6284633
  51.6795206  12.9227579  28.0521321  53.6930402  59.5914178  44.5368574
  54.1165288  59.2759375  43.7385081  53.5169370  58.7988214  45.0438176
  71.3410981  71.3550882  60.3534193  71.1884578  70.5505567  60.8490635
  70.6635173  71.9575910  60.6601862  73.7318356  53.7977772  62.9394439
  73.2675202  53.5644524  63.7433098  74.6568473  53.6754339  63.1530279
  14.7388761  38.6120467  58.4759192  15.4302995  38.3134064  59.0666659
  14.6230952  39.5375093  58.6911981  60.6324720  31.2681556   7.3375052
  61.3829231  30.6891179   7.2041970  60.9146547  31.8715453   8.0249113
   8.3783278   0.2568768  31.6802359   8.4368834   0.2176201  30.7256341
   9.2609534   0.0439230  31.9832945  34.9214721  11.5276790  12.5264692
  35.1935434  11.7393875  13.4194350  34.0585160  11.9320261  12.4367929
  65.0168403  16.5841584  38.0550860  64.8770578  15.9212594  37.3788784
  65.9683807  16.6708188  38.1124733  64.1277535  41.2139715  55.4542313
  63.6237367  41.3651987  54.6546493  63.8316710  40.3587111  55.7658343
  37.3387861  40.5515957  10.1935494  37.9885864  40.1114321  10.7414949
  37.0052505  39.8634243   9.6178716   2.7028975   2.0687009   3.5020915
   2.1765456   2.7985799   3.8283652   3.4369120   2.0105292   4.1137049
  37.8148159  21.8984117  62.4627973  37.4597629  21.2630452  61.8411205
  37.1438058  21.9699754  63.1416623  15.0926337  58.7291622   3.1563622
  14.5960650  58.2015038   3.7818387  15.0001463  59.6273375   3.4741029
  77.8870058  38.5001421  34.4629598  76.9766426  38.2070947  34.4230866
  78.1989050  38.1975079  35.3158164  58.1733751  49.0503216  33.1519914
  58.3839178  49.8375082  32.6497602  58.9416742  48.4885693  33.0500770
   4.1302428  28.1066036   7.7888405   4.0089735  27.5085807   8.5263324
   4.9313196  28.5865855   7.9989171   6.9079336  26.1125135   1.5981300
   7.7697405  25.7204199   1.4574875   6.6593394  25.8345914   2.4797143
  57.0338392  28.0721903  10.6176388  57.0142412  28.7488055   9.9408537
  57.6136541  28.4251833  11.2925029   3.2014307  26.5745735  44.0893078
   2.5230059  26.0622954  43.6493731   4.0177950  26.2990403  43.6723471
  26.1236319   8.2175428  15.8928978  25.6280741   7.4055243  15.9991050
  26.8989500   7.9613847  15.3934038  51.5213394  51.7014790  22.5563979
  51.9923592  50.9066772  22.3060775  50.8464766  51.3986492  23.1639194
  60.9512043  26.4735508  25.2819014  61.6764355  27.0603251  25.4963040
  61.1369848  26.1790013  24.3902969   1.1659639  63.1578426  49.7782372
   0.8593528  63.9679913  50.1855169   0.5404679  62.4931483  50.0666319
  66.2353325  15.5900645  28.5008812  66.1735725  16.2668979  29.1749096
  65.3288889  15.4303944  28.2380223  57.0832952  56.6478077  17.5398147
  56.4065298  57.3194555  17.4555540  57.7961668  56.9544712  16.9794452
  25.9407783  17.5715554   4.2042643  25.9483266  17.4040055   5.1466560
  26.7815661  17.2349560   3.8944089   2.1963613  61.9848757  30.7590793
   2.5422637  62.8510146  30.5437039   1.9086806  62.0612888  31.6688226
  43.1465340  60.0198889  22.5449204  42.8515625  60.5294991  21.7902517
  42.3404264  59.6847105  22.9374480   2.7164428  47.8873925  49.1505478
   2.1694629  48.2453911  48.4513436   3.5668771  47.7388732  48.7371109
  77.2865565  59.0625553  57.7165751  77.4719079  59.3520002  56.8232111
  76.3800175  59.3281178  57.8711574  17.3538050  32.5478888  28.0481648
  17.7226576  32.2577333  28.8824224  16.9918665  31.7528319  27.6568580
   0.1741299  38.8396454  12.0578098   1.1284050  38.7716985  12.0889175
  -0.1345602  37.9455447  12.2045338  51.5666628  59.5752573  23.2604742
  51.9308996  59.7781324  22.3988438  50.7079458  59.9981451  23.2631183
   8.0162367  38.3665633  15.7974434   7.7153715  38.8987637  15.0609148
   7.5105604  37.5566363  15.7300436  65.9518512  64.9348597  52.5047146
  66.2300284  64.2279701  53.0870853  65.6126721  65.6099348  53.0924748
  72.0957883  71.0357461  29.2269969  71.9220670  71.9542620  29.0211344
  71.5192636  70.8428037  29.9663305  65.0641608   4.8250569  46.5110670
  64.6764695   3.9621486  46.6570447  65.9887456   4.7126950  46.7318569
  63.2433081  26.2065434   8.9752835  63.2548666  25.9208584   8.0617833
  63.4302044  27.1444678   8.9352953  44.4917107  43.0897617  10.2429318
  43.6089468  43.2006121  10.5960226  45.0354147  43.6763430  10.7688010
  51.7995056  57.3654762  16.2568593  52.1490987  56.6116682  15.7816851
  50.9542688  57.5388542  15.8424389  57.8585386  34.7946715  14.3161738
  57.3044348  34.3152118  13.7002861  58.2181358  35.5176139  13.8020945
  61.1516571  61.4430046  16.2423003  61.7367983  61.4695406  16.9993591
  60.6838894  62.2776031  16.2717581  59.9349022  12.7767193  20.4038215
  59.1603708  12.5784111  19.8774993  59.9009514  12.1491802  21.1258125
  46.1333227  38.3593774   0.3737232  45.7999229  39.2309666   0.5868174
  46.5836573  38.4732223  -0.4632174   8.8088672  65.7537203  36.2423585
   8.2894199  65.0788383  36.6793273   8.5474269  65.6994872  35.3231524
  71.8465567  31.7509580  12.9541326  71.3214207  31.1142707  13.4389925
  71.2734413  32.5117683  12.8596103  78.2072783  34.2386389   3.6057097
  77.5538635  34.9102020   3.4100428  78.1592846  34.1271973   4.5551878
  63.4535170  70.5155230   0.1554543  62.9778242  69.7347116  -0.1278827
  63.0956221  70.7131100   1.0209591   6.9961962  27.2066569  19.9496174
   7.6738486  27.1440768  20.6227446   7.2009692  28.0140042  19.4779301
  73.5852146  31.7544389  39.6641135  73.5889530  32.6697755  39.9440718
  72.7572107  31.6507769  39.1951847  51.2605667  42.7204561   8.9844018
  51.4192629  41.8021441   9.2029285  52.1346378  43.0959082   8.8782787
  44.4453382  16.5154123   3.7940282  44.5695639  16.6473973   4.7339112
  44.2667913  17.3909235   3.4507573  75.9349251  39.6843648   4.7590539
  76.6039705  39.7675180   5.4385364  75.5969620  40.5727148   4.6457094
   0.4086702  64.5725708  53.2455753  -0.2570088  63.9711194  53.5792862
   1.2396209  64.1300397  53.4185479   4.5468363  12.3555136   2.4391709
   5.4396853  12.5098193   2.7477857   4.5936522  11.5168452   1.9801767
  21.4172062  24.4003667  59.5625163  20.5724128  24.2537631  59.9880258
  21.7746862  23.5222377  59.4309024  40.7787704  21.3427949   3.1081924
  39.8961544  21.4904928   2.7684766  40.9844446  22.1405625   3.5955280
  14.6138541  70.8993392  29.5663021  15.0265948  71.6005807  30.0704215
  13.8879745  70.6043701  30.1161431  46.6919550   7.6139201  43.9010046
  46.9768747   6.7545213  43.5903810  45.9445747   7.8339089  43.3448885
  22.7351348  41.4621978  60.9468527  22.2556798  41.0163094  61.6450920
  22.2311895  41.2772258  60.1543514  69.0362501  35.4255509   8.3381313
  69.0787506  36.3634539   8.5245830  69.9514532  35.1502442   8.2847816
  45.7020807  33.0972338   0.4543185  45.2139664  33.5940146  -0.2023310
  45.8282661  32.2353148   0.0575791  77.6617384   7.4494112  17.0608902
  76.8390656   7.6486105  17.5078321  77.4422932   6.7355454  16.4621675
  13.6590163  56.1913912  61.8708284  13.3514087  55.2936511  61.9960104
  13.6204641  56.3279788  60.9242086  42.5144800  18.7199058  55.8328770
  43.4259018  18.7845077  55.5476205  42.4968322  17.9540099  56.4067404
   7.4145516  55.1014725  19.0522635   6.7251118  55.2569953  18.4067261
   8.2277664  55.2925065  18.5849118  34.3723854   5.1206006  58.6591403
  33.9639076   4.4194926  59.1669060  35.1612600   5.3453101  59.1525157
  36.7981172  48.0368328  10.9392619  36.4884281  47.1577930  11.1574769
  36.4761281  48.5881233  11.6524482  17.0336358  65.9774427  54.4299118
  17.3169534  66.6563396  53.8174878  17.0467822  65.1702790  53.9155696
  61.8666681  20.6782950  42.7360891  61.6774400  20.9920491  41.8517945
  62.7429040  20.2982177  42.6729844  21.1313598  65.7015853  53.7416933
  21.9471519  66.1573510  53.9490340  20.9196870  65.2150135  54.5383595
  36.2731600   5.3500074   7.9977196  35.7825708   6.0425538   8.4403658
  37.0154572   5.1750666   8.5761851  75.5784798  44.0435982  17.5961900
  76.0918522  44.8148012  17.8368771  76.1936188  43.3139181  17.6696229
  19.9381177  60.3957539  52.1290026  20.6656139  60.4438977  52.7492176
  20.0983493  59.5924454  51.6337691  27.8499445  19.6446694  57.6415412
  28.0004486  18.7033214  57.7278326  27.6116785  19.9309529  58.5233025
  58.7971242  23.0678786  62.7003950  59.3316778  23.5356416  62.0587711
  58.8874754  22.1456088  62.4606216  17.7592914  61.7618899  51.2395130
  17.1191566  61.0582333  51.1330949  18.5664336  61.3148837  51.4943538
  29.8478937  63.0384541  23.2429576  29.3404031  62.5564814  22.5899696
  30.1129079  62.3737526  23.8787007  19.4942745   7.7058925  60.2420573
  20.1079687   7.5517739  59.5238249  19.9229892   8.3668174  60.7857577
  73.3134651  13.0425310  17.7941263  73.8592529  12.9016042  18.5677445
  73.7580204  12.5610518  17.0964324  54.8718580  73.1727563  25.0677180
  54.0312036  73.5340550  24.7866368  55.1499303  72.6181478  24.3388033
  64.3004513  44.3239927  23.4712958  65.2175951  44.5630741  23.3374190
  64.2563009  43.3989382  23.2293105  23.0256399  56.1699152  12.7812386
  22.7037939  55.3416920  13.1371748  22.2553477  56.7378187  12.7620661
  62.1678877  47.5938034  25.1360369  61.7600536  48.4516144  25.0174475
  62.9914856  47.6511478  24.6516442  36.7780670   0.8409990  63.2509327
  37.5818475   1.0493983  63.7271017  36.6154941  -0.0815545  63.4476502
  13.2417235  10.6267691  10.6154120  13.0958494  11.5343523  10.3484941
  12.6919112  10.5138242  11.3907683  45.9127765   3.9894761  60.1751594
  45.1762926   3.8260449  59.5859955  45.7424002   4.8595704  60.5359091
  48.8528284   7.9638995  50.4895387  49.3019470   7.8858317  49.6478580
  49.3378671   8.6434449  50.9577118  16.9231257   4.7979230  39.0493464
  16.7648444   5.7298303  38.8985896  16.2133822   4.5254487  39.6309352
  52.5443029  50.4651546  28.6149502  52.5632572  49.7437096  29.2437482
  53.1878614  51.0903978  28.9483213  76.7152293  71.4642124  59.7541706
  76.8714793  71.1209493  58.8744060  76.3093121  70.7372122  60.2263297
  43.5580349  70.0001287  14.9556077  43.7245321  70.7831001  15.4804516
  43.8661861  69.2762852  15.5008793  56.4074118  41.6249524  55.3890906
  55.5773957  41.6138323  54.9124543  56.9346817  42.2832959  54.9365394
  53.8511992  53.0912971  24.0358233  53.4805870  52.6205349  23.2893229
  54.2557478  53.8690805  23.6516070  62.1171506  17.0806397  56.8073688
  62.3629602  17.5019254  55.9837626  61.3118490  16.6055621  56.6023801
  74.9697638  20.8226657  10.0117886  75.5945253  21.0716581   9.3306839
  74.2731380  21.4760518   9.9482518  64.6612358  50.6834030  36.1508036
  64.6727896  51.2363338  35.3695440  63.7327957  50.5141258  36.3107204
  51.0544968  32.0831379  15.1642895  50.5228234  31.4286694  15.6173050
  50.5077935  32.8687462  15.1515329  65.0152731  51.4364338  12.4636972
  64.9165201  50.5689955  12.8561640  65.9614086  51.5774059  12.4291968
  75.9175619  27.1232547  21.1627863  74.9604066  27.1149148  21.1660717
  76.1589273  26.6079987  20.3930567  77.5152905  66.1494355  58.8777135
  77.7799638  66.5678244  59.6969376  78.0439885  66.5810828  58.2066016
  66.2503910   7.9663038  30.0094914  65.6464720   8.5378474  29.5353079
  66.4960766   8.4690773  30.7860804  63.5712862  28.1960368  25.0270247
  62.9628086  28.3689427  24.3086290  64.2397785  28.8760257  24.9436069
  64.7720655  27.3830117  54.9535535  64.2091592  26.7389382  55.3831242
  65.1005968  27.9284896  55.6682233  12.7482065  61.7322350  11.3604558
  12.5633559  61.1333942  10.6369543  13.5649237  61.4062405  11.7385006
  67.8803349  21.4002013   1.1896978  67.7797651  20.5148721   0.8399706
  68.0388117  21.2717247   2.1249035  28.5682186  25.4393472  59.4505022
  29.2061933  26.1445130  59.3411381  28.2175573  25.2951707  58.5715936
  74.7443231  20.0521554  63.9466968  73.7999185  20.1975001  63.8900840
  74.8390707  19.0999736  63.9712447  20.1173433   5.4531611  46.9696341
  20.3263076   5.8098639  46.1063097  19.5999416   6.1382140  47.3929964
  64.9409914  36.3847756  30.2212095  64.6737337  35.6827331  30.8144546
  65.7554054  36.7189407  30.5971074  57.5112279  15.5014361  50.2517055
  56.7600950  15.5517425  49.6605263  58.2387479  15.8635940  49.7459541
  12.9523480  72.2704363  27.6606154  13.6070728  72.9637814  27.5779009
  13.2946622  71.6984844  28.3475804  68.7069878  36.3180208  40.2387810
  69.5804402  36.2716079  40.6275749  68.8031539  35.8998513  39.3831420
  69.9602386  43.6479807  34.7623897  70.6558231  43.3021736  35.3216863
  69.5040765  42.8709364  34.4393635  57.6720132  43.2182069   2.2399999
  57.4663557  42.6376386   1.5072777  56.8447699  43.6576982   2.4368479
  73.4816450  66.9104624  46.6879845  74.4335127  66.8424559  46.6134501
  73.1583640  66.7224312  45.8068705  57.3191805  18.0888839  31.5609695
  56.6431601  18.5725970  32.0355655  57.5594099  18.6636872  30.8342506
  17.8756080  12.4192318  36.4294791  18.2740436  12.7758869  37.2233820
  18.5379807  11.8262753  36.0746574   2.1927761  42.5258493  40.8075619
   1.9215821  43.4330034  40.6669998   3.0616504  42.5941944  41.2033081
   8.9097381  59.3106508  46.5409470   9.6127266  58.7162304  46.2788391
   8.5854501  58.9491129  47.3657846  70.1352772  72.0140600  57.7716398
  70.6681743  71.8259525  58.5442114  70.7672450  72.2801018  57.1037531
  46.5184514  10.4846748  34.7912431  46.1736456   9.7852024  35.3462911
  46.0463563  10.3888020  33.9640999  47.5317350  62.1479750  57.2937298
  47.9798666  61.6406012  56.6169834  46.6312972  61.8235683  57.2794580
   1.2583057   0.9212097  31.4333272   0.7977096   0.1233706  31.1734533
   0.6758920   1.6320404  31.1654711  15.4519153  57.7234554  49.1981220
  15.7450223  56.8133497  49.1530514  15.2882981  57.9677773  48.2872057
   6.1998391  25.7727432  45.8822489   6.5558738  26.1485863  45.0771332
   5.8277148  26.5196753  46.3511276  18.5089362  51.6543055  56.6496658
  19.0193474  51.0545588  56.1055899  18.7622809  52.5264502  56.3473225
  77.1108954   0.5120631  40.7744789  77.8339037   0.6670940  40.1666498
  76.3233686   0.6897487  40.2602196  54.4404665  72.0242225   6.3343336
  54.1474525  72.6343976   7.0111324  54.1606299  72.4262677   5.5119707
  17.4969602  61.1482668  41.1839581  18.3990610  61.4667225  41.1518097
  17.5808978  60.1966572  41.2441111  18.7178890  36.7200932  21.7768669
  17.8965870  37.1309837  21.5069318  18.6159030  35.7995304  21.5352249
  27.9098126  11.8235859  49.7568130  27.2070916  11.4453777  50.2853727
  28.4639197  12.2825226  50.3881407  18.1085479  58.6348915  40.8398151
  17.8841305  58.3745670  39.9464512  17.8216696  57.9004478  41.3825226
  54.4430807  10.1606507   6.5168859  54.7531936  10.6408210   7.2846748
  54.0731056  10.8343597   5.9463884  55.4072228  38.2030964  46.7234087
  56.0128871  38.3739567  46.0021544  55.9251848  38.3589029  47.5131369
  49.5223331  17.2390318  56.8756580  48.6259079  17.3766565  56.5695333
  49.8647213  16.5464401  56.3105774  77.4603686  40.1377964  32.1811008
  76.6409269  39.7328663  31.8968821  77.6902734  39.6737075  32.9860830
  72.9195646  49.7506714  20.1568127  72.9039237  48.8435078  19.8517764
  72.7677724  50.2712440  19.3680191  20.7789079  53.1682883   9.9475910
  20.4898296  53.2042919   9.0357973  21.7250944  53.3065163   9.9045040
  67.7000395  47.1032619  41.2556982  68.5730061  46.7111492  41.2759924
  67.8482714  48.0281591  41.4527369  42.9327913   0.2520580   8.9996578
  42.6721974   1.1713858   9.0558435  43.8492300   0.2455683   9.2759373
   3.4695706  33.9004970  16.2548804   3.1591427  34.7504902  16.5669310
   3.7760189  34.0697575  15.3639972  39.0120033   7.8568253  61.8729496
  38.7615875   8.5472092  61.2590361  38.1835429   7.4503025  62.1271563
  67.3165456  33.5792828  62.3355246  66.4630428  33.1696033  62.4766922
  67.1142486  34.4960880  62.1490479   3.1383821  32.7385974  53.6339569
   3.6987358  33.4933424  53.4534168   2.9745942  32.3508024  52.7742958
  74.7343119  10.8949847   5.3682901  74.2699559  11.7220922   5.2398350
  74.9729021  10.8957238   6.2952806  68.0001322  27.3028231  55.8918142
  68.8011780  26.9327736  56.2627888  67.4103800  26.5544057  55.8007240
   7.1286178  57.1905947  31.0286307   8.0767518  57.1946287  30.8972621
   6.9930178  57.7243996  31.8115091  76.5191177  37.8672934  20.3637004
  75.9029278  38.4505200  19.9205446  76.3825038  38.0379605  21.2956023
  21.6951132  62.2147942  23.4894490  21.7905664  63.1651497  23.4266686
  20.8053660  62.0425701  23.1813574  64.7738817  68.3692169  21.9605565
  65.4806021  67.8344774  22.3222637  64.0406528  67.7619267  21.8615413
  65.9933706   2.3922415   7.8223993  66.4636965   2.7489848   8.5758974
  65.3041203   1.8495221   8.2053139  44.4691689  25.8201356   0.4846956
  45.1505812  26.4772410   0.6265547  44.9097236  24.9829335   0.6304027
  53.1143513  52.6943922  38.0240679  52.3329750  53.1399918  37.6967716
  53.8449469  53.1766987  37.6369762   8.2903671  48.3565617  30.2318382
   9.1744512  48.6968756  30.3690052   8.1625116  48.3970404  29.2840815
  16.1911845  54.3906164  24.1740513  15.6556034  53.8532114  24.7576427
  16.6893625  54.9587917  24.7616124  75.8525977  52.5306034  25.2693915
  76.4593190  51.9313478  25.7041550  75.2396539  52.7913284  25.9568167
  65.2598380  43.9511908  63.6027950  65.5647504  44.7801341  63.9717265
  66.0211050  43.3729686  63.6514019  72.1705481  63.0834246  46.0864401
  72.4521771  62.7566814  45.2319479  71.7091653  63.8989544  45.8908319
  43.6925498   0.7439550  22.4320531  42.8482179   0.3677305  22.1834779
  44.2921201  -0.0020519  22.4469018   0.8297654  20.3389430  32.3888421
   0.4793049  21.1958194  32.1455860   0.7968573  20.3294921  33.3454275
  35.4714749   8.1406483  42.4265575  34.6979908   7.9673943  41.8899632
  35.3710375   7.5647720  43.1845236   1.1957123  59.5105314  36.9021583
   0.5201341  59.8795080  37.4710917   0.7087564  59.0312576  36.2317848
  18.7896156  54.5396137   4.6700245  18.5896742  53.6226845   4.8584357
  18.4765649  55.0159216   5.4390240  54.7417704  31.5656938  58.0874000
  55.1873987  31.6383113  57.2433780  53.8243433  31.7553557  57.8909622
  66.8163517  33.8492751  47.2893715  66.6838136  34.4845963  47.9929543
  67.2606042  33.1138444  47.7112865   6.5716450  31.9114871   1.7435362
   6.3532488  31.0389657   2.0710089   6.4578120  32.4866958   2.5001146
  36.8886943  39.4681115   1.5838386  36.5755589  39.6459813   0.6969692
  37.4853714  38.7264724   1.4829304  17.9382968  40.6782436  23.6223841
  18.4235466  40.0740814  23.0604672  17.1466804  40.8842707  23.1252623
  59.8294416  32.1448445  35.0621438  60.3799048  32.3254633  35.8241153
  59.3463913  31.3528347  35.2979708  16.2330174  73.3907366  17.2623205
  16.0527456  74.2888880  17.5399220  16.5982854  73.4808350  16.3821542
  68.6313029  31.2909169  35.6877949  67.7898605  31.6556163  35.4135753
  69.2826529  31.8123097  35.2186252  12.0563817  60.5490017  16.7108381
  11.2051058  60.9687328  16.5867937  12.6457489  61.0252714  16.1259937
  47.1409360  56.6298676  28.5989094  48.0602160  56.7839003  28.8166928
  46.6658273  56.8404055  29.4027615   3.5710740  53.5883141  57.9861355
   3.0512068  53.9094162  57.2493458   4.1091239  52.8899384  57.6132965
   5.9942943  49.0201950  55.6753588   6.6987097  49.1494226  55.0402737
   6.0633570  48.0988359  55.9254742  27.2172952  31.4272865  29.7017527
  27.9770768  30.8451733  29.7121048  27.0302589  31.5604767  28.7725019
  76.7659838  21.4083752  56.0364962  76.5269572  22.2802528  56.3510084
  77.7206142  21.4310535  55.9701967  75.5612972  43.2907009  50.7436705
  75.4214674  42.4723816  51.2201500  76.1245629  43.0469227  50.0091362
  48.3364955  70.6745291  48.9451361  48.9610091  70.7394314  49.6676350
  48.8301149  70.9582090  48.1756592  14.4711006  48.0851221  27.5085807
  14.6853518  47.7127790  26.6531944  15.1946998  48.6824703  27.6978207
  55.4398532  32.2676225   9.3438246  55.5721532  33.1629033   9.6556093
  55.5179550  32.3314948   8.3919575   5.7725435  57.7213907  46.9988871
   6.6865534  57.8034210  47.2710800   5.5371654  58.5941267  46.6839886
   9.3553460  65.1808310  27.8775311   9.8247683  65.9829712  27.6485181
   9.9102944  64.7572184  28.5323691  66.5746680  32.5192428  25.1909542
  65.7283190  32.7241659  24.7935486  66.4934149  32.8200698  26.0960126
  69.7187182  59.6766758  25.5130410  68.8408193  59.9708366  25.2701521
  70.3070846  60.2224922  24.9913692  63.1948971   8.0802144  62.2092478
  63.3626425   8.6266936  62.9770066  62.3514318   8.3869971  61.8765588
  74.9454886  40.1455259  44.8365688  75.0000829  39.2325377  45.1188946
  75.7531920  40.5448437  45.1596642  21.9507957  60.0148678  41.2664413
  22.1714520  60.3992748  40.4180479  21.8513632  60.7661295  41.8512058
  23.9203358  67.8198910  14.2119122  23.6132360  67.3531580  14.9891412
  24.7678137  67.4219322  14.0128171  29.9351501  23.1875706  19.3922853
  29.9746633  23.8010526  20.1259851  30.8512259  23.0089879  19.1798043
   2.8885093  51.5489578  26.6092348   2.1988839  51.0466623  27.0432234
   2.7473828  51.3924122  25.6755280  67.3351935  58.7010384  27.2454548
  67.4276450  58.3168459  28.1172824  68.2297948  58.9184237  26.9834208
  21.7955899  63.6848021  46.6310120  22.3014617  63.9746571  45.8718634
  22.3969364  63.1221485  47.1189022   1.7549987  41.5201283  35.0470519
   2.4899518  42.1297216  35.1139259   2.1451274  40.7095766  34.7198939
  67.9466795  17.8036155  52.5008152  68.6915135  17.2689237  52.2259353
  67.4584233  17.2425069  53.1033049  14.7640288  44.9119997   6.7831904
  13.8134527  44.8817301   6.6749376  15.0450504  45.6405687   6.2296122
  75.3705153  67.8689384  43.6011028  75.1686865  68.5813379  42.9944801
  76.1146070  68.1910992  44.1098022  56.1810047  22.3608288  32.8523278
  55.5615933  23.0837997  32.9516649  56.7929966  22.6604160  32.1800566
  69.4894841  66.8894529   6.2369269  70.3203306  67.3635721   6.2031615
  69.6761504  66.0489893   5.8185869  25.9652998   6.8701347  22.6190686
  25.1844880   6.3190159  22.5658441  25.9770092   7.3495468  21.7906594
   0.6348783  65.5322886  50.7214308   0.6862132  65.0776815  51.5622234
  -0.1431989  66.0849237  50.7950687  75.2781972  60.6373167  45.2588606
  75.7109615  61.0696220  44.5226145  75.8129314  60.8663130  46.0190248
  13.1171417  62.1224833  34.1004848  13.9667141  61.6816759  34.0883756
  12.5066340  61.4572144  34.4181728  47.1141258  23.0737925  50.8747482
  46.4597884  23.0620241  50.1762247  46.6685501  22.6839948  51.6269159
  54.0818659  11.8452036  35.6714869  53.3417979  12.1672678  35.1568961
  53.8819733  10.9220719  35.8267331   9.8760104  57.5585938  31.3528466
   9.7240227  58.4723806  31.5939403  10.4875112  57.2348928  32.0142984
  77.1784708  47.8551912  40.0302982  77.5126754  48.5436010  39.4552898
  76.8572602  48.3223152  40.8015633  30.4782152  73.4147024  13.7245858
  30.9098983  74.1729403  13.3309376  31.1264062  72.7128220  13.6658561
  36.7002741  72.6121521  53.4886265  36.3764396  73.5032082  53.3568144
  36.2319961  72.2991610  54.2625666  76.6812183  58.5225153  37.8624296
  76.6373569  58.5680008  38.8175416  76.5449946  57.5968885  37.6602197
  60.9862664  55.9633827  27.0894742  60.6113270  55.5209208  26.3279772
  60.6734768  55.4567337  27.8389382  55.1649820  37.0019187  50.9587405
  55.5551039  37.5712766  50.2955137  55.5300414  37.3137368  51.7868314
  60.5582286  36.9946189   2.1661856  60.9692325  36.1407132   2.3009111
  59.8792102  37.0424552   2.8391458  16.1951975   2.5284609  26.8593740
  15.8880035   1.6590151  27.1161437  16.1939064   2.5099691  25.9023523
  60.6631900  31.4536710  12.2193386  59.8090948  31.4825149  12.6505281
  60.7871772  32.3377891  11.8740942  50.2053873   8.0576119  25.4262662
  49.9365345   7.2586903  25.8797836  50.7774798   7.7523598  24.7221637
  27.6422787  39.1854835  28.4976649  27.5726819  38.6643696  27.6977706
  28.2648563  38.7048674  29.0432239  46.0494973  37.3573728   5.9686376
  45.6909920  38.2160707   5.7442524  45.6470056  36.7580981   5.3400709
  10.8317399  53.0802870  25.5597639  11.3977134  53.5971928  24.9864268
  10.9308422  53.4843969  26.4217997  60.1700726  60.7659721  26.9722271
  59.3990579  61.2714577  26.7148304  60.0567558  59.9194813  26.5399814
  75.9004195  61.9654031  29.6417095  76.0647066  61.2401242  29.0390255
  75.3465803  61.5881009  30.3251793  15.8511281  34.5295954  53.3443165
  15.5956221  35.4437113  53.2204628  16.7901194  34.5659423  53.5265398
  70.8785448  45.0848436  64.2215633  70.0172189  44.6726036  64.2879343
  71.0575375  45.1156855  63.2817554  59.9962738  46.3811541  45.5560446
  59.9740771  45.4251671  45.5132961  59.1035894  46.6513252  45.3407431
  65.2188086  13.2699717  48.2673095  64.9892473  13.0851020  47.3566185
  65.8996319  13.9404763  48.2113252  69.8461995  49.1554976  24.3870330
  70.0283703  50.0405359  24.7028661  68.9127281  49.0281868  24.5563126
  61.6672565   6.7083020   8.7998249  62.2997679   6.0530086   9.0943624
  62.2027387   7.4017425   8.4143020  51.5923610  72.9635715  54.5399237
  50.9066883  73.0438519  55.2029753  51.1641923  72.5254488  53.8044262
  24.3469130  24.6348843  52.2282219  24.1237945  23.7294849  52.0121002
  23.9082610  25.1566109  51.5561962  24.9300528  71.7164373  33.1238508
  24.9894333  72.5850534  32.7260923  24.2005825  71.7844582  33.7398672
  74.7259596  69.8905754  61.2527084  74.1423693  69.7733641  60.5030966
  75.1293889  69.0317440  61.3787603   9.3971354  24.9469423  23.3074689
   9.1203737  25.0705218  22.3995233   9.0884256  25.7314014  23.7608480
  14.3808138  51.0766029  35.1858282  14.1724467  50.2370548  35.5956697
  15.2758205  50.9702158  34.8635316   8.5703009  62.7278042  54.0617228
   8.3411252  63.6404991  54.2369461   9.2045748  62.7732325  53.3462763
  10.7818830  67.4421167  27.7183366  11.7306101  67.5371218  27.6339293
  10.4802382  68.3018780  28.0116963  51.2532964  41.3598537  40.1970148
  51.2351695  41.3104200  39.2412639  51.8637315  40.6714106  40.4609203
  44.5999900  14.2418751  31.0591817  45.0934640  13.5412582  30.6327534
  43.8702051  13.7944206  31.4874649  31.2628794  59.0011501  23.7819839
  32.0184255  58.7991238  23.2301068  30.6186819  58.3282804  23.5617852
  23.4415436  57.6201200  18.5822427  22.5501585  57.2769880  18.5195684
  23.7852120  57.2471952  19.3940639  49.1830285  71.1042075  46.4052807
  48.8032849  70.3635697  45.9325419  50.0995334  71.1198049  46.1295925
  39.2013860   4.3067110  18.9592099  39.7537422   4.2300656  18.1812263
  39.4160008   3.5343832  19.4823575  70.1295683  57.1068811  32.1863532
  70.6384817  57.7673769  32.6564479  70.7871351  56.5421724  31.7802238
  66.3540807  42.9402113  40.5732584  65.6445661  43.4546423  40.1883125
  67.1392754  43.2299232  40.1087475  14.4579128   4.4697079  40.0871992
  14.6315340   3.5966906  39.7351670  13.6027137   4.3917355  40.5100298
  74.8728731  60.8128166  51.2094879  74.4238472  61.4119291  50.6131029
  74.5480844  61.0510874  52.0778036   9.7971612  55.1700449  41.3867474
   9.5688540  54.2802334  41.6557074   9.9186814  55.1101017  40.4391861
   8.5375059  62.5525570  58.7307167   7.7698332  62.6031733  58.1612015
   9.1426402  63.2035780  58.3754492  19.5666013   9.9289593  35.7240605
  19.3662969   9.4565281  34.9160242  19.5861409   9.2508873  36.3993883
  21.0254192  61.1991739  55.5054235  20.3231764  61.3856888  54.8822880
  21.7187142  61.8185139  55.2774096   8.3843005  42.8928900  29.5555162
   7.9724532  43.5319948  28.9740038   8.2443321  43.2440996  30.4348874
  28.6952885  16.1629529  44.2056133  29.2395718  16.3864608  44.9606182
  29.0669043  16.6701694  43.4839012  73.4356377  41.5035343  26.2027764
  73.6619923  41.7481232  27.1000910  73.0961999  40.6115437  26.2760401
  77.4735218  35.8036423  58.5704374  76.7527703  35.8723235  57.9443121
  78.1676620  36.3468218  58.1971312  77.5712548  45.6458759  26.0134578
  77.7318543  46.4283371  25.4860210  78.2526288  45.6659889  26.6854382
  56.6733280  39.2953181  37.6976228  56.6242042  38.5047293  38.2350159
  56.0682812  39.1312194  36.9742823  72.8120181  60.7382059  24.6153855
  72.4602601  61.6275406  24.5755506  73.2639483  60.6217337  23.7796664
  40.4487522  55.6712766  21.7728760  40.1377817  55.0359864  22.4178078
  39.7064264  56.2608380  21.6402008   7.7814442  57.1956587  62.0860720
   6.8651205  57.2728395  62.3518276   8.0080271  58.0637789  61.7525196
  15.9550905  50.8789301  32.7734160  15.4680157  51.7006159  32.7115583
  16.6986156  51.0833549  33.3405256  56.0222831  28.4033537  39.3881845
  56.4846507  28.0897331  38.6109519  55.2124730  27.8933764  39.4071889
  73.7104452  73.0057144  42.0549870  73.9078310  73.8449574  41.6391277
  74.4519827  72.4450827  41.8268442   9.5742941  41.9331408  44.0384150
  10.1882970  42.1643686  44.7353840   8.9239967  42.6354408  44.0493679
   5.0200135  39.9776769  11.5362144   4.6756190  40.2272654  10.6787002
   5.9427536  39.7802877  11.3755274  71.8583623  48.2579851  22.6395941
  71.0797110  48.5815048  23.0926585  71.9544342  48.8381910  21.8843699
  73.8947129  10.6408156  53.5633646  73.8914608   9.9828900  54.2586051
  73.3541226  11.3530244  53.9050565   0.4004197  66.5071344  18.5182476
  -0.0723799  65.6802845  18.4233153  -0.2605161  67.1268892  18.8269532
  50.8388869   7.7339348  41.5361595  49.9835268   8.0120262  41.8636513
  50.7383934   6.7967304  41.3694859  57.4704591  37.0846391  25.0234413
  57.8289548  37.9719615  25.0427055  57.8270832  36.6651845  25.8064556
   2.3185788  36.6674089  23.4781146   2.4468207  36.5068793  24.4130039
   1.7085010  37.4041653  23.4430838  47.3576537  73.2790852  46.4387083
  47.9245415  72.5085688  46.4729404  47.1143523  73.3566427  45.5162001
  66.1641446  57.6619625  54.9481010  65.2343252  57.5878239  54.7332191
  66.3201252  56.9616413  55.5817032  14.7965252  47.1728230  36.3142967
  15.6909287  47.2929525  35.9951663  14.8813438  47.1656656  37.2677040
  22.2777820  66.0841799  35.4047942  21.5643787  66.0760736  36.0429358
  22.0099640  65.4517174  34.7380924  29.0675608  13.0355629  51.9228745
  29.8907901  13.4698471  51.6994476  29.2305372  12.6390156  52.7786922
  39.8306731   2.9282030  37.9859495  38.9596108   3.2876667  37.8178191
  40.4012410   3.3833870  37.3666835  57.6796904  47.0684862  43.9221859
  56.8493357  46.7528343  44.2787075  57.4280468  47.6205683  43.1818390
   4.7409695  44.4624758  51.6665030   5.0019592  45.1728773  52.2525454
   4.2342108  43.8688374  52.2205973  11.8091742   6.3048538  46.9656563
  12.4312977   6.0280022  46.2929392  11.3444261   5.5034431  47.2064686
  50.9607425  66.7838717   0.3047319  50.8978167  66.2521601   1.0981750
  50.2425638  67.4122047   0.3799002  66.8034318  39.6965361  60.5267286
  66.8767873  40.4647827  59.9604750  65.8783141  39.6661949  60.7705927
  70.8781871  46.7181444  41.4856291  71.1690548  47.5374317  41.0851288
  71.2730762  46.0339117  40.9451485  10.0348520  62.4483538  32.5070572
  10.3418064  62.6994848  33.3782291   9.1344517  62.7708435  32.4681807
  42.0490972   9.5976337  30.5495167  41.8208317   8.6736282  30.4478955
  41.7897252   9.8112568  31.4458013  26.9696426  62.1963882  55.6823111
  27.8304195  62.5064516  55.4009676  26.3748884  62.9158306  55.4704046
  63.1185988  50.7102394  63.1716490  63.0239394  51.2034559  63.9865160
  62.2214380  50.5824900  62.8634071  56.7037393  44.7164292   4.3628885
  55.9511526  44.2797895   4.7618772  57.0147990  45.3210111   5.0366546
  47.2817579  57.7725649  36.8674350  47.9106942  57.9561853  36.1696148
  47.8127471  57.7269506  37.6625443  41.3775984   8.9788040  44.6874762
  40.9476868   8.5392841  45.4211140  40.6571821   9.2961296  44.1429234
  14.8765568   9.0235981  52.1164608  15.0129775   8.0985245  52.3210716
  15.1435713   9.1083607  51.2011719   7.8069121  17.3764229  54.8475218
   7.8242445  16.4201498  54.8091364   6.9156218  17.5888956  55.1244497
  44.8911810  72.5469446  24.0062809  44.6623468  71.8939114  23.3449054
  44.0675116  72.9973555  24.1931796  70.5736765  61.4375401  51.6618490
  69.6277979  61.4140558  51.8067408  70.8111063  62.3574400  51.7786598
   3.8588858   2.1559223  27.9809737   3.8802911   1.5844807  27.2133636
   4.3801308   2.9175791  27.7271700  72.7258348  47.8973712  59.4229568
  73.4533691  47.9852046  58.8071559  71.9530308  48.1512870  58.9184443
  31.3094715   1.6142448  61.7448902  31.3996581   1.4247211  62.6787949
  30.6705723   0.9742054  61.4312172  71.5751317  51.2636995  29.1943526
  71.2895939  51.0784578  30.0889969  71.0124335  51.9829130  28.9074159
  18.0980079  44.0709062   3.3982088  19.0358417  44.2010350   3.5388042
  17.9113881  43.2216497   3.7984134  23.1814885  50.4419136  42.9213715
  23.5560799  51.2644529  42.6061869  23.8608146  50.0691509  43.4833288
  33.1626556  11.3992771  60.2966166  32.8305510  11.8976769  59.5499325
  33.1264380  10.4865536  60.0105238  61.9379798  68.9011717  13.1597400
  62.6888660  68.9004993  13.7533736  62.2156993  68.3586693  12.4216378
  15.2531544   3.3876976  52.4847746  15.0010089   2.8319058  51.7473793
  14.7936205   3.0122170  53.2358217  51.3572208  24.3127045  61.7050219
  51.7459265  24.9228939  62.3317623  52.0169846  23.6276707  61.5969801
  74.1956869  71.0023975  56.6239023  74.4451374  71.1993599  55.7210112
  73.6790395  71.7593431  56.9002056  78.2682169  62.7689695  61.5916681
  78.8624987  62.2290277  61.0705948  77.4100710  62.6384211  61.1882162
  27.4700856  60.8968210   6.2328058  26.8222165  61.5467501   6.5050024
  27.2006202  60.6454468   5.3493851  31.5074205  54.4708014  61.4780617
  31.1952829  55.3751135  61.5100861  31.2188220  54.1479015  60.6244373
  10.3407244   2.4798521  37.8189898   9.3944136   2.5930962  37.9078960
  10.5008809   1.5772900  38.0946088  24.1174483  61.8375731  56.2833834
  23.9050460  62.4207544  57.0120907  23.9988351  62.3776007  55.5020142
  58.3064714  44.1419268  45.8028173  58.7361315  43.2866907  45.8168554
  57.9433504  44.2130756  44.9200296  12.9940605  71.6455698  53.3878660
  12.3191071  71.0048580  53.1639051  13.8015723  71.1343098  53.4405327
   3.0320948  70.3801870  49.7757196   2.4599431  71.0944080  50.0563622
   3.0396175  69.7741175  50.5165625  42.2845411  65.0722742  43.2383680
  42.5371552  65.8378983  43.7543535  41.3495350  64.9640512  43.4123898
  40.7532588   1.0445293  39.9550748  40.3809098   1.7749962  39.4611096
  41.6447095   0.9568914  39.6176314  70.9971795  70.4648924  15.1038265
  70.7339022  70.7919407  14.2436194  71.1610797  69.5320272  14.9655092
   6.1546628  10.2740665  22.5202514   5.4881613  10.8614202  22.1638443
   6.5899460  10.7896419  23.1991722  28.9481018  17.2187027  57.5964355
  28.9795531  16.6377625  58.3565378  29.8046423  17.6458534  57.5858402
   1.4532270  54.6589804  21.0024595   1.3946740  55.5987787  20.8304763
   1.8393078  54.5989943  21.8762898   0.4656173   5.9011587  31.0335469
   0.4485036   4.9495586  30.9315538   1.3888312   6.1102470  31.1756182
  26.5235662  51.2477493  43.5216665  26.2493968  50.3380728  43.6380816
  27.3824835  51.2946367  43.9415359  29.7840694   2.6665052  24.0398717
  29.2180426   1.9093498  24.1900873  30.6618793   2.2953829  23.9507103
  19.3413762   8.8576016  26.9447112  19.1132657   9.0774998  27.8479505
  20.2639482   9.0999302  26.8648887  13.3159471  70.7022238  44.8363352
  12.8314185  71.2602615  44.2280102  13.6406612  69.9828959  44.2947102
   6.2947106  51.7209673  49.6880817   6.9656706  51.3859606  49.0932560
   6.2363738  52.6539516  49.4822454  40.8109856  68.7505722  25.5610967
  41.7339754  68.4979057  25.5390716  40.8187008  69.6980000  25.4248929
  57.3052398   2.7394089   4.1923496  56.3912264   2.9493889   4.0007278
  57.2771017   1.8523678   4.5509559  21.3706565  73.1397724  11.8067777
  22.0151591  72.9720068  12.4943125  21.8684435  73.5703325  11.1117554
   7.5745571  44.8145008  21.4206195   7.8978103  44.3013096  22.1611404
   8.3579409  45.2226925  21.0519457  54.7433498  31.0088147  55.0927387
  54.4396556  30.2959432  54.5307658  55.6982093  30.9565152  55.0510250
  19.0220249  68.0378723  10.7235849  19.2521441  68.7573671  10.1357031
  18.0648994  68.0348110  10.7351601  47.0142879  26.8891044   1.2142183
  47.4707140  26.0512443   1.1373951  47.6164247  27.4454398   1.7083360
  10.4328859  56.9725800  43.3320284  10.5633926  56.2779856  42.6864767
  10.3237367  56.5099573  44.1628695  72.2416428  46.3702059  37.9925251
  71.6468456  46.3601971  37.2426271  73.1060520  46.5223789  37.6105952
   6.6114951   4.5161995  31.0517335   6.8180657   3.8312801  31.6876936
   6.2145615   5.2145561  31.5722871  56.7354480  10.1536163  14.4591653
  56.4618627   9.7640690  13.6287224  57.6255242  10.4655155  14.2956984
   8.9275114  46.6721006   4.5378115   9.4078390  47.4982209   4.5929434
   8.9799134  46.4257474   3.6143400   8.5695535  73.6630392  52.5076199
   8.7112331  73.0282545  53.2099104   8.4407550  74.4964504  52.9604578
  71.2963779  22.4107356  15.3219892  72.0158513  22.9071326  14.9318888
  71.6270287  21.5142531  15.3787472   0.6345638  38.7601842  52.2297476
   0.1977166  38.1384314  52.8118334   0.9433158  38.2265080  51.4975618
  53.4448329  45.5926991  34.8698926  54.0391985  46.0104132  35.4931736
  52.6536933  45.4120874  35.3775454  25.0023222  57.8222847  60.0139618
  25.7729912  57.4904060  59.5533562  24.5367813  57.0360851  60.2992582
  77.8458298  61.0620928  50.8055115  77.6179013  61.3720083  51.6820002
  77.5906916  60.1395226  50.8038044  67.9125138  47.4504705   7.3818590
  68.0553813  47.0096250   8.2193996  68.7925144  47.6553292   7.0658447
  21.8169141  61.9142532  43.0272198  21.8603420  62.8401613  42.7883816
  21.5903282  61.9171667  43.9572096  70.4872815   8.5402378  44.4682837
  71.2124554   8.2020172  44.9936104  69.7028653   8.1835350  44.8850489
  37.9362992   7.0055470  52.1988058  37.6860980   7.9219612  52.0812511
  38.8793556   6.9918999  52.0354366  24.7409201  56.8700695  20.7988787
  25.6290531  57.0243835  21.1208057  24.4871283  56.0331821  21.1880398
  51.9105188  18.4264740  56.0053492  51.1864201  18.2484612  56.6055346
  52.4348251  17.6257500  56.0184288  21.8775344  51.7550802  45.7143974
  21.9010282  51.7075586  44.7586679  21.6367960  52.6620579  45.9032631
  76.6430648  58.8157983  33.1230308  76.8459661  58.4507699  32.2617485
  76.2058647  59.6461434  32.9343082  64.3321816   3.8637003  21.4030004
  64.4926731   3.5069737  22.2766256  63.9328615   4.7187742  21.5630865
   5.7791388  47.8533983  40.9011793   6.1877340  48.3459616  40.1893759
   5.1410997  47.2880745  40.4658127  19.0194714  47.1802092  27.2050977
  19.8123753  47.2430134  26.6725636  18.7833929  46.2530756  27.1747661
  26.3305064  16.0505470  30.8164072  27.2729322  16.1792072  30.9237003
  25.9491980  16.9092831  30.9991693  66.9081481  15.6730409  11.8191292
  66.1890478  16.3014264  11.7538406  67.4720629  16.0250802  12.5078203
  11.6571796  55.9240341  12.9207361  10.9793091  56.5977192  12.9743671
  12.3994362  56.3636160  12.5059414  60.6296603   8.4037098  47.4374294
  60.7152597   7.7101120  46.7833471  60.1596037   9.1036209  46.9842196
  50.6054230  28.6306949   0.1321985  49.7786810  28.5907264   0.6129600
  50.6631805  29.5371003  -0.1699923  44.5067994   6.8933472  30.6265140
  45.1129941   7.2046932  31.2986946  45.0542036   6.3871273  30.0262475
  18.3751380  58.0001020  13.9569747  18.6927485  58.0922127  14.8552346
  17.4223030  58.0498266  14.0335548  22.4552535  43.2118262  63.9140338
  22.1629524  43.9271773  63.3491777  23.4012412  43.3371486  63.9890924
  41.5179018   2.4627098  25.8976293  41.1518494   3.2923445  26.2041306
  42.1685640   2.7154335  25.2426481  24.7494609  69.4349180  37.7937366
  24.0035465  69.6417008  37.2306396  24.4459371  68.7064420  38.3354332
  25.7093446  21.3015313  10.9662439  25.8027332  20.6352229  11.6470815
  25.5091302  20.8060784  10.1720955  12.0825148  59.3114853  37.8275418
  12.6366687  60.0871468  37.7409720  12.5890982  58.7155867  38.3793688
  47.7456252   5.1757034  30.6260109  48.3810965   5.4826197  29.9793196
  46.8958441   5.4297146  30.2660394  36.5557130  36.9173474   2.9219629
  36.6502173  36.0733790   3.3635761  37.4513920  37.2433658   2.8342010
  56.1616817  52.6303768  49.0569830  56.0200015  52.8628540  49.9746513
  56.1388770  51.6735077  49.0460443  33.5263538  71.5697575  10.2803147
  34.3811131  71.6879082   9.8659962  33.0446577  72.3691750  10.0678718
  19.7775690  29.5659908  44.8005152  19.5635936  28.6647686  44.5591831
  20.4891739  29.8099312  44.2086172  68.9498630  72.9387617  49.7869825
  68.4770075  73.7505293  49.6034718  68.4229186  72.5004387  50.4551363
   4.6100488  58.5470867  53.4556389   4.0831485  58.0991411  52.7938604
   5.2863812  57.9126835  53.6929989   9.8197705  62.3354530  35.3896403
  10.4340529  62.9921389  35.7177472  10.3591609  61.5605974  35.2318764
  60.0568107  59.9571466  33.6379409  61.0111490  59.9523449  33.5641241
  59.7813240  59.1334200  33.2356811  37.5016133  10.3835663  35.6666207
  36.6708509  10.8539280  35.7360959  37.6053719   9.9539932  36.5157008
  18.7073720  59.7219467  49.0927935  17.7921200  59.5867872  49.3383074
  19.2007625  59.1565800  49.6870661  46.9281880  13.3780178  40.0632668
  46.6544262  13.9655479  40.7676077  47.2352520  13.9621243  39.3698907
   5.5477945  19.6039624   0.3221800   6.0000603  18.7917609   0.5502512
   5.5276482  20.1041217   1.1380627  22.9418969  54.5234919  46.0334826
  23.2297659  54.8142385  46.8988323  23.6609626  54.7630453  45.4488516
  76.7555539   8.5101494  48.8479757  77.2467295   8.6914143  48.0466509
  76.7443243   9.3450150  49.3160486  75.0674293  71.0807133   1.5306441
  74.8150963  70.2507257   1.1260661  74.2493123  71.4366341   1.8773943
  46.3845555   0.5757746  31.9720793  46.2363187   1.2019333  31.2634301
  46.2945906   1.0936770  32.7720284  22.6089478  73.5834074  39.6337652
  21.9809389  72.9891872  40.0445414  23.4249520  73.0841160  39.6009207
  24.5268846  73.5960770   2.8736189  23.7626529  73.7193823   3.4366256
  24.1998601  73.7538290   1.9879548  37.6493669  73.1861115  58.1676102
  37.5199866  73.6423349  58.9990854  38.5971713  73.0684662  58.1039190
  38.9706969  62.2319937  15.8584929  39.3895006  61.5849066  16.4260399
  39.0908337  63.0645990  16.3151848  64.5669238   3.1932386  24.2419767
  64.4854442   2.2868475  24.5387006  63.8727609   3.6606773  24.7065949
  64.1960628  17.1682639  11.4487793  63.9514704  16.9505258  12.3482181
  64.1843517  18.1250281  11.4223148   5.7715261  56.3661718  20.6213975
   6.4136589  55.9296322  20.0616407   5.6783378  57.2402048  20.2424264
   6.6455215  67.1862602  55.6605864   7.2350252  67.8729725  55.3489065
   5.7927078  67.4174261  55.2924776  20.6394911  66.2421703  20.6826401
  19.9236894  65.8158016  21.1538839  20.9959865  66.8728399  21.3082576
  29.4762979  12.9284748  28.3539677  29.7412673  13.8388142  28.4855390
  30.2974481  12.4366459  28.3607411  19.7310448  66.8586636  36.4257026
  19.9495173  67.5099564  37.0922756  19.0421009  66.3281631  36.8259048
   9.4670670  17.8358836   5.7192613   9.9384253  17.4620004   4.9747755
   8.6405484  17.3538251   5.7460119  38.5317469  57.5782299  20.7533216
  38.5963273  58.5083055  20.5364871  37.8492689  57.2434998  20.1715922
   6.2189952   6.0573277  43.6092520   7.0864550   5.6839260  43.7651777
   6.3869397   6.9785198  43.4106398   0.5563776  38.9066596  23.7254288
   0.9525912  39.7589393  23.9067222  -0.3862365  39.0722461  23.7424614
   0.6066800  26.6474804  25.7685757   1.3581897  27.0302948  26.2212610
  -0.1533365  26.9606575  26.2590098  60.5539075  18.1107029  16.4012003
  59.6841828  18.3018097  16.7523217  61.1341492  18.7246212  16.8513763
  27.7593323  12.1539578  30.4079318  27.9878824  11.2720951  30.7017279
  28.4171806  12.3635468  29.7449565  74.4496552   5.3745922  38.8026667
  74.9345986   6.0459885  39.2825484  75.1084343   4.7171577  38.5790062
  58.5815541  20.6892666  42.6215363  59.0193693  21.4151176  42.1769142
  58.4281126  21.0102829  43.5101509  31.6122341  72.8717661  42.6365471
  31.8401361  73.4921408  41.9441462  30.9879899  72.2733927  42.2260618
  41.3171152   3.1171259  56.9435835  41.9757763   3.1445345  56.2495756
  40.6050829   3.6689457  56.6199493  20.7034278  55.6164503  26.7764807
  21.4509630  55.0402641  26.9359517  20.1715541  55.1465368  26.1342025
   6.1664182  49.6063423  16.1057413   6.1189032  49.8762035  17.0228827
   5.3885829  49.9914646  15.7021511  12.1071517  53.3314085  57.5028467
  12.4111557  54.1977406  57.2321367  12.5357401  53.1795835  58.3451605
  76.5414281  47.5950956  24.1108179  75.6895825  47.2586870  23.8325739
  76.4795753  48.5413122  23.9801216  19.8008537  53.1962681  23.3068013
  19.4026768  53.0393505  24.1629910  20.7393026  53.0782604  23.4538341
  37.5518465  73.8374043   7.9935205  38.3651376  73.4228754   7.7055019
  37.7017379  74.0434742   8.9161795  42.6100782   8.1202396  36.3386345
  42.2727779   8.4212002  37.1823645  43.5521499   8.0236992  36.4779615
  25.1997042   4.4204983  58.1180000  24.4850331   4.6586498  58.7085629
  25.5465429   5.2583965  57.8116322  30.0433207  72.5609255  35.1612329
  30.2669907  71.7999554  34.6253943  29.1462851  72.7775526  34.9070048
   6.8751621  43.8489389  49.9530029   6.0610747  44.0104103  50.4298878
   7.4331266  43.3892727  50.5803871  45.8102004  26.2477192  37.1222425
  46.7305271  26.4762386  37.2526717  45.4067019  27.0535931  36.7997670
  46.2156693   5.0562367  24.3399882  45.2918593   5.0856766  24.0911102
  46.6684286   4.7699579  23.5467124  66.0406295  46.5527615  16.2567580
  65.7964078  47.3721012  15.8263326  65.6329719  46.6055569  17.1211994
  75.1036278   5.4313311  31.7092752  74.6596877   5.2045998  30.8921194
  74.7341124   4.8312887  32.3570704  53.8399401  51.2747669  25.9641504
  54.1399494  51.9456053  25.3507948  53.7894240  51.7260361  26.8067861
  76.0677405  49.0724850  37.2572231  76.5018290  48.8202810  36.4422417
  76.7805603  49.3517971  37.8317666   0.9133617   7.2030434  33.7647176
   1.1979143   7.2947582  32.8554058   0.6450883   6.2873348  33.8405228
  27.7464628  72.3504734  18.3417666  27.9131508  72.5105429  17.4128830
  28.5938144  72.4897814  18.7646413  38.5830037  15.7507690  20.9616709
  38.7622456  15.2388748  21.7503858  37.6281825  15.7617649  20.8951235
  16.9825380  20.0150390  15.4450466  16.2633578  19.3911548  15.3461315
  17.6808040  19.5112844  15.8632423  42.8571463  59.8805380  12.2550189
  43.7688875  59.6635342  12.0604205  42.4553394  59.0427065  12.4848557
   3.9889670   2.6676830  48.6495638   3.8236571   1.9020542  48.0993605
   4.2973042   3.3384213  48.0402470  28.7635506  21.9184956   2.8722543
  29.4809756  21.2963947   2.7517489  28.9899937  22.6575359   2.3076451
  12.3420072  60.0464773  41.9619989  12.8250670  59.4162798  41.4274502
  11.9374168  60.6382084  41.3276529  38.0295654  69.2645411  60.8694811
  37.3268111  69.6797304  61.3694651  37.5770219  68.6898093  60.2521322
  62.0663166  71.1520195  55.0755405  62.7573204  70.5069780  54.9249792
  61.3939571  70.9381485  54.4286871  34.0419960  71.6924429  33.6298537
  34.0785170  70.7359552  33.6351228  34.4250584  71.9421291  32.7889299
  55.2709166  24.9095806  34.3956256  55.7237903  24.4623550  35.1105571
  55.5031864  25.8317455  34.5046782  16.7262459  69.7208977  26.8352294
  16.2679935  69.5751429  27.6628733  16.2348270  70.4236221  26.4098883
  66.2166818  40.1088471   1.0369112  65.9531327  39.5707507   0.2904369
  66.4177270  39.4777722   1.7279674   2.1186452  65.4201841  25.5150867
   2.3859154  64.9613285  24.7186899   2.8102756  66.0650492  25.6635213
  27.7114415  67.0369291  38.9385581  27.1799588  66.5807199  38.2861543
  27.5539851  66.5587091  39.7526479  24.3039298  12.1222448  26.2970185
  24.2234874  13.0205536  26.6176438  24.7236443  11.6483533  27.0149994
  55.0989452  21.8109131  16.3224733  54.8627225  20.8992720  16.1511827
  55.2470437  22.1870446  15.4548192  75.1236057  62.8135363   6.7692745
  74.9772429  63.7415806   6.5861213  74.9023437  62.3699978   5.9504038
  54.8951197  22.2656846  28.6543036  55.3767967  21.6815948  28.0685902
  54.3275499  21.6835499  29.1594911  11.1459839  21.2647581  33.0095410
  11.2594569  20.7982159  32.1814752  12.0358455  21.4879823  33.2825780
  76.1816478   1.4770886  24.9718404  77.1384277   1.5043367  24.9796963
  75.9158269   2.3966360  24.9738193  39.5303097   6.3225573  39.5582628
  39.2601648   6.8324649  40.3219700  40.4760709   6.2180394  39.6623969
  23.2906948  58.9214997  62.3848124  23.0472802  59.6578841  61.8238124
  24.0990852  58.5836892  61.9992998  28.5136745  49.7056888   5.5727150
  28.9198128  48.8396357   5.6078626  27.6738168  49.5946346   6.0182907
  66.1580029  26.3228250  41.1443138  65.3792158  25.7665658  41.1270237
  66.0846487  26.8121982  41.9636822  18.2270408   7.5492257  33.6482382
  17.7408004   6.7948014  33.3156013  18.1950188   7.4540401  34.6001554
  23.4346318  27.0509958  34.7989416  23.5207868  26.4891386  35.5690885
  23.3468628  27.9348159  35.1558614  42.1505932  15.1273617   4.1593567
  41.9144181  15.7923683   4.8060489  42.9074863  15.4950699   3.7031388
  21.1619544  16.9600809  19.5307982  21.9874048  16.4758682  19.5507312
  21.3775373  17.7829981  19.0919781   8.5236830  66.2466335  33.5448980
   8.8404948  65.9334469  32.6976824   7.6887405  66.6706133  33.3465481
   7.3164022  31.4499807  54.4168234   7.4510705  31.3385439  53.4757233
   7.6948154  32.3070168  54.6130991   6.5603423  29.2025590   8.2798916
   6.8501592  29.7686100   7.5644708   7.0400172  29.5193052   9.0452772
  43.7440486  68.9219575  63.2958673  44.3886550  68.4952216  62.7314104
  43.6699672  69.8098950  62.9461377  52.3826569  72.4921945  30.6746531
  51.7157321  72.1281490  30.0924897  52.8528124  71.7278698  31.0078096
   7.8690060   3.7883796  63.3840946   8.5049947   4.3657674  62.9617494
   7.3782142   4.3622197  63.9723646  65.9379831  13.1195939  63.5543585
  65.9621134  13.8093781  62.8911495  65.5519894  13.5397148  64.3229580
   1.8511087   4.4733670   4.6577719   0.9722813   4.8120251   4.8286667
   2.4210460   4.9862358   5.2308065  56.5217033  52.4686956  56.2038183
  55.8521357  51.8651772  55.8818340  56.7037097  52.1710873  57.0951843
   6.8403536  32.8158736  16.8369532   7.4681705  32.0938182  16.8636549
   7.2457415  33.5053110  17.3628509  72.6400986  36.7509913   8.6346281
  71.7797527  37.1695566   8.6056477  72.5675824  36.1027098   9.3351305
  20.0767908   4.5481571  31.8080831  19.3869165   4.6384081  32.4654722
  20.8352581   4.2315992  32.2987485  78.4150132  46.3942051  22.4115849
  78.9648625  45.8645296  22.9889417  77.8641570  46.9033432  23.0062008
   5.2819431  25.9085250  17.4554098   5.0727510  25.1032948  16.9820428
   6.2119395  26.0538340  17.2815609  65.3468111  21.9498181  49.0614557
  64.7357467  21.5529895  49.6822262  65.6229070  21.2249756  48.5005617
   3.1995478  45.7397318  34.7851801   2.3709196  45.4324150  34.4175363
   2.9431972  46.3080978  35.5114579  41.7404571  41.9851112   8.5138935
  40.9525552  42.4023771   8.8622218  42.4590531  42.5410748   8.8151473
  17.0309067  50.3616142  30.2808309  16.5128791  50.5915308  31.0522056
  17.8797960  50.7781506  30.4295540   5.6966060  25.5873799  28.4806705
   6.1013514  24.7757840  28.7868166   5.0564533  25.3043222  27.8277421
  37.0680241  46.0595505   7.5390436  37.7734796  46.5821688   7.9204037
  36.2780181  46.5794472   7.6867916  37.5585039  73.9166956  63.3381255
  37.8762133  73.0957465  62.9621782  37.8138681  74.5856743  62.7029185
  10.7820094  28.5162354  48.6712170  10.6283808  27.9988527  47.8806829
  11.5970898  28.9862370  48.4952211  73.8000700  55.8529854  10.0654697
  73.0195108  55.4253006   9.7132683  73.4956729  56.7176390  10.3410530
  21.5522432  16.2022197  45.6742239  22.2323227  16.5815783  46.2308264
  21.8957329  15.3433704  45.4279995  33.3001137  65.4488325  30.6403446
  33.7219667  66.2684011  30.3823209  33.0770612  65.0232697  29.8124719
   8.4611320   0.4872888  44.1358137   8.7389618  -0.4273933  44.0868330
   8.3900708   0.7652514  43.2226229  12.2519171   3.2125175  42.3654842
  11.9580269   3.1956777  43.2762957  11.5631115   2.7552986  41.8830633
  34.0106034  15.8392859  11.3134110  33.1351948  15.4767275  11.4492130
  33.8724756  16.7849278  11.2594342  77.6885605  21.0713387  29.3714404
  77.5032385  20.2730441  28.8768578  77.2051534  21.7566323  28.9100027
  76.6756225  30.1605225  10.6330717  77.0603159  29.5357442  11.2478042
  75.7583001  30.2242494  10.8989489  70.4847506  44.5000362  46.4941788
  69.8907444  43.8345194  46.8412733  70.1059565  44.7418261  45.6490278
  63.9928257   5.5728330  61.2503908  64.2223417   6.3223447  61.7997439
  63.4572243   5.9446229  60.5495809   7.0395666  45.1167536  27.9795098
   6.2788844  45.0448418  28.5560727   6.6862977  44.9862146  27.0995140
  13.0814242  40.7463121  24.9753714  12.5474095  40.5952168  24.1954803
  13.8088572  41.2864351  24.6665978   8.2265168  19.0213609  21.7320585
   7.2811842  19.0209913  21.8823171   8.3311588  19.4144547  20.8655930
  19.5622969  49.6688700  18.1838548  20.1609826  50.4060078  18.0637121
  20.0380349  48.9147329  17.8357410  54.5193346  70.7248239  63.5395789
  53.6250432  71.0538177  63.4488179  54.5284374  69.9128847  63.0327214
  66.2496713  32.1280599  34.6670103  65.3475228  32.4438334  34.7184491
  66.2841681  31.6340232  33.8478827  75.9985057  54.4980812  20.7475901
  76.0128549  53.5850525  21.0346556  75.0766093  54.7506142  20.7982373
  30.6762195  25.7486725   7.1985209  29.9038458  26.3090205   7.1231550
  30.4406857  24.9511218   6.7245305  67.9425398  18.0700517  19.7852170
  68.7239292  18.6228192  19.7747350  67.2117630  18.6882651  19.7821403
  24.7331476  26.4056349  37.6922703  24.1559720  25.9547162  38.3085275
  24.7015429  27.3234391  37.9622102   7.9972076  21.7426777  60.4520082
   8.1427854  21.0628462  61.1099339   7.9840970  22.5596499  60.9506226
  12.6574039  71.3376236  36.6947222  12.5114310  72.1659851  37.1515965
  13.6082196  71.2272692  36.6967916  51.1505142  42.4089575  14.8134863
  51.0068861  42.1052599  15.7097960  50.4529086  43.0466223  14.6619773
   4.0004793  20.8881783  16.8639958   3.3907348  20.6757545  16.1573708
   4.1005918  21.8389297  16.8162405   6.5148026   1.3243258  15.0324714
   5.9000444   2.0056713  15.3046358   7.1685386   1.7870629  14.5083201
  71.7711040  69.1914177  11.3547277  71.4057168  69.7933435  12.0031154
  71.0781464  69.0932989  10.7017243   9.7168219  31.4913917  33.1695151
  10.3090131  30.9302306  32.6688766   8.9149147  30.9760284  33.2565618
  68.0465996  60.5965236  12.0703423  68.6467611  60.1233664  11.4940107
  68.5678720  60.7946185  12.8483295  68.1012157  49.0894079  14.3736637
  68.3058420  48.8768435  13.4630728  68.7499365  49.7498322  14.6170473
  75.0418133  38.4280610  10.5478966  74.3604457  39.0999222  10.5239856
  74.5946381  37.6239347  10.2839887   5.2232188  18.9525616  41.1662769
   4.9081331  19.8333514  41.3691568   5.4936904  19.0002406  40.2493238
  71.8297926   9.0058792  18.0069160  71.6827551   9.0174586  18.9526844
  72.6731148   9.4434083  17.8902626  41.7374627  42.2604506  11.7459537
  40.8049241  42.2001718  11.9532444  42.0104233  43.1015019  12.1124985
  54.3799432  57.8808169  54.2848710  55.0954302  58.2847528  53.7938033
  54.8074062  57.4690466  55.0358389  26.8082333  12.5172722  20.7848620
  26.6044164  12.7305079  21.6954780  27.5799036  11.9534063  20.8378506
  77.9138595  30.4109550  56.2841940  78.5751571  31.0965037  56.1896515
  77.1911593  30.8372045  56.7448950  70.4118356  38.7313914  60.2715445
  71.1209652  38.5915542  59.6439981  70.6068102  39.5805383  60.6679821
  36.7561316  25.5605745  17.8688347  37.4555445  25.5650496  18.5223103
  35.9817529  25.2670169  18.3488286   6.0589540  26.3814020  24.4301581
   5.6627935  25.7119155  24.9879003   6.8930966  26.5833592  24.8540092
  44.0076485  39.1532516   8.3033270  43.3981219  39.4709873   8.9694732
  44.5689145  39.9051785   8.1140739  42.3996916  15.2134418  49.4703531
  42.4412409  14.3450201  49.0699196  42.6347962  15.0662541  50.3864813
  73.1848064  40.5758286  11.4059174  73.5551348  41.3956690  11.7329502
  72.3102471  40.8139658  11.0982347  67.1198312  38.4663963  19.7759211
  67.7814046  39.1554809  19.7149944  67.6192561  37.6702642  19.9575245
   2.6732850  49.3786383  19.9035990   1.7578718  49.5637321  19.6938562
   3.0608892  49.1122675  19.0699077  57.2709552  27.8245997  15.5868745
  57.2615972  28.7082696  15.2190816  56.3839760  27.4953318  15.4416764
  63.9519039  23.0842519  45.9150839  63.9647392  24.0362644  45.8163977
  63.5828558  22.9387116  46.7862082  26.8369722  38.6069322  12.3328972
  26.3357615  39.2919445  12.7753663  27.5693083  39.0704918  11.9266558
  62.3241773  10.4081905  12.9749942  62.5533560  10.7069862  13.8550115
  62.4363116  11.1818278  12.4225974   0.6681133  14.7772813   8.1160969
   1.6130237  14.7512960   8.2667655   0.5706354  14.6149671   7.1778095
  13.1312406  51.1508846  27.3019147  12.6729000  50.3357601  27.0976543
  13.5195315  50.9979486  28.1633496  65.2677372   9.0039146  43.5406971
  65.5979732   8.1319094  43.7569904  65.9904960   9.4251513  43.0754948
   8.4963840  29.6972775  58.7850952   8.0279124  29.6743202  57.9506874
   8.8121825  30.5979562  58.8577700  30.9845900  33.1433763  62.4023856
  30.2765989  32.5393285  62.6262186  30.7594036  33.9552154  62.8567426
  62.4657193  24.7578144  29.3544483  62.7087537  23.9745355  28.8608503
  61.7282358  24.4794822  29.8974776  51.3839737  62.2741376   1.1599066
  50.9367386  63.0896793   1.3859655  50.7226435  61.5943991   1.2896206
  67.8569999  31.0012960  19.0011525  67.0798329  31.0068989  19.5599127
  68.1036428  30.0782394  18.9431548  56.8920031  60.3739262  36.7293525
  56.1296573  60.2243757  37.2885466  57.6387540  60.3345871  37.3268867
  29.3944215   6.5355481  60.6067033  29.7058748   5.6324471  60.5463464
  28.6984896   6.5055217  61.2632166  10.4234493  59.8733521  55.8610582
  10.2590430  60.2826500  56.7105722  10.9174240  59.0802431  56.0689068
  69.4915602  45.2494287  43.7433100  69.8936483  44.3825054  43.7981319
  69.9472949  45.6794930  43.0197191  36.9533356   4.5496030  15.3430273
  36.2973662   4.9109597  14.7469093  36.6267712   4.7639413  16.2168934
  33.5755264  62.9367569  22.9312086  34.3670773  63.2343117  22.4827218
  32.8585529  63.3548859  22.4543977  53.5826250  71.4981002  40.5246544
  53.9451795  70.7283986  40.0860834  53.1225298  71.9734291  39.8328424
  10.7510817   1.0972175  41.6654730  10.1342249   0.8621941  40.9723043
  10.8838308   0.2846053  42.1536016   4.6022794  16.0692275  34.0814161
   5.4384685  16.4427137  33.8029766   4.8261780  15.1979554  34.4085026
  32.5181890  23.4083414  29.0303254  31.8419266  23.5158110  28.3614826
  32.6379657  24.2860317  29.3930197  63.3012632  26.1947322  49.0306854
  62.8837875  26.6143847  49.7829056  63.6303893  26.9221807  48.5027409
  70.3899917  15.3530169   5.1455832  69.5488039  15.7923758   5.2704787
  70.2483121  14.7725260   4.3977940   0.4288718  29.1459632  41.7710972
   0.3861263  28.2823658  41.3604832  -0.3404749  29.1791916  42.3396349
  27.0706844  50.3267241  12.2970128  27.2361398  50.3013706  11.3545620
  27.1858740  49.4211245  12.5848579  51.5787064  71.3891861  58.6274815
  52.1001781  71.3253460  59.4276237  50.9514507  72.0899238  58.8056660
   1.0835820  46.8192720  10.0246799   1.5776227  47.3619556   9.4101477
   0.5788554  46.2261391   9.4681942  40.8709168   0.5779757  52.8618465
  41.0081326   0.0440754  53.6443792  41.5201127   1.2778200  52.9325209
  63.6304298  43.9132452  56.2975025  63.9199749  43.1355095  55.8205128
  62.6797584  43.8182116  56.3560200  14.4494271  24.8144269  49.7441626
  14.3516338  23.8885760  49.5217466  14.0530753  24.8955154  50.6116676
  55.9193316  51.5820742  29.2288780  56.4504972  50.7977724  29.3665934
  55.4031959  51.6656208  30.0306630  59.6612604  54.2894356  62.9331091
  58.7439545  54.4898205  62.7470186  59.9604829  55.0190000  63.4757264
  57.8599339  22.8703488  55.0471173  57.3819988  22.3686398  55.7074956
  58.7691193  22.5865449  55.1423399   5.7329404  59.9942398  26.8305922
   6.5900689  59.7944736  27.2069621   5.1446211  60.0378084  27.5843930
  15.2816844  19.5211637  25.2328873  15.4219782  19.4019663  26.1722183
  14.7517848  18.7677944  24.9723625   4.5570061  30.3252649  36.8902397
   4.1949064  30.3553605  37.7757955   3.9273870  29.8045254  36.3915992
  51.3264001  26.5712584  55.6313507  50.5009288  26.2003888  55.9432564
  51.9933836  26.1784209  56.1944167  69.8085955  21.2146115  53.0783844
  69.4685569  21.2992215  52.1876287  70.7484481  21.3742089  52.9921389
  13.3133817  58.4245491  15.6332839  13.4731889  59.0993834  14.9735165
  13.2855546  58.9020348  16.4624190   0.5002533  47.2781277  17.4222434
   0.5784975  46.7336035  16.6389143   0.1370864  46.6919422  18.0861211
  22.9040313  23.8228369  46.6073322  21.9780993  24.0200806  46.7486668
  23.2515311  23.6630607  47.4847984  33.1595778   7.0839310  41.1794519
  32.5324655   7.2568625  41.8816280  32.6775622   6.5401685  40.5563831
  24.0261110  70.3855226  14.9015844  23.7392887  70.9645340  14.1953897
  24.1967710  69.5481715  14.4703662  65.7243922   4.5469213  28.1528044
  65.9551540   4.7059736  27.2375536  65.0290766   3.8902235  28.1138635
  56.8557175  72.1324735  62.3999141  56.8008240  71.4753203  63.0937212
  56.9683726  72.9619865  62.8640783   1.3295898  10.9518075  59.3723583
   0.7514772  10.7784641  60.1153040   2.2128671  10.8728695  59.7326660
   1.7625213  26.7096233  36.5556121   2.5575942  26.9746375  36.0931635
   1.2161961  26.3063455  35.8809829  72.5739375   5.7471508  48.2168293
  73.3391622   6.1820090  48.5930777  72.9202494   4.9402639  47.8357363
  24.6611071  34.0455961   0.6877332  24.1263819  33.4932947   1.2580532
  25.4990625  34.1208196   1.1442493  61.7598787   6.1209363  21.0416603
  62.6815119   6.3231850  21.2026548  61.6806594   5.1884234  21.2425971
  61.2317053  66.8082762  14.9082255  61.4687303  67.5854921  14.4022691
  62.0101896  66.2524891  14.8722816  60.1217941  37.2277212  40.1773405
  60.6641880  37.4117613  40.9442663  60.6508020  37.5185108  39.4344926
  34.9958420  24.8799443  19.8218238  35.3733087  25.2200556  20.6330442
  34.6054339  24.0425420  20.0719595  33.2483315  25.8590388  32.0492840
  32.9183292  25.3518438  32.7909613  33.6724496  26.6187000  32.4483728
  49.2405101  67.3655549   7.2087884  48.6705210  68.1343511   7.1915668
  50.0608119  67.6839629   7.5855553  51.6763599  41.2951567  62.6098409
  50.9605606  40.8218779  63.0339496  52.4672182  40.9666451  63.0374606
  63.9974096  20.4474187   7.1515691  64.5699540  19.7651577   7.5022042
  64.5966616  21.1201358   6.8281776  10.6282127  45.9630013  21.1466885
  10.1768720  46.7220736  20.7774568  11.4539373  45.9174776  20.6646729
   9.5215988  45.2192354   7.0751512   9.6585208  45.8408594   6.3602620
   9.1909659  45.7536221   7.7971917  53.8153687  16.5687919  15.5108929
  53.3432022  16.6838288  14.6862376  53.1435052  16.6608775  16.1864316
  24.9614278   0.0878176  28.3475018  24.2281020   0.0363287  27.7344656
  25.7399361   0.0831446  27.7906036  56.5153375  19.5463908   8.4940702
  57.1181026  19.0867186   7.9095978  56.7457858  20.4703808   8.3972913
   5.2932739  51.6499376  21.4548302   5.0246096  52.5537491  21.2899804
   5.7712340  51.6894484  22.2832179  25.7622004  52.4066401  30.7389450
  25.5146813  51.5985107  30.2896261  25.6013989  52.2247839  31.6648531
  14.2640412  53.0989790  32.3148465  14.4594812  54.0360117  32.3153830
  14.0747464  52.8943205  31.3991427  56.9582573  32.3492360  37.1592093
  56.3735762  32.9701853  36.7246938  57.3123971  31.8156600  36.4477944
  10.0974643  56.7867565  36.8915153  10.8959365  57.3099327  36.8210793
  10.2979374  55.9789419  36.4187765  47.4300940  50.9347849  61.9555129
  47.5393684  51.3838665  61.1172913  46.9314606  51.5497463  62.4934868
   1.7170396  31.6254854  33.4643507   1.7160065  31.7041087  34.4183159
   2.4524516  32.1682549  33.1800890  25.0712600  19.5271477  33.2955933
  24.1678629  19.2108330  33.2884240  25.4049384  19.3187222  32.4229813
   8.9366406  54.3817616  21.4691210   9.8770380  54.5511436  21.5256286
   8.6004978  55.0813627  20.9089446   4.8122910  43.1225252  41.1360168
   5.6546223  42.6869392  41.0057402   5.0272036  44.0547228  41.1685276
  15.5058908  63.2748222  14.3085945  15.5037642  64.0373230  13.7299550
  16.2792647  62.7762222  14.0449274  32.1594524  42.5327730   0.3153426
  31.9275570  42.7418947   1.2201761  31.7662048  43.2360554  -0.2013567
  29.7878633   3.1196817  14.8898363  29.5749716   2.8967699  15.7960474
  30.5658508   2.5985273  14.6914220   1.0696862  30.4104447  22.9821515
   1.8973511  30.1489043  22.5786686   0.9202920  31.3015842  22.6662636
  13.1308067  60.7371140  31.5002108  13.1713092  60.0807476  32.1957541
  13.8596475  60.5167150  30.9201717  35.8341245  19.4365391   2.9586074
  36.3405982  18.7554249   2.5161135  35.9592287  19.2603573   3.8910991
   9.8069352  48.8950872  34.0683961  10.3568971  48.2530975  34.5174193
   9.4065732  48.4063053  33.3493447  10.7279146  66.2104464  51.9889307
  11.4739823  65.8068466  52.4324608  10.5588460  67.0113087  52.4851847
  26.6703701  23.4368992  20.2975082  26.0415363  24.0977025  20.5875802
  27.4977207  23.7004590  20.7003212  11.1667931  37.8759265  14.2911971
  11.0580909  36.9391513  14.1272843  11.1552918  37.9550934  15.2450478
   5.2498460  69.9015379   4.9909270   6.0046798  69.3747902   4.7282583
   4.6002215  69.2611885   5.2810484  59.9390785   9.3254360  39.0619421
  60.0674526   9.3192371  40.0104761  59.7521559   8.4133801  38.8395762
  40.7664521  69.9811988  63.6016552  40.5125518  69.5260124  64.4045073
  39.9403496  70.2912264  63.2306181  15.9855032  59.1440678  43.7549019
  16.7555380  59.6731520  43.9631081  16.3429654  58.3062887  43.4606647
  41.3691131   0.1601967  27.6374078  41.3581971   0.8851894  27.0125079
  41.8865339  -0.5199209  27.2061944  69.5907250  10.2071106  35.7078218
  69.2991683   9.5043033  35.1270556  69.7691533   9.7708547  36.5409327
  30.3918544   0.3036198  27.4022698  31.2643150   0.3403839  27.0102334
  30.3454853   1.0823711  27.9569101  65.2374461  59.9110031  60.2450466
  65.1386467  60.8565712  60.3562689  65.4044941  59.7960329  59.3095732
   1.4157540  68.2554197  11.6078341   0.9115501  67.7384663  12.2361374
   2.2801816  67.8444386  11.5984845  22.7702546  33.2132268   7.8445977
  23.0061436  34.1185546   8.0470121  22.1778846  33.2817459   7.0958412
  31.6317677  34.1253781  18.3619702  32.1460223  33.6643147  19.0246892
  32.0557904  33.9038706  17.5328922  20.7870626  65.9086227  48.2199764
  20.9150767  65.0746107  47.7680159  19.8376787  65.9871197  48.3134747
   3.9540944  55.8240461   5.4542929   4.4972575  56.0161877   6.2186801
   4.5508316  55.9042311   4.7101775  75.3269005  48.1532955  55.4103374
  76.2247843  48.2319307  55.0880718  75.2690798  48.7958622  56.1174393
   2.5415829  45.6618214  13.0695808   3.0929536  44.9640799  12.7154911
   1.9953486  45.2265787  13.7241244  10.4663900   1.7035660  16.8138027
  10.9236423   1.2345537  17.5117850  10.4983739   1.1086401  16.0646236
  62.5179520  54.8972988  34.3597317  62.0505932  55.2479076  33.6015224
  63.2271615  55.5214691  34.5135713  23.2847142  52.7972984   2.9231369
  23.2779360  52.4533653   2.0298868  24.1368222  53.2248783   3.0086982
  12.3232436  33.0159020  54.5018625  13.0822074  32.4332857  54.4742298
  11.6257429  32.5211835  54.0717745  28.3266020  67.3951721  25.8970189
  28.6829758  68.2296848  25.5923581  28.2383227  66.8682051  25.1028252
  68.6949566  19.8342443   8.0139822  68.3068481  20.2689385   8.7733537
  67.9842833  19.7898030   7.3742944   1.3240638  71.0213995  40.9316874
   1.0976288  71.9378996  40.7736158   0.4819810  70.5667543  40.9522629
  31.0255098  30.4700351  17.5012052  30.2926159  30.1562929  16.9714284
  30.8143091  31.3855886  17.6839304   3.6816314  31.1620140  45.1866579
   3.5718387  30.2111864  45.1765776   3.5306013  31.4109039  46.0985136
  47.8653439  58.1005767  26.0862637  47.6088833  57.6685027  26.9009852
  48.4323683  58.8197199  26.3647413  47.1310488  65.6334888   3.3666851
  47.0010725  64.7192846   3.6188127  46.6213218  66.1327206   4.0047886
  27.7096415  22.9777765  32.2721505  27.0241976  22.6964474  31.6661358
  27.4576402  23.8665080  32.5229144  37.4929253   1.0627398  18.3502460
  37.4211875   1.3609013  19.2569900  36.7537884   0.4654964  18.2353187
  58.4734749  32.3791875  51.5950189  59.1782408  32.9276456  51.2504481
  58.6517989  31.5085877  51.2393568  13.9916690  22.5626172  32.7397345
  14.0167221  22.4316586  31.7918657  14.8045095  22.1694173  33.0574129
  20.8630832   8.6039247  54.6432321  20.1457819   8.9145364  55.1957087
  20.4308160   8.1235446  53.9371072  17.0737183  32.8756118   6.8829268
  16.1947966  33.0901098   7.1955234  16.9405997  32.1497512   6.2733066
  35.5391145  45.3988171  11.7559230  35.6934738  45.1435709  10.8463895
  36.1497903  44.8629332  12.2620177  23.3336878  42.3100710  13.2120359
  24.1018820  42.7103710  13.6193073  23.6929202  41.6421700  12.6280069
   2.2753817  62.1403265  24.5683479   2.5962707  62.9202986  24.1156793
   3.0085927  61.5258598  24.5358086  26.1150837  56.7067671   2.7674955
  25.4505920  57.3647308   2.5631303  26.7112184  56.7278576   2.0188901
  59.4817989   1.4591350  53.3690284  60.4147517   1.4365782  53.5819171
  59.3785184   0.8073462  52.6756762  19.3571472  57.6063824  28.1659269
  20.0452232  57.0983744  27.7361465  19.2022979  57.1488142  28.9922976
   6.0585856  67.3137474  33.2460237   5.6402916  66.4791203  33.0346990
   5.3793234  67.8144741  33.6978102  69.9997321  43.8884020  55.3392696
  70.6564131  44.5465279  55.5670214  70.4272780  43.0511332  55.5193138
  51.1079017  19.5289787  16.7135906  51.1569706  18.6309799  17.0413399
  50.8774034  19.4343742  15.7893872  75.9285772  55.3311205   1.3545191
  75.6327760  56.0145903   1.9558537  76.8781409  55.3033352   1.4719449
  45.0042303  63.6282043  58.6608432  44.2057665  63.1350188  58.8491396
  45.6697138  63.2298069  59.2217730   5.3304684  42.5198364  18.5833859
   4.7011200  41.8262863  18.3855414   4.7905633  43.2657433  18.8448334
  10.5936086  51.4123297  40.3948736  10.9533954  51.5288353  39.5155501
  10.7571924  50.4919195  40.6005859   3.8009167  64.2859936  10.1913476
   3.7489286  64.9203730  10.9062552   4.5878795  63.7752104  10.3811371
   5.6750399  50.0152636  44.5914221   6.1139750  50.1036358  43.7453938
   4.7416502  50.0416994  44.3809032  70.8794072  22.6500607  62.8932619
  71.6545203  23.1450367  62.6278734  70.5659667  23.0987525  63.6785364
  13.6316705  17.9511058  23.7169671  12.6777804  18.0305874  23.7143230
  13.8638759  17.8228486  22.7972603  41.0111570  50.0401545  26.9210339
  40.1984453  50.4250288  27.2490668  40.9077549  49.1001129  27.0688915
  11.2988842  53.7321568  11.3854468  11.6880560  53.8900709  10.5253077
  11.7359209  54.3567038  11.9643855   4.0431666  63.0574942   2.4324001
   3.6037171  62.8722572   3.2623410   3.5072190  62.6156855   1.7737700
  74.1382223  63.6614752  40.9142447  73.8861951  62.8588963  40.4575348
  74.9790892  63.9038038  40.5263615  22.8773260  57.3229694  52.7064323
  23.2828116  56.9152737  53.4716702  22.0515084  56.8522882  52.5936556
  25.8559808  64.1587763  63.6136999  25.9347389  65.1114492  63.6630871
  26.1095181  63.8520365  64.4842525  16.1449003  59.4745064  51.3591576
  15.8318865  58.7244177  50.8535671  15.3479421  59.8955345  51.6813707
  66.5825271  10.2807225  55.1936452  66.2580847  10.7922162  55.9348236
  66.5662848   9.3748273  55.5023823  39.2204622   7.6848206  36.6734815
  38.5776023   7.0491585  36.9879532  38.9162771   8.5240540  37.0190144
  33.9219499  27.7128744  20.6497073  33.7003016  28.2653999  19.9001634
  34.4910145  28.2602525  21.1907959  74.7797126  60.9964657  31.9850755
  74.7547445  61.8934202  32.3183608  74.2391595  60.4980803  32.5979757
  68.3846251  10.7642063  17.6264977  69.0610568  10.5033669  18.2515061
  67.6204840  10.2408966  17.8682947  29.5651269  69.3133688  24.2526340
  29.2100716  69.4354010  23.3721375  30.4516625  68.9819717  24.1095901
  75.4295372   3.4054507  60.4294245  74.5487761   3.6132468  60.7413731
  75.8434486   2.9530944  61.1644654  20.7480621  18.1235480  34.2014861
  20.7454658  17.4233782  33.5488105  20.6600308  17.6699042  35.0397539
  21.5899277  66.4144230   9.0423959  21.8228626  66.4203882   9.9708021
  22.0876765  67.1401882   8.6659068  45.6731204   1.3881477  25.8038735
  45.3148369   1.4289936  24.9171972  46.1142413   0.5396494  25.8450985
  68.5917142   9.2221606  30.9993577  69.3008140   9.8250800  30.7759786
  68.5036984   8.6601990  30.2294970   4.9392536  26.1755562  42.1418619
   4.8484382  25.4641175  41.5079594   4.6928477  26.9624305  41.6557121
  63.0413079  35.0517119  50.3161393  62.6991629  35.8685721  49.9529455
  62.2830617  34.6359147  50.7265161  65.7681122  47.6324177  20.5169034
  65.5278829  46.8518972  21.0162139  66.2871495  48.1566000  21.1268711
  72.7030420  54.8167745  36.0161352  72.5471949  53.8750711  36.0878229
  72.1127533  55.2069894  36.6607451  20.8828545  60.9833431  14.3186653
  21.7811394  60.8259010  14.6094024  20.4504991  61.3745308  15.0777912
  40.0303173  18.4756732  39.0288091  39.7268438  17.9063821  39.7359467
  39.2756414  18.5561621  38.4455252  76.3589703  31.4352751   5.6713217
  76.6096994  30.9191179   6.4374471  76.5315569  32.3416257   5.9262240
  73.2897112   0.8268694   9.3085229  72.6329258   1.4607450   9.0203106
  72.9353657  -0.0221386   9.0442187  40.2854446   3.3106455  29.3595266
  40.0261144   4.2293486  29.2890453  39.7354654   2.9595837  30.0598907
  70.5807200  56.8331051  28.0711079  70.3531894  56.3922787  27.2524905
  71.3576439  56.3701010  28.3845520  22.1193051   5.5644697  24.9245262
  22.9351592   5.0766999  25.0372052  22.3568606   6.3020009  24.3625236
  21.8060303  24.6118641   0.2921215  22.3148680  24.4979024   1.0948230
  21.1836362  25.3087497   0.4999868  77.4495204  70.5391836  49.5981169
  78.1477906  69.9524689  49.8886633  77.3061408  71.1267090  50.3400660
   3.6831087  54.5998859  28.8675284   4.1139624  54.1412497  29.5888114
   4.0692830  55.4756927  28.8758898  13.8361061  50.2206850  48.3417034
  13.6620724  49.6163559  47.6200867  13.3004439  49.8921299  49.0637493
  58.2812873  40.9554386  17.0470154  58.0656377  41.7609024  16.5769565
  59.1788200  41.0889292  17.3517239  64.5296990   6.6955890  57.9193018
  63.6479425   6.8702449  58.2482897  64.4258117   5.9346618  57.3479615
  77.0776863  41.6608524  18.8341475  76.3562080  41.0318041  18.8344216
  77.8273604  41.1656237  19.1642535   2.0128630  45.0526285  27.1261477
   1.5317957  45.6179762  27.7304602   1.4877243  44.2539167  27.0759392
  61.3483706  22.6838279  52.2201490  61.0035351  23.5732865  52.1415234
  62.2100869  22.7956462  52.6216173   6.9250965  69.8620272   2.1353248
   7.3881578  69.0414906   2.3041986   6.2785333  69.6387482   1.4657477
   4.4399741  54.1130924  20.8209014   3.5786209  54.3849707  20.5040669
   4.9526858  54.9210691  20.8439660   6.9026101  51.9557142   5.0167108
   6.1670256  52.3922586   4.5870852   6.5288132  51.5894651   5.8181900
  76.3178416  29.1412473  22.9130459  76.3756138  28.5000634  22.2046852
  77.2234806  29.2679262  23.1958938  18.4243093   1.8611654  50.7350016
  18.3431105   1.9215807  49.7831678  19.0171311   2.5748142  50.9705877
  13.3981061  71.2010002  24.4046688  12.4994230  70.9286833  24.5902586
  13.3043075  71.9613791  23.8308620  11.5777075  20.7289004  16.7644978
  12.0408463  19.8920143  16.8013334  11.0983670  20.7011271  15.9364319
  20.2246407  46.2333731   5.6774618  19.4196574  45.7927404   5.9496309
  19.9263392  47.0446478   5.2662660  25.4968310   6.0853275  46.6212749
  24.6088857   6.4406761  46.5823889  25.3731810   5.1385244  46.6883707
  70.3455432  12.1019216   2.6322700  69.6282037  12.3373742   3.2206728
  70.0898118  11.2534709   2.2703792  72.8603283  40.2123213   6.0168642
  72.8142747  39.5209527   5.3564686  72.2199652  40.8624983   5.7280082
  20.1580429  26.9682527  14.6205962  21.0415959  26.6295362  14.7649384
  19.5955122  26.1948323  14.6607459  27.0898438  73.5925941  53.6741625
  27.2700263  74.1689043  52.9314421  26.1382959  73.6210327  53.7740622
   8.2303929  36.6968179  25.0307441   7.7559537  36.7442226  24.2007470
   8.0163223  37.5165868  25.4761481  58.0578962  46.7551136  23.2164836
  57.9350582  47.4389982  22.5581217  57.9870287  47.2133112  24.0538979
  75.6798524  50.9442616  30.0029731  75.6330946  50.0176287  30.2383447
  76.4224964  51.0014915  29.4017768  48.6728445  11.4321884  11.5275311
  48.0831996  10.6782040  11.5196586  49.5501009  11.0505280  11.4959955
  74.8583773  37.0467257  40.8622456  74.5939556  36.8182015  41.7533636
  75.3802753  37.8426600  40.9639549  77.1018910  31.5933585  25.8210683
  76.3138893  31.1228418  25.5492258  77.0498838  32.4322915  25.3631163
  29.2326499   3.6463579  10.1859868  29.2626468   4.5642647  10.4557598
  28.9758573   3.1724962  10.9770274   4.1635078  43.1977844  21.2209725
   3.9346948  43.8249588  21.9069219   3.4155959  43.2125378  20.6237769
  28.5078955  27.3072815   6.5034616  28.9079046  27.4595475   5.6472844
  27.5660563  27.3568082   6.3400096   9.9731791  63.9891148  41.9195318
  10.1383531  64.5706606  41.1774063  10.4292881  63.1782055  41.6945267
   6.3691980  47.3918581   2.0409949   5.7076734  46.7045593   2.1199535
   7.1903431  46.9626904   2.2813387  28.4873819  33.0088592   9.3718219
  27.9529929  32.9904151  10.1657498  28.9234781  32.1569061   9.3567961
  50.4116110  16.3751544  63.0046041  50.0806662  17.2733153  63.0085037
  49.9296475  15.9453763  62.2980387  51.1909285  45.0270176  10.8170462
  51.2366048  44.5076132  10.0143230  51.8330613  44.6229172  11.4006591
  28.3938937  66.2182407  63.6275319  27.4825521  66.4570694  63.4582709
  28.7170173  65.8951979  62.7864216  68.8274369  59.2590618   5.2493173
  69.4960907  58.9442015   5.8575934  69.3184069  59.7327423   4.5778984
  24.2569908  21.1680592  62.0524451  24.8603567  20.7465590  62.6644279
  23.6152776  20.4893865  61.8430768  23.9145756  44.7826576  25.7133794
  24.2755961  43.8967085  25.6819487  24.2785740  45.2171230  24.9420309
  58.3638111  24.4682860  37.8691411  58.1843391  23.6047673  38.2411075
  59.0402070  24.8377228  38.4368014  40.7562494  58.6259699  23.3802342
  40.3452063  58.0611467  24.0346408  40.0447607  58.8583517  22.7835679
  48.0849028  46.3409710   4.1025990  47.2058773  45.9769058   4.2075083
  48.3940172  45.9843683   3.2698238  41.6395378  25.6217599  11.5666270
  41.9029140  26.5234447  11.7505598  41.0281515  25.4026484  12.2697830
   6.4243063  28.7795104  61.6788730   7.3675974  28.6406316  61.5943473
   6.1458548  28.1400241  62.3344309  59.8801700  18.2300457   1.7537373
  60.6763808  18.2721886   2.2833639  60.1860181  17.9844173   0.8806095
  72.4910323   3.4013828   7.1935350  71.6489664   2.9815468   7.0177811
  72.4313466   3.6853107   8.1057054   0.6190120  60.2559185   6.2248015
   0.2111601  61.0562944   5.8942097  -0.1163200  59.6736097   6.4156753
  49.2533509  21.3771805   1.1159466  48.6423246  21.4658340   0.3844945
  50.0220505  20.9520325   0.7357120  16.5717554  69.8487139   8.9605087
  16.5473020  69.0101576   9.4214368  15.6735647  69.9817848   8.6575586
   6.2456393  61.9668770  56.3431406   6.4655232  62.8984690  56.3473225
   6.1158037  61.7555761  55.4186296  33.3429146  64.2047167  28.2433677
  33.0049205  63.3113813  28.3061457  33.6531734  64.2805529  27.3410273
  31.0170150  62.9902935  19.3997216  31.8982434  62.7476454  19.1154861
  30.5900764  63.3138323  18.6064506  65.2146832   1.4068827  53.6118412
  64.3909422   1.8108877  53.3389664  65.7523028   1.4006933  52.8199100
   1.0640712  51.4159679  34.8839498   0.4316621  51.8073654  34.2813754
   1.8055660  51.1740446  34.3290710  32.2032879  18.1631073  48.3524990
  32.6946072  18.7810024  47.8111649  32.1300123  18.5956558  49.2032385
  78.0921681  66.5117025  25.8996153  78.0621831  66.5765333  26.8541455
  78.9356811  66.0990906  25.7139540  12.9314673  62.7177286   6.5368980
  12.9778993  62.6536083   7.4908185  12.1469295  63.2400608   6.3698596
   0.0381287  22.8656901  52.7159463   0.9382638  22.7661742  52.4059663
   0.0867685  22.6852263  53.6547218  15.9371340  72.0486784   6.0766530
  15.4277229  71.6398335   5.3769529  15.3062081  72.5966072   6.5434873
  38.2075095  72.4088573  12.1655595  38.4835386  71.5347004  11.8900800
  37.3053551  72.2923565  12.4635136   9.9512800  37.6125993  54.0677576
   9.0261897  37.8292264  54.1840105  10.1511630  37.0192994  54.7918246
  12.2780049  53.5106373  15.8147514  11.4525723  53.6445379  15.3489590
  12.2404242  54.1229153  16.5495551  22.0243549  38.2664990  10.6147003
  22.8478599  38.2833219  10.1270640  21.8432784  37.3359323  10.7469451
  11.9852209  35.0170469   1.8255235  12.8420818  34.9101257   2.2385484
  11.5267944  35.6448650   2.3840240  42.2352648  73.5643291  48.5365677
  41.5090942  72.9685545  48.3522654  42.2400236  74.1720963  47.7970886
  10.5648509  12.4046978  59.2927790   9.6758119  12.6863369  59.0771008
  10.5586270  12.2995934  60.2441692  17.4530411  69.4992447   5.8088607
  17.4154353  68.8828135   6.5401840  17.0410049  70.2951336   6.1450374
  13.0605658  45.1331843  53.4475313  13.2999524  46.0084571  53.7522171
  13.5089644  45.0412597  52.6068650  16.8033600  60.0153160  25.7910228
  16.9134951  60.7545042  25.1929402  16.1192632  59.4808435  25.3878045
   6.1590768  31.9630989  14.3079078   5.5171538  32.5837788  13.9630580
   6.4497233  32.3525223  15.1325941  22.0431256  47.6496840  21.7474937
  21.5938711  48.4798908  21.9061065  22.7226186  47.6126242  22.4206591
  46.6007105  20.7695469  18.5199440  46.1523537  21.3740524  17.9285169
  47.5134365  21.0577663  18.5102439  21.8769765  69.4860649  25.0888848
  20.9573507  69.3289757  24.8747730  22.3445439  69.3254614  24.2692399
  59.7788508  51.2640710  16.5935947  59.3985333  50.9744210  17.4228622
  59.7306021  50.4946275  16.0262634  27.2993685  10.0122246  17.6115572
  27.4113487  10.9525951  17.4722755  26.6582310   9.7470936  16.9521010
  18.1500006  56.3007069   7.1346802  18.4900498  56.7079210   6.3379520
  18.7648666  56.5639639   7.8194171  24.5166326  42.0297432  27.2730374
  25.4419088  42.1290207  27.0488977  24.1441798  42.9021311  27.1447730
  48.8561010  63.4816074  37.3586798  48.6937952  64.4238901  37.4033451
  49.2425108  63.3458710  36.4935255  56.1874199  53.0880594   6.6546011
  55.2442980  53.2423687   6.7087913  56.2786245  52.1373510   6.7184287
  15.7870758  40.0775671  19.0861905  14.9588251  39.7304106  18.7549603
  16.4080441  39.9387336  18.3711004  68.9095704   1.2269672  46.5351439
  69.8528687   1.3882526  46.5150452  68.5994879   1.5119394  45.6755686
  26.4682913  60.0041485  27.3672581  25.8969712  59.4831228  26.8030238
  26.2355161  59.7365952  28.2563400   0.8592542  13.5224284  34.9262927
   0.4650744  13.9178409  35.7037900   0.9688362  14.2517222  34.3160818
  63.4349052   5.8618721  14.0224576  62.9677788   6.5124306  13.4982419
  63.5245863   5.1060900  13.4419537  20.9142256  72.9804802  25.6281900
  20.9737873  72.1512079  26.1025238  20.5248499  72.7469778  24.7855210
  18.0079484  65.1692486  19.2721522  17.8445351  64.8083973  18.4007657
  18.9582717  65.2763700  19.3126762   8.5728908  70.9869909  63.0558491
   8.8506007  71.0701895  63.9680910   7.6227105  71.0993385  63.0835438
  26.5809965  65.9347296  10.0258994  25.9706306  65.8521223   9.2931914
  26.0926676  65.6095982  10.7822418  47.9650775   0.3438744   3.0681556
  47.3012225   0.4425081   3.7506515  47.8285853  -0.5400768   2.7272260
  27.5992823  52.9314184  33.4139252  27.7571464  53.8320351  33.1307316
  26.6628551  52.7955627  33.2694340  58.7383059  66.2359762  62.6177216
  58.2735863  65.5027151  62.2144890  59.2227975  65.8424902  63.3434439
  20.4208422  43.6908245   0.9796506  20.6659675  44.5915699   1.1913206
  20.8287692  43.1638241   1.6667448  64.7426561  40.2412844  34.1609502
  64.8455754  41.0057926  34.7276664  63.8965383  39.8700213  34.4109082
   7.7679807  67.1594429   2.0651712   7.9373217  66.2813425   1.7238551
   6.9351065  67.0792103   2.5300536   0.3409291  24.8304829   5.6123382
  -0.5035018  24.8388371   5.1616699   0.6583596  23.9333042   5.5096430
  77.8088728   1.0526547   8.4043384  77.5648657   0.2089008   8.7848288
  77.6934592   1.6797051   9.1182876  42.9556517  15.8683571  21.7015386
  43.0018441  16.3901981  22.5026488  43.7941936  16.0226711  21.2664890
  67.3538176  16.6334805   1.4853720  67.4190251  16.0546478   2.2449329
  67.4771420  16.0554394   0.7324493  60.0529591   2.5190243  14.4798708
  59.4055096   3.1425032  14.1507506  60.4056374   2.1024593  13.6935353
  20.8448100  71.2219954  21.3755131  20.3661084  70.4969740  20.9737372
  21.5334153  71.4329576  20.7449985  49.6385430  32.9133124   9.5930197
  50.5797775  32.7739282   9.4887020  49.3464322  32.1801658  10.1346828
  72.7116391  60.6331062  18.5399950  72.6095042  60.2785826  17.6567543
  73.6167455  60.4302311  18.7763321  63.8135973   3.2909140  33.5582423
  63.4732477   2.4495539  33.2540894  64.7328845   3.2879433  33.2915330
  19.7912860  67.8591871  18.1903207  20.7160282  67.9442596  18.4223664
  19.4004858  67.3942852  18.9301670  27.4418521  58.5625601  54.2741776
  27.0804143  57.6879358  54.4177818  28.1069827  58.4386444  53.5970640
   9.4196416  15.2657970  32.6552749  10.2096129  15.7990440  32.5667429
   9.4483948  14.6690926  31.9073820  43.1559610  72.1580505  16.6013849
  42.2890234  72.0048475  16.9771230  43.4460545  72.9805088  16.9959044
  36.7113546   5.4006418   5.0482070  36.7047934   4.6027311   4.5195001
  36.6511003   5.0898918   5.9515542  74.0948184  11.9521422  15.0345184
  74.2866929  11.0156102  15.0827171  73.4112080  12.0225949  14.3682243
   2.3683497  69.5845222  20.3256416   2.6255158  69.6170187  19.4042075
   3.1611189  69.3091583  20.7859945   9.4844967  33.4551835   3.4791461
   9.8244315  34.3492007   3.4416050   8.6070174  33.5479689   3.8501620
   2.5421715   9.2134937  27.7160645   1.7010356   9.2512211  28.1713629
   3.1939507   9.3337997  28.4066749  71.4296547  19.1918644  -0.0049810
  70.7801024  19.3868622  -0.6804731  70.9185521  19.0985092   0.7989429
  46.8343925  62.2738314  26.2313390  47.1266842  63.1047153  25.8566022
  46.4869213  61.7839813  25.4859924  41.0567999  73.8010979  31.3050079
  40.9054136  73.6973524  32.2444487  42.0062304  73.7301445  31.2061262
  29.6629167  58.2881308  29.4908977  28.7322593  58.5050249  29.5462537
  30.1124072  59.1136742  29.6716356  74.5515712  72.1498494  63.0056682
  74.3716176  71.2304358  62.8093819  74.6074422  72.5713544  62.1480883
  47.6036730  60.8351898  40.5795288  48.2498589  61.3194609  40.0655651
  47.0462194  60.4123497  39.9263215  40.1708166  10.9837517  32.1666670
  40.6564144  10.8790287  32.9848719  40.1485590  11.9294914  32.0207191
  45.8870506  61.0288334  23.9395452  45.8359051  60.1612473  23.5384154
  44.9830675  61.2374210  24.1752076  38.1657652  18.6782440  36.8386889
  37.3291758  18.6226162  37.3004842  38.1376020  19.5250019  36.3932133
  63.9728680  51.1236382  28.5461116  64.9263969  51.2036514  28.5709071
  63.6779085  51.5192604  29.3663025  76.6196549  66.1937952  20.9503126
  76.2603043  66.3579941  20.0784540  77.2235066  66.9209719  21.1013341
  69.8864594  40.8002090  25.3326249  68.9560619  41.0115719  25.4095554
  70.0467137  40.1664543  26.0318398  52.1047735  69.0916061  36.9386196
  51.7760468  68.3775711  36.3924265  52.6699734  69.5984411  36.3556123
  49.7783534  15.2258381  25.5371714  49.6144668  14.5722469  26.2170100
  49.9684516  16.0305389  26.0194087  10.1441848  53.3049583  32.4380302
  10.8511662  52.8972530  32.9382181  10.4890680  53.3730602  31.5477228
  45.0525478  27.0393452  13.9436436  45.6666986  26.4138874  14.3281591
  45.5637769  27.8413185  13.8353670  52.2046415  15.9728893  23.3403063
  52.6221649  16.3483604  24.1155052  52.9274050  15.5986008  22.8365707
  42.1911231   2.2259697  33.1832242  41.7007784   2.7099642  32.5187373
  43.0998484   2.4985918  33.0562401  20.9326243  65.0992584  13.5873556
  20.3908587  65.2972221  12.8234625  20.4589915  65.4862356  14.3236673
   9.5099074  21.4898562  29.9314380   9.4705153  22.0511961  30.7057595
   8.6533111  21.5931034  29.5169330  30.2811960  16.2433228  52.6647425
  29.4544271  16.6905102  52.4839067  30.3582687  15.5914291  51.9680786
  70.6952349  13.4010681  19.0760589  69.9848143  13.6825069  18.4995818
  71.4160315  13.1902584  18.4825587  16.2738585  48.8256121  22.6925135
  16.1705947  49.6427441  23.1802320  16.8825185  49.0433264  21.9865632
  77.7275545   5.0272545  54.4171286  77.7460010   5.9556898  54.6492958
  78.3755643   4.9423346  53.7177658  43.1769371  58.6742687  27.7809525
  42.9913521  57.9845572  27.1437073  43.3917856  59.4404316  27.2489095
  24.4256592  67.4467468  24.4349694  24.2121673  66.6128778  24.8536754
  25.3824043  67.4763107  24.4341254  24.6997356  51.7011738  33.2455635
  24.3972778  52.2321177  33.9823461  24.1880250  50.8944702  33.3056641
   9.1565090  64.1469049  25.3103828   8.5332513  63.4206581  25.3291392
   9.2244136  64.4278717  26.2228942  36.2120251  19.0402874  15.2458024
  36.8210474  18.8641056  14.5286655  35.4427288  18.5080704  15.0429225
  41.3649273  66.8640423  60.0072956  41.9790316  66.2915516  60.4670334
  40.5261278  66.4057493  60.0583649  72.9435364  16.8510422   5.5657458
  72.2393671  16.2066158   5.6370407  73.7042443  16.4184937   5.9536296
  32.4733663  71.2168026  12.8404212  31.7269874  70.6876230  12.5591373
  32.9141164  71.4609861  12.0265746  40.8488655  64.4697809  55.0311518
  40.7593298  64.2038584  55.9463024  40.3188419  63.8379955  54.5451927
  65.6776158   8.0938229  10.0014341  65.0348178   8.0909237  10.7106841
  66.4274899   8.5687241  10.3597474   4.6041878  13.0195035  61.7881615
   4.8622664  13.3868445  62.6335527   5.2591213  13.3501376  61.1733664
  29.0324471   4.7454342   2.6122522  28.3254144   5.1132664   3.1423777
  28.6404089   3.9835342   2.1855776  48.0498496  12.7672466  28.6823916
  48.2017795  13.7022957  28.5451603  48.0638138  12.3906502  27.8024983
   3.8952076  59.1645002  28.7969923   4.1554123  58.2433510  28.8000131
   4.1264647  59.4815731  29.6700430   8.7104178   8.6848053  17.4253392
   8.5096026   9.1458591  16.6108847   9.5497084   9.0493664  17.7062654
  24.2962837  39.9155998  12.6364672  24.2727923  39.2644548  11.9352615
  23.4106874  39.9085331  12.9996490  41.6374425  15.9041771  34.8543811
  41.2928788  16.2521824  34.0319443  41.8101708  14.9809059  34.6701026
  64.5076588  67.8021145  59.2523766  63.8436356  67.1380091  59.4374990
  65.3373268  67.3255634  59.2803478  29.5825791  63.6064005   6.6295552
  30.2310944  63.6160898   5.9255904  28.7426043  63.7119770   6.1828691
   1.9576550   0.5391869   7.6359791   1.0235215   0.6002506   7.8357214
   2.0897961   1.1573633   6.9172078   7.6519569  41.8174495  58.4164642
   7.8672823  41.4888514  57.5436018   7.4705847  41.0306634  58.9305709
   3.4531772  62.2693014  18.3053184   3.5837820  63.1025076  18.7580240
   4.0263641  62.3199129  17.5403833  35.7663200  10.5537972  49.6569014
  36.4847497  10.6753620  50.2776384  36.0055385   9.7686180  49.1644573
  13.0160403  60.3471851  19.2801654  13.7368774  60.0275612  18.7375152
  12.2522831  60.3205252  18.7038016  60.2138665  58.2862711  25.7235479
  60.2798560  57.8778791  24.8603582  60.1487926  57.5504589  26.3322973
  70.5075345  33.6686468  59.0840244  70.0509575  33.1883597  59.7747421
  70.4184172  34.5886207  59.3328953  19.4941886  20.8114804  63.2310015
  18.6679729  20.7971086  63.7141108  19.5242389  21.6818322  62.8337355
  76.2521235   2.2738108  21.1212516  76.7783801   1.8146166  20.4667091
  75.7524315   1.5821442  21.5549970  24.2549515  40.9809542  20.1433849
  24.9767900  40.6567907  20.6819916  23.4701204  40.7998705  20.6605697
   1.4162804  62.1640348  33.3365393   1.8929747  61.9224548  34.1306639
   0.4959466  62.0193768  33.5562897  33.4362674  59.8540974  28.8910007
  34.1973448  60.2607203  29.3053102  32.8170681  60.5737448  28.7688065
   3.9781395  53.3844042  39.6674442   4.3324223  52.5053787  39.5331597
   4.1725710  53.5836744  40.5832577  36.9380108  15.2886662  39.8713660
  37.4498609  15.9259495  40.3694725  37.5914005  14.7024998  39.4896317
  34.1118073  73.5258865  22.1626782  33.1659722  73.5233212  22.0156431
  34.3293595  72.6104546  22.3384190  58.3733336  12.5256046  51.3130951
  58.3681885  13.4112629  50.9500074  59.0624157  12.0718178  50.8278418
  33.9288473  55.0774193  27.5005984  33.6770201  55.7193899  28.1644440
  33.2565904  55.1564503  26.8238020  63.0831448  26.8587956  39.7654366
  62.9590503  26.3449177  40.5634117  63.2055394  26.2056049  39.0765262
  45.5622387  56.8268871   9.9401027  45.9106016  57.0138645   9.0683717
  44.6254539  57.0098114   9.8679715  41.0665301   5.7215103  36.7289567
  40.2227358   6.1733421  36.7384291  41.6902617   6.3850960  36.4342690
  14.0738710  49.1960753  56.3394241  13.3538493  49.7832717  56.5696643
  14.8596939  49.7360267  56.4240937  28.6164403  72.3378563  27.8976369
  28.4906507  71.4410877  27.5874448  29.2859530  72.2643375  28.5777688
  26.9187474  59.0924692  30.4409385  26.8460798  58.2503033  30.8900571
  27.0223594  59.7316790  31.1458564  70.2860848   1.5423283  10.7856393
  70.0712553   0.9701284  11.5223014  69.5114962   2.0941099  10.6771278
  66.9072135  45.5625768  22.9198410  67.5317784  45.6089158  22.1959640
  67.4481376  45.4015584  23.6929561  44.6528053  71.4835691  12.8190923
  44.1883373  71.0094500  13.5088086  43.9670277  71.9635820  12.3548436
  55.0283480  56.0184765  40.7128572  54.6293592  55.2272558  41.0748148
  54.3218136  56.4411688  40.2246284  59.3148152  11.3613113  10.3117752
  59.0144364  11.9861683   9.6518010  59.7557203  10.6759819   9.8096251
   3.5055456  28.5216355  35.1345587   4.1147459  28.4643269  34.3984723
   2.6382878  28.4870744  34.7309470  60.6282035  10.4346832  17.7926981
  60.5356065  10.9527096  16.9931352  59.8218481  10.6013474  18.2807970
  30.9468651  63.0532742   3.0363426  30.4094362  63.7943077   3.3161062
  30.3747177  62.2921133   3.1339100  27.9818821  52.4034929  23.4858632
  28.3118939  51.5429592  23.2274032  28.7650394  52.9494953  23.5549593
  75.3572432  10.4132828  57.7271509  76.2150208   9.9978336  57.8157425
  74.8455540   9.7969135  57.2032166  31.2534884  10.8244309  45.3229475
  31.2464217   9.8684010  45.2760267  32.1708504  11.0498699  45.4773903
  50.9516827  17.6400074  27.2548175  51.2445895  18.2236752  27.9546499
  49.9966446  17.7005848  27.2764230  31.8858162  19.3058666  25.8169699
  32.0739505  18.5352406  25.2812743  32.1470306  19.0518364  26.7021084
  17.0453501  71.8646479  38.2567716  17.9136384  71.7447853  37.8721404
  16.4408076  71.5408611  37.5889993  16.8641409  37.9391374  59.8033423
  16.8817838  36.9837035  59.8587130  17.4433597  38.2305945  60.5074702
  49.5764128   3.2178530  28.3004665  49.5329181   2.4105867  27.7879596
  49.8956338   2.9396471  29.1589141   7.8003057  60.9766044  44.6392761
   8.3534463  60.4269637  44.0841554   7.9050859  60.6117095  45.5179713
   2.7305977  54.1193338   2.0204403   2.1206228  54.2400403   1.2927057
   2.1777003  53.8515515   2.7544882  61.8607903  48.7080908  45.6666803
  61.1756325  48.0503845  45.7858992  62.0401812  48.6993599  44.7264767
  71.7770910  64.0721369  51.9712353  71.1324215  64.6182537  52.4211121
  72.6232958  64.4295788  52.2403193  36.8648867   0.3098234  26.3433814
  37.3904041   1.0695728  26.5940690  36.1403058   0.3028854  26.9688153
  55.3153324  71.4701700  29.9750304  55.1393986  71.9749832  29.1810274
  54.7657967  70.6910372  29.8901749  10.7763481  67.4841213  36.1037898
  10.7882750  67.8413582  36.9917488  10.0460005  66.8653917  36.1043358
  56.4297581  60.9682703  58.2958412  56.5320587  61.4182854  57.4572420
  57.2597122  60.5089426  58.4239912  19.0040926  14.9204716  49.6556616
  19.8166762  14.5567879  49.3039846  18.3593581  14.2225632  49.5395756
   5.6890679  33.5101875  39.9708557   5.1323081  33.1205162  39.2967558
   5.1597930  34.2176041  40.3391743  46.5678978  63.7566280  45.9903002
  46.4573669  62.9426193  46.4816284  45.7439852  64.2269516  46.1175489
  41.7264990  18.6057457  32.8151274  41.2442914  17.9099831  32.3683333
  42.6476876  18.3825192  32.6816630   7.6890660  13.5192474  49.3778276
   7.0322371  13.1130585  48.8123035   7.3513556  13.3948597  50.2647924
  77.7010305  40.8723683  10.3625204  76.8835028  41.2807412  10.6473209
  77.8947480  40.2255817  11.0410311  62.4072806  22.5303349  32.0078230
  62.6844875  22.6449760  32.9168034  61.5612260  22.9751858  31.9575167
  51.5443603  15.7543167  13.6765051  51.4583985  15.0772175  14.3476081
  51.4827482  15.2793201  12.8477597  74.0042639  64.3254375  17.4479616
  73.0583048  64.1860771  17.4923575  74.3755388  63.6185551  17.9758835
  62.2306158  58.3135266   1.0064508  61.4146133  58.8068051   0.9224750
  62.8788538  58.9661641   1.2711717  70.3878601  22.0336385   8.3492948
  69.8253138  22.8068538   8.3055403  69.9233849  21.3703294   7.8388836
  44.9793939   5.4889664  15.4233229  44.2631201   5.1144156  15.9360564
  44.5770565   6.2122711  14.9425113  65.6630365   2.2503122  43.3968306
  64.7181765   2.3518690  43.2821274  66.0250775   2.3694977  42.5187922
  36.8108789  34.0752586   0.5052020  36.8983344  34.8586830  -0.0377686
  37.7041284  33.7419781   0.5904431  36.6004900  18.7050041  53.6896324
  36.9776443  19.2833408  53.0266762  35.8404169  19.1835674  54.0205288
  11.8048652   8.2795466  36.5208386  11.5983208   8.1749572  35.5920575
  12.5707134   7.7224912  36.6600989  19.4367347   9.2317089  22.6197958
  19.3220488   8.3154472  22.3677254  19.0632299   9.2866882  23.4994006
  36.0450952  53.8935800  24.5684673  35.3697984  53.2641931  24.8216106
  36.2314574  54.3807168  25.3710796  53.7756792   4.4125160  34.1900516
  53.4069816   4.9913630  34.8573065  53.2505123   3.6143955  34.2486477
  50.1400375  72.1927357   8.6513561  49.4606066  71.8794680   9.2484039
  50.9572315  72.0754337   9.1357768  53.6907721  64.5038939  58.7485647
  54.1731071  64.7048616  57.9465675  52.8160810  64.2586374  58.4469128
  70.5095116   1.0693296  40.0319767  71.1178509   1.3530191  39.3495703
  70.1085774   1.8793234  40.3472471  75.0133482  19.0273460  58.5571289
  74.5906369  18.8038429  59.3863440  74.8120705  18.2910332  57.9795837
  59.0228692  15.3662380  30.3338432  58.7979261  14.4804749  30.0491238
  58.3657662  15.5789074  30.9965754  31.6741991  67.3594284  28.4113979
  31.4338350  66.7680216  29.1246271  32.1921420  66.8180990  27.8156400
  34.7223870  41.9715103   4.0504259  34.9848966  41.0880646   3.7919033
  34.0236513  41.8360981   4.6904752  51.7627907  69.6040964  31.1601591
  52.3679352  69.6326160  30.4190660  52.1045732  68.9084339  31.7218256
  20.9193739  18.5085095  63.2854066  20.5310710  19.3621720  63.0938034
  21.8546327  18.6283816  63.1206367  49.4213191  23.1749424   3.1300977
  49.3870655  22.4487766   2.5074026  48.6860815  23.0174145   3.7224159
  67.5274483  40.8553776  15.0770855  67.5731913  41.4550671  15.8217406
  66.7416254  40.3330883  15.2381051  61.4626543  16.5607723  30.9196973
  60.9043256  15.7872757  30.8408928  61.1647788  17.1433624  30.2210641
  44.9775314  72.4175596  29.0233541  45.4519939  73.0242252  29.5917511
  45.4241467  72.4813318  28.1791401  42.2310638  70.0494623   7.2241563
  41.9309187  69.8923540   8.1194001  41.9912672  69.2543888   6.7481434
  75.3093020  28.3238396  45.6808615  75.9735171  27.8431400  46.1747932
  74.5149104  27.7978500  45.7730484   4.6265915  28.7959623  24.0752697
   4.1874042  29.1105938  23.2851076   4.9274668  27.9161930  23.8478708
  29.7134757  57.4384785  15.2382576  29.0010309  57.2465229  14.6284986
  30.4495382  57.6829052  14.6772754  21.3941908  44.7573662  17.3459494
  20.6945324  45.3466415  17.6278353  21.8921018  44.5779562  18.1435275
  56.8661433  58.2561721  34.4230507  56.8871021  58.9641704  35.0668905
  56.1286142  57.7088965  34.6927975  48.0671445  18.7612614  44.9416780
  47.3300210  18.2592758  44.5939922  48.8045207  18.1513771  44.9183321
  76.9176705  37.1842809   8.7345888  76.8143423  37.7496667   9.5000269
  76.1640294  37.3899169   8.1814434  62.5661127  15.1344379   0.1585736
  62.6872436  15.5764946   0.9988961  63.1010786  14.3434509   0.2247441
  50.3800789   9.2760357  39.0769362  51.1636726   9.3400559  38.5309410
  50.6993786   8.9445290  39.9162126  10.7511744  64.9671459   6.4390379
  10.2409586  65.4283571   7.1047729  10.1106867  64.4231939   5.9806460
  76.5303444  63.7216510  58.1051032  76.3796281  63.3126296  58.9572875
  76.9755649  64.5439757  58.3095090  60.2228514  19.0257916  21.1088586
  60.2892581  18.3072456  21.7377567  60.7500497  18.7404427  20.3626204
  59.5762125   5.7941851  31.5522218  58.7738768   5.2737412  31.5925622
  59.3043820   6.6232380  31.1585212  38.3283273  31.1245808  22.5272322
  38.5817520  31.4295086  23.3984542  38.4873072  31.8753227  21.9550824
  68.0447356  12.3632988  35.9075379  68.5148255  11.5316280  35.8477855
  68.5572163  12.8842148  36.5257955  22.6077289  28.9764675  44.1625881
  22.3419020  28.4760174  44.9340248  23.4231351  28.5634312  43.8784313
  74.1356150  34.7742161  15.1991689  74.5537297  35.3261456  15.8600688
  74.0989748  33.9060005  15.6005216  75.6499640  25.8272060  24.1371322
  74.7821394  26.2000164  24.2924643  75.9912507  26.3181576  23.3896494
  74.8867670  26.6020474  48.7714481  75.6715313  26.5910419  48.2234859
  74.9769322  27.3929295  49.3030643  23.2447044   5.1487907  52.6874685
  24.0230755   5.0527081  52.1387053  23.4729988   4.7084936  53.5061550
  72.6270501  15.5549130  16.1007333  71.8383709  16.0754761  16.2531459
  72.4569766  14.7258934  16.5479732  53.0340338  63.9672947  54.2468452
  52.5852108  64.1767168  55.0659513  53.1721497  64.8157120  53.8257217
  45.7354895   5.6014093  28.6856890  45.7199613   4.7018703  28.3588409
  45.8488790   6.1390957  27.9019356  49.9152104   5.5921587  36.7078376
  49.5278350   6.4164623  36.4133811  49.1806499   5.0996241  37.0739865
  65.5356518  10.4693588  17.0067120  66.1227361  10.7540020  16.3063252
  65.3546587  11.2657341  17.5059819  20.4120827  13.8091930  23.5298824
  19.8935319  14.1403469  22.7966189  20.9564019  13.1212410  23.1469154
  61.2289134  12.5413784  35.2026463  61.8620697  12.5508961  35.9204602
  61.5015165  13.2609161  34.6332645  59.7977924  53.2242441  27.4060726
  60.3560829  52.8930855  26.7026019  58.9682007  53.4316301  26.9759560
  63.1891600  53.7162098  17.3368216  63.7317649  52.9308971  17.4081659
  62.4755565  53.4619316  16.7517185  43.0849028  56.3402128  62.6756001
  42.2248173  56.7462349  62.7834320  43.2626915  55.9276915  63.5208511
  41.6015911  73.2364559  51.3529825  41.3410378  74.1536999  51.4366531
  41.7799044  73.1223154  50.4194880  27.7345347  64.3864918  26.3100719
  27.8540492  64.9836016  25.5715561  26.8397093  64.5500946  26.6079783
  20.3251842  32.5373158  16.0645366  19.8911289  33.0632862  15.3928316
  19.8443166  31.7096790  16.0685194  40.0274944  66.8256140  18.0908394
  40.7141924  67.3318672  18.5248804  39.2735600  66.8931055  18.6767220
  75.9037653  22.1782478   7.8540754  76.4723889  22.9319366   7.6964009
  75.0196234  22.5446400   7.8709185  17.4692712   2.9226908  36.7587614
  16.7608378   3.1708368  36.1648107  17.4014745   3.5428604  37.4847221
  54.9249840  14.1159233  15.2832186  54.2165948  13.7186226  15.7897437
  54.7015382  15.0459942  15.2476108  77.5416636  45.3591098  48.0741678
  78.2180118  45.9612121  47.7639208  77.8976845  44.9963702  48.8852773
  66.4828873  69.4675398  26.9098425  65.9062243  68.7077713  26.9900966
  67.2250843  69.2661715  27.4797750  39.2023853  21.1866936  26.2226629
  39.6894840  20.6436142  26.8423653  39.8718301  21.5424046  25.6382465
  35.7050848  67.2083330  16.0055614  35.8881664  66.3141537  15.7172012
  35.0041580  67.5079155  15.4266107  57.4249116  31.8996033   0.4159922
  57.6657335  31.9874558  -0.5062431  57.8869287  31.1147007   0.7104546
  42.9004940  24.8695888  60.5772964  41.9846805  24.6861733  60.7867728
  42.9063352  25.0088300  59.6302961  27.5512334  34.4199165  20.4201698
  27.0944476  34.4488892  21.2608457  26.9218979  34.7764286  19.7932184
   0.4538632  19.6685299  16.1631572   0.3623582  19.5041451  15.2246273
   0.7870532  20.5641827  16.2180805   6.4017630  12.9077705  19.9939764
   5.5665923  12.5073036  19.7524309   6.1733676  13.8006577  20.2524877
   3.5079003  27.3564800  40.0714540   4.1845465  27.7377590  39.5119834
   2.6831246  27.6379952  39.6755624  37.7581946  15.2617535  10.8495021
  38.6189238  14.9848446  11.1636627  37.9216222  16.0937771  10.4053581
   1.8463612  10.4505619  33.1645679   1.2414408  10.3303703  33.8965893
   1.8351079  11.3928780  32.9967976  38.0370649  27.3105611  61.6757843
  38.5128912  26.5888728  61.2647088  37.6288732  27.7752246  60.9452359
  36.3650513  54.2053366  27.9809833  37.0284986  54.8229647  27.6734066
  35.5316567  54.6433353  27.8082347  54.0635315  11.3647827  28.9155459
  54.9752180  11.4882645  28.6513281  53.9522854  10.4149040  28.9554691
  73.1731621   2.2803434  24.7550964  74.0299097   2.6026472  25.0349808
  72.5635497   2.9762730  25.0006294   1.1714888  18.3524307  26.5791559
   0.4363299  18.8523277  26.9339418   1.9199658  18.6138996  27.1154809
  23.6586332  71.1650610  22.9693675  23.9652085  71.3693810  23.8528252
  22.8861761  71.7176199  22.8501248  22.4283552  67.6092291  26.9075131
  22.2360134  68.2244492  26.1998796  21.6417074  67.0680380  26.9747972
  35.8487940  62.9513168  26.5470815  36.6461515  63.3329105  26.1798787
  35.9428835  63.0641031  27.4929452  55.7666779  64.8256540  41.4385509
  55.3398371  64.7051668  40.5903053  56.5712070  65.3031540  41.2361622
  19.9181335  59.5798440   9.2447855  19.1148202  59.9677701   8.8977529
  19.6207969  58.8176866   9.7417261  75.1596133   9.3629059   9.9197835
  75.5143038   8.4841808  10.0549281  75.0059716   9.6976646  10.8032775
  25.7140049  66.8943347  63.2467425  25.6344780  67.3800887  64.0676898
  25.2615675  67.4381198  62.6018952  75.8984581  11.3145718  63.6047316
  76.1667744  10.5267223  63.1319380  75.1916377  11.6829285  63.0746794
  12.5279189  37.1859821  11.1454415  11.8054391  36.5605434  11.2010455
  12.8780318  37.0695862  10.2622080  36.8411783  24.0273937  43.2632065
  36.9462029  24.9124798  43.6122465  37.4310748  23.9953789  42.5100613
   3.9319564  22.8449234  37.6401544   4.5674182  23.4878143  37.3253393
   3.2202674  22.8787693  37.0009518  60.7753149  27.2392544  36.7438769
  61.4038173  26.5460381  36.5422177  59.9929754  27.0060619  36.2440777
  42.7116612   7.3792633  26.3937736  42.8036705   8.0215820  27.0974731
  43.5977296   7.0432552  26.2588263  15.8405483  45.4745483  16.2098527
  15.1733220  45.5949831  15.5341768  15.5852187  44.6679306  16.6575193
  20.2159024   2.8267893  18.6827493  19.7718573   3.0935701  17.8778374
  20.5580569   1.9539627  18.4895289   7.3147792  43.9702368  38.2279634
   7.3960292  44.9226379  38.1773376   8.1805301  43.6703920  38.5050893
  27.0818218   7.3813333  38.0836008  27.7842935   7.1974458  38.7072657
  26.5539392   6.5828980  38.0751703  62.5764799  61.9930792  26.4660311
  61.7091846  61.6088295  26.5940142  62.4867582  62.5299931  25.6786919
  54.3437380  47.7298780  12.5249626  54.3946900  48.4481950  11.8943645
  54.0078168  48.1360002  13.3239939  54.1535775   8.6283096   1.9241533
  54.4230477   7.7098259   1.9223057  54.9745885   9.1188702   1.8851078
  11.2953269  50.0197124  31.8669796  12.1953321  50.3378868  31.7963600
  11.1806273  49.8302937  32.7982116  58.0390564  18.4498390  17.3151791
  58.2530157  18.0143436  18.1402862  57.5002304  17.8155884  16.8422902
  56.3491011  67.7573061  29.1797543  56.9428253  67.4932194  29.8825908
  55.6773233  68.2801199  29.6174908  12.1917184  58.5650195  62.0115043
  11.9215497  59.1091289  61.2717880  12.9254302  58.0505408  61.6750280
  10.6154872   3.0683741  20.8696771  10.0545550   2.3128351  20.6943440
  10.9589148   2.9126772  21.7494750  23.5640264  71.5714884  44.4480085
  24.3568945  71.4210320  43.9332724  23.0313444  70.7898378  44.3013668
  62.5182819  43.9692534  63.7914623  63.4581446  43.7893905  63.7682110
  62.4525201  44.9162044  63.6682606  10.7344329  73.0416489  47.1950006
  10.5751622  72.0984268  47.1603775  10.3159463  73.3255434  48.0077124
  31.9566870  56.5127087  22.1228528  31.2566757  56.3307571  22.7498341
  31.5281510  57.0023775  21.4208484  14.3476821  10.9949192  48.5747147
  14.1495276  10.9972366  47.6382542  14.5462943  11.9085583  48.7797689
  47.1348286  12.6248763  55.8605121  46.9967222  13.5720275  55.8532147
  47.0934582  12.3839210  56.7859636  29.8334996  50.7974382  14.9884893
  28.8859861  50.7330461  15.1080849  30.1340263  51.3185544  15.7330419
  65.5065536  71.8845558  27.8505087  64.8050451  71.8323660  27.2013593
  66.1082649  71.1800241  27.6100755  27.3583683  52.4885882  61.1019395
  27.6576742  52.4581374  62.0106314  27.1318039  51.5821589  60.8938931
  11.8675519  44.0547165   6.0383612  11.2254716  44.6346554   6.4477986
  11.8430329  44.2875179   5.1102263  55.6412077  59.4576359  24.4614840
  54.8310614  58.9591599  24.5683312  56.0751343  59.3947029  25.3123522
  74.7949854   1.5967926  37.0024848  75.2858654   1.1217960  36.3319302
  73.9786879   1.8468937  36.5696502  46.2947655  73.6244631  49.3879366
  46.3442469  73.8995266  48.4724474  47.2005939  73.4306765  49.6290970
  42.0499376  19.7898468  17.6016223  41.2253372  19.9127850  17.1313548
  41.8847219  20.1499542  18.4729767  61.7929983  68.7615395  26.1456561
  61.0340357  69.2949724  25.9097219  61.8206453  68.0759144  25.4782844
  73.4345293  67.6062346  39.3275738  73.8748455  67.1164370  40.0221586
  73.8736105  68.4567404  39.3189096  10.8269203  23.2886434  46.9531012
  10.1085067  23.2499743  47.5844669  10.3953362  23.2859087  46.0987234
  21.5061259  15.2995634  39.3220687  22.2505569  14.9243367  39.7924519
  21.5794539  16.2423122  39.4706607  21.6308784  14.3805432  51.8138552
  21.6444969  14.1173017  50.8936644  22.5514936  14.3828893  52.0759487
  71.4294838  63.7179080  38.0747199  70.8212566  63.4355274  38.7577677
  71.5801071  64.6455047  38.2566810  56.3598052  34.6655703  10.4840899
  56.6725221  34.3047976  11.3137174  55.5856052  35.1759386  10.7215118
  76.1569428  54.4380609  51.6985798  75.5436086  54.9220482  51.1455774
  76.6827702  53.9273706  51.0830021  56.9272319  23.5041046  30.2466249
  56.1938778  23.1102848  29.7740483  57.1305075  24.2991090  29.7537971
  76.8113332  35.3025913  19.6684206  76.6408981  36.2430882  19.7199035
  77.7648121  35.2293301  19.7101557  20.8684572  64.7157374  23.8971353
  20.8223280  65.3204516  24.6376920  20.1015600  64.9291036  23.3655596
  33.5848784  18.9383197  27.9917741  32.7868557  19.2398977  28.4258699
  34.2950177  19.3568182  28.4783864  77.6529130  19.4181573  47.9220009
  76.9761735  19.3521929  47.2482729  77.6802325  20.3489256  48.1437159
  66.0197341  70.6347290   9.6137083  65.4416537  71.1640492   9.0642768
  66.5683734  70.1559174   8.9924455  29.4790149  32.6414800  25.4066300
  29.3300390  33.5242319  25.7454348  28.9306593  32.0792174  25.9538054
  23.8279581  24.5581913  31.1454272  23.6898088  24.1914916  30.2721119
  24.7449565  24.3675590  31.3429284  73.6314914  62.0318794   1.3538246
  74.3303266  62.2586441   1.9673699  72.8241959  62.1638060   1.8509176
  20.6578182  68.5122910  15.2317882  20.1378512  67.7098397  15.1877630
  20.4759931  68.9611098  14.4061184  15.8231223   2.8877702  19.7474885
  15.0254953   3.3124086  20.0632501  16.2257218   2.5193429  20.5338764
  21.4504623  33.5548520  39.5786476  20.8096099  32.9426789  39.9402881
  22.1144104  32.9958534  39.1750097  29.9279284  17.1731019  30.6094217
  30.4514146  17.4879241  31.3463616  29.3505979  17.9059684  30.3953505
  19.5116115  20.1924443  26.2623310  18.7479198  20.1806378  25.6853867
  19.5951164  19.2890942  26.5676498  77.8816294  74.2352989  60.2918434
  78.5352587  74.0787720  59.6103001  77.3642682  73.4303512  60.3169250
  23.9541841  57.2423315  26.8298531  24.2409086  56.5199995  26.2710595
  24.0499568  58.0214643  26.2821174  23.7266159   3.4565252   9.8087656
  23.2463932   3.8635114  10.5298626  24.4460249   2.9893905  10.2335811
  38.2050776  14.3621564  34.4934654  38.3270192  15.2159715  34.9086285
  37.4492407  14.4812381  33.9183474  51.9766651   7.8708829  57.6901607
  52.0907389   6.9675626  57.9855160  51.0371672   8.0335893  57.7744315
  22.9011846  30.3618383  41.5310383  22.9308915  30.3949046  42.4872065
  22.0368361  30.0027633  41.3305378  14.5162368  29.0166688  22.5020599
  14.6775806  28.5332561  23.3123136  14.6710658  29.9322152  22.7345133
  67.7421311   9.7894442  10.7254612  68.1842294   9.2737871  11.3999081
  68.3953932  10.4319406  10.4485536  28.4133339  43.8274765  13.2416701
  29.0256953  43.1421328  12.9741824  27.9534388  43.4570503  13.9950049
   0.6169110  67.0663309   5.5411083   1.3491559  66.4653063   5.6782776
  -0.0179283  66.8285704   6.2168896  31.8000484  61.8525267  25.5393076
  31.9910264  62.7830172  25.4211807  32.4303198  61.4051008  24.9746847
  15.1590610  19.6276939  31.3192463  15.6806076  18.9002883  30.9799790
  15.7057631  20.0163674  32.0020962  13.1517518  25.4769444  51.9982147
  14.0832829  25.4387832  52.2150660  12.9148173  26.3962507  52.1205664
  50.2584417  57.4194102  49.5524607  50.2112587  57.5376301  48.6037610
  49.9816258  58.2618527  49.9128662   6.2760609   5.3893709  46.3627911
   6.8909985   4.7751218  46.7637682   6.8146050   6.1418158  46.1177826
  10.6422377  24.1077852  35.2819133  11.5672874  24.2292261  35.0679827
  10.1846576  24.7503591  34.7397423  72.8533110  38.7342000  48.6404467
  73.5697016  38.1787348  48.3330822  72.0624992  38.2244492  48.4643698
  58.1552935   9.9851543  32.8278089  57.3159122  10.4174995  32.9851413
  57.9465199   9.2669344  32.2304773  77.8884246  46.2330103  56.7390871
  77.0911872  46.6450739  56.4061499  78.4662428  46.9660378  56.9513035
  63.1770189  65.0856690  54.7277288  62.4672754  65.6624560  55.0102417
  63.7493522  65.0181131  55.4919939  32.3732829  61.4419508   8.4776479
  32.1740651  61.0536575   9.3295705  31.5474868  61.3983917   7.9955757
  61.0685030  21.8593240   2.5066635  61.9893733  21.6378975   2.6452243
  60.5861953  21.2058830   3.0132443  17.1873617  28.8451338  34.2015004
  17.5040972  29.7154069  33.9595556  17.9471171  28.2738853  34.0889096
  58.0760192  40.3523365  32.1739221  57.4765991  40.4596177  31.4353967
  57.6335537  40.7820645  32.9059005  33.5090637  14.7503281  20.7285404
  33.4291887  15.6951153  20.5972862  32.7067804  14.5037746  21.1887431
  12.9251945  29.5843506  58.7590313  13.7559712  29.1116023  58.7085247
  12.5708306  29.5414567  57.8708792  77.5415666  63.4174776   7.5621927
  77.9557975  63.3070946   8.4180319  76.7099029  62.9494524   7.6364803
  23.5589360  72.8575045  13.6337578  24.1503882  73.6057448  13.5528064
  23.3290481  72.8333150  14.5626271  11.5583992  48.8190889  10.1135135
  11.9131804  48.1177855   9.5671296  11.3121271  48.3850336  10.9303236
  69.2280814  15.6442750  25.0990915  69.5895532  15.9564447  24.2695618
  69.8681262  15.9163749  25.7567668  61.4672843  49.0484667   7.7587682
  61.2264457  49.7120094   7.1122861  61.5380707  49.5310736   8.5823667
  60.8959468  56.2719076  53.2560275  61.0809620  55.4552810  53.7198399
  61.5639813  56.3154249  52.5718723  54.6468432  59.0186720  57.1258281
  54.2178924  59.6735840  56.5750794  55.1551397  59.5305948  57.7549551
  20.5099179  50.1201229  55.5545704  21.1793400  50.8039634  55.5761985
  20.8850415  49.4015531  56.0636578  21.0268855  61.4822292   2.6171041
  20.9165025  60.5314970   2.6045176  20.3681707  61.7916155   3.2388812
  30.9582186   8.3380347  38.6738300  30.8912373   9.1857195  38.2343125
  30.9030890   7.6961583  37.9658842  33.0043888  21.1040497  42.3640919
  33.2584906  20.1823688  42.3175001  33.7677503  21.5797949  42.0367146
   8.7566787  14.6974826  18.7162352   8.5465240  14.1979373  17.9272342
   7.9228675  15.0835407  18.9844692  58.4573586  44.8554652  40.5353282
  59.0123661  44.9026077  41.3137720  58.1110843  45.7420646  40.4340075
  63.0415502  38.6862063  26.8210244  63.4583190  39.5234251  27.0249844
  63.2683757  38.5224652  25.9056163  68.1243208  32.0519972  48.8992023
  67.5159851  31.8807650  49.6181154  68.9295599  31.6018128  49.1544580
  42.8000195  67.1131473  44.6647583  43.2553621  67.8079181  44.1891645
  42.5509818  67.5158410  45.4966531   7.7072001  46.8112469  37.7382064
   7.9886019  46.6328669  36.8408632   8.4196478  47.3281145  38.1143689
  12.4465895  39.9299955  22.4923897  13.2436240  39.8710537  21.9656134
  11.9814873  40.6883192  22.1390367  24.2055392  40.8888149   5.5840945
  23.8196349  40.2122688   6.1405057  23.7610888  40.7888460   4.7422513
  14.1366529  39.0717721  11.9282329  14.5830083  39.1225386  11.0829997
  13.3602178  38.5386610  11.7574298  53.2360587   7.4677981  60.6939392
  54.0081351   7.5789727  60.1391698  52.6778849   6.8602313  60.2086197
  18.9513147  32.3848796   9.2074126  19.7881556  31.9385886   9.0779757
  18.6056411  32.5068593   8.3231825  67.1350959  16.4218116  34.3287182
  67.0847455  15.5416811  34.7016335  66.2537506  16.5918362  33.9962244
  16.5046871  51.2473583  23.9138341  16.7757761  52.0019197  23.3909726
  15.8014369  51.5818548  24.4704151  76.7858489   8.9672798  32.1691227
  77.1779750   9.7847587  32.4760389  77.5329435   8.4002250  31.9779921
  17.4000585  17.1281886  21.1893964  17.8027618  17.9559183  20.9268594
  16.4904249  17.3550475  21.3826108  62.6322058  48.2981253   4.9975047
  61.9093993  47.6783657   4.8991069  62.6163927  48.5394430   5.9236509
  52.6351395  10.0551844  14.1502583  52.5024405  10.5365753  14.9668884
  53.0496112   9.2356175  14.4199908  71.6009101  42.3338890  36.4948082
  71.9558933  41.4673042  36.6929126  72.3085508  42.9390526  36.7167401
  12.6725686   9.1483307  19.7315466  12.9186034   9.7604626  20.4250836
  12.5894463   8.3043391  20.1753926  37.2031856  58.4056425   1.0109022
  37.9302549  58.9709568   1.2717113  36.4965582  59.0116882   0.7881418
  29.4657516  15.8345258  20.6097317  29.3623996  15.3654730  19.7817588
  28.5811019  15.8774281  20.9727502  15.1781781  37.1480092  52.7607153
  14.8938568  37.8318165  52.1542500  16.1336787  37.2047000  52.7547095
  14.1061509  46.4793873  11.5462029  13.4974492  46.4849806  10.8074999
  14.9388063  46.1963654  11.1682951  43.0914974  41.2887430   6.2295860
  42.7061939  41.4773130   7.0852816  42.3395681  41.1656284   5.6502134
  14.0795040  31.2950921   7.7448094  14.1725934  32.2400308   7.8658807
  14.9537206  30.9445071   7.9153049  75.7411312   4.8465575  51.0585581
  76.6284799   5.1788463  50.9228001  75.1792454   5.4678763  50.5954383
  36.3680339  21.6298890   6.6475952  35.4907084  21.6447139   6.2650830
  36.5096784  20.7138872   6.8865734   3.0166832  14.6347058   6.7305386
   3.3663338  13.7512636   6.6143215   2.3829228  14.7367895   6.0204977
   7.6366957   9.2624177  54.3438320   8.0895742   9.7063579  55.0608073
   6.7762526   9.6803225  54.3088166  13.1672800  52.3084259  18.1130338
  12.4927330  51.7278910  18.4654498  13.2767808  52.0250702  17.2053158
  48.8060625  64.1804080  40.7427190  49.0911897  64.9041228  40.1848934
  49.4753845  64.1256671  41.4248059  30.2480388   6.1755860   5.1942295
  29.9119663   5.9617269   4.3238544  29.5086670   6.0189265   5.7816142
  12.9806860  55.7795601  56.6614513  13.9050455  55.9231846  56.4585624
  12.5087924  56.2420146  55.9688590  69.5737836  23.9035726  13.5632062
  70.1718631  24.6485353  13.6229098  70.0391403  23.1875658  13.9956486
  21.4448999  45.9855049  62.6689754  21.7549567  46.6067337  62.0100589
  20.9880514  45.3111772  62.1661801  27.8396331  68.2047014  61.0177754
  26.9121726  68.1202607  61.2389512  28.0163847  67.4629168  60.4392029
  60.5966404   2.3403932  36.9210958  60.2859584   1.4387688  36.8387437
  59.8764566   2.8735721  36.5845132   2.4120952  34.3210316   8.2144934
   1.7404333  34.7882009   7.7176481   3.2154655  34.4487810   7.7100044
   8.4462386  34.5698810  39.5342660   7.6230401  34.6531630  40.0155544
   8.1925273  34.2026043  38.6875248   6.2118912  10.0287926  45.2524376
   5.6275755   9.3405330  45.5704069   6.1517817   9.9723524  44.2987967
  10.9728777   2.4997713  23.5160851  11.8443120   2.8206199  23.7482285
  10.8594418   1.7103481  24.0454006   2.4447367   7.2780669  16.6738796
   2.0005527   7.3486733  15.8289254   2.2327235   6.3973367  16.9830656
  25.6306505  30.6128097  38.7556767  26.2351990  31.1730313  39.2424059
  26.1908984  30.1197314  38.1563187   5.6481695  60.1963282   3.1916699
   6.2510628  60.3944778   2.4750893   4.8748761  59.8326254   2.7604270
  61.5319982  28.5042405   6.5534323  61.2234405  27.6469994   6.2598962
  61.0518006  28.6664844   7.3654163  14.9904883  25.8145285   7.8019428
  14.5659232  24.9747896   7.9774809  14.4254172  26.4615154   8.2242429
  17.9061460  42.5543118   5.6501466  18.2480860  43.2235098   6.2430060
  17.8640938  41.7606354   6.1835712  15.4603457  31.9352818  17.7130187
  16.0473585  31.2185717  17.4722421  15.6526160  32.1026826  18.6356461
  30.4361272  41.8957996  30.0843978  31.0004473  41.8907547  30.8575392
  30.8130765  41.2307024  29.5083880  15.2626121  27.9096055  24.9451065
  15.2006781  28.1788039  25.8615828  14.8641407  27.0395541  24.9235845
  19.1472995  17.6547348   5.0058043  19.1783655  18.6088049   5.0766438
  19.2355156  17.3446465   5.9070784  18.2383025  54.8770809  15.9173763
  17.6175880  54.1499090  15.9639549  19.0758038  54.4941950  16.1785722
  45.0868554  73.6702828  54.6797798  44.6853562  74.4448094  55.0736587
  44.3464608  73.1167965  54.4313846   8.0781826  58.0265096  24.1550493
   8.1582006  58.4751621  24.9967957   8.4868821  58.6216942  23.5265970
  53.6563022  60.4767089  54.7779958  53.6677440  59.5396285  54.5831053
  53.1933196  60.8696012  54.0380536   5.5952007  36.6022372  24.1279817
   5.2603853  35.8909798  23.5818672   4.8228458  36.9399500  24.5814705
  28.6368752   8.1391299  13.7255216  28.9781046   7.2620273  13.9001179
  29.3929219   8.7161517  13.8335407   5.8461171  45.0809193   8.6867654
   4.9461225  44.9031687   8.9599806   5.9763700  46.0091877   8.8806272
  29.9845266  57.6288223  20.5514240  30.3814268  58.4744692  20.3426647
  29.7641063  57.2509861  19.7000217  26.6326833  50.8265352  -0.0163024
  26.1400628  50.1895666   0.5012182  26.7069960  51.5920067   0.5535821
  65.5263928  47.3976946  12.5340056  66.0240975  47.6441097  11.7543900
  66.1059704  46.8030119  13.0101097  15.8905375  53.0919743  16.5941238
  15.7299912  52.1787071  16.8316054  15.8591247  53.5647964  17.4258006
  23.1470871  24.9663401  24.2591047  23.0902505  25.6065130  23.5497522
  22.3479509  24.4459391  24.1766810  51.5117455  11.0455918  23.1166410
  50.9344769  11.7984664  23.2438231  52.2587776  11.2170053  23.6900401
   4.7869596  20.4479814  54.6715879   4.4965711  21.3038635  54.3563604
   5.5601686  20.2481103  54.1439247  77.9405854  37.8348064  29.9613810
  78.2732990  37.5191569  30.8015585  77.0031563  37.9617906  30.1074409
  69.5661208   9.2082685  20.3424430  69.0937093   8.3908749  20.1845622
  69.1670927   9.5661879  21.1354780  35.7413435  29.1139007  35.2904201
  36.2202311  28.3115363  35.4980564  35.5875778  29.5276523  36.1397719
  61.7807515  59.6577172  54.3654565  61.4335616  59.4446330  53.4992669
  62.6247866  60.0735121  54.1895370  42.7463670  59.7484164  52.7028583
  42.4804302  58.8951330  52.3601959  42.2895153  59.8230271  53.5406838
  39.6312650  59.9656253  59.1925047  40.4947944  60.2581768  58.9010213
  39.4859345  59.1438441  58.7236927  28.9671897  35.1609102  11.6106319
  29.3616509  34.6334401  10.9160769  28.0774760  35.3347794  11.3033724
  23.6987089  48.6784725  59.4733618  23.0910255  48.2905130  58.8437269
  23.2755880  49.4934015  59.7437162  68.2544970  26.3148965  35.6412886
  69.0058553  25.7314528  35.5350326  68.6258220  27.1955813  35.5888794
   4.8256689  31.2331605  19.5218825   5.0284189  31.4008641  18.6015570
   5.6383348  30.8821988  19.8860693  73.9140073  58.2821465  25.7314396
  74.6669999  58.5078192  26.2776113  73.7170154  59.0862703  25.2510118
  21.5553689  39.5785832  16.4627779  21.0079408  40.2914476  16.7919886
  22.4416542  39.8088479  16.7415357  27.6093531  27.6565862  40.7383394
  27.8674674  28.2816482  41.4157677  26.6885185  27.8547287  40.5679417
  32.8872561  14.8891270   8.3469498  33.8441825  14.8989558   8.3262432
  32.6393151  15.8122075   8.3987093  14.3143654  18.5722697  20.5962133
  13.6122727  17.9252839  20.5275917  13.8653862  19.4170856  20.5656290
   2.5275776   3.7923172  19.7645783   3.3808815   3.5169163  20.0996280
   2.3219159   4.5868489  20.2571774  41.1619186  21.5185738  40.1729584
  40.9520245  21.6473317  39.2479730  40.3169584  21.3468671  40.5886459
  71.5487871   1.0974045  15.2743173  71.1249790   0.6088651  15.9799719
  72.4471930   1.2264731  15.5783570  53.6146131  23.3357263  36.9913173
  53.0437723  22.7389979  37.4753523  54.1056338  22.7682209  36.3971233
  76.6359170  66.8213992  51.0562359  76.0095961  66.4826565  50.4165445
  76.6894133  67.7580337  50.8662675   8.1787974  16.2016642  22.4456859
   7.2493243  16.0799479  22.6393270   8.4107536  17.0180738  22.8882957
  48.6961690  14.4125378  37.5129151  47.7551118  14.5285535  37.3818254
  48.9426509  13.7302053  36.8884945   6.7661226  19.8599041  43.9284039
   6.5652847  18.9815283  43.6053705   7.1659064  19.7141731  44.7858238
  41.5919161  19.0870023   4.1640621  41.7843103  18.5579956   3.3898729
  41.1568642  19.8667872   3.8192478   2.7798983  64.4790459  22.9654002
   3.0173436  65.3895330  22.7897000   1.9689158  64.3441391  22.4751568
  24.3750620  33.2977605  20.7757831  23.6096120  33.7480474  20.4186225
  24.1316247  32.3720407  20.7723141   1.3093832  31.6843867  43.5419321
   0.6112196  31.3215232  44.0870285   1.9519955  32.0192742  44.1673374
  35.4868161  68.7711379  42.0290565  35.6945323  68.6888704  42.9598188
  35.0283431  69.6084768  41.9590712  37.4897905  69.4024019  37.1211909
  38.0814846  68.6571293  37.0177577  36.6137345  69.0172057  37.1016739
   4.6814689  20.5136704  60.7895279   4.8670405  19.6054268  61.0280418
   5.5308223  20.9523869  60.8380938  30.9468579  41.2473679  24.3242884
  31.4666128  42.0161676  24.5588756  31.3777041  40.8955860  23.5452771
  22.6346588  28.7631297  28.8328314  22.4838281  28.1829214  28.0866146
  23.3726430  28.3686709  29.2976022  22.8962636  50.1377535  19.1230857
  23.4128046  49.6992636  19.7992086  22.6723981  49.4426632  18.5042417
  28.9625287  26.4827394   9.9134827  28.7845230  27.3088622  10.3629994
  28.4375095  26.5269351   9.1143370  70.8179650  69.7900915  20.9740019
  70.7703975  70.3973246  20.2356005  69.9468938  69.3955088  21.0161090
   5.9660518  21.3780355  21.6183329   6.2302250  21.9494963  22.3393583
   5.3727949  21.9145155  21.0925317  65.1659432  25.1651120  10.5637419
  65.6809929  25.9220529  10.8430207  64.5018151  25.5299258   9.9788678
  46.3123608  69.4989109   1.7095602  45.8792257  70.2749157   1.3539737
  45.7535553  69.2247963   2.4367681  76.7313501  52.2770262  15.1048434
  77.0038591  51.7266369  14.3706453  76.8118943  51.7101765  15.8719325
  18.1107315   1.0921539  58.8362799  17.1812566   0.9567942  59.0206222
  18.4876188   0.2123369  58.8468860   8.9975476  47.8383827  24.4069529
   9.8658454  48.2410908  24.3962407   9.0007192  47.2423267  23.6579943
  74.9943375  22.9580869  64.2066781  74.2291211  23.2817306  63.7313596
  74.8825883  22.0075501  64.2216866  53.4115601  62.6405525   5.8421427
  54.1237974  62.2102213   6.3151842  53.8202333  63.4064817   5.4389435
  50.6974975   2.6561703  57.4829738  50.6668604   1.8769802  56.9278554
  50.7296958   2.3129548  58.3759449  49.0889795  54.1344683  47.2601174
  48.9579423  54.0604966  48.2054160  49.1397460  55.0765316  47.0983456
  16.3341177  52.3623180  28.2490277  17.0204973  52.9254341  28.6068249
  16.3038754  51.6136074  28.8446379  26.3255262  25.7866120  15.3234529
  26.3947296  26.0519218  16.2405431  25.4082727  25.5351996  15.2154148
  19.7538567  30.5061269  34.2418981  20.3520989  30.4609156  33.4960461
  19.1194832  31.1807179  33.9995575  36.3287282  36.9808722  16.4871120
  36.2006807  36.5769744  17.3454249  37.0117807  36.4530349  16.0735214
  50.5228070   2.2129573  60.1986144  49.6239265   2.2073282  60.5275737
  51.0274931   1.7582215  60.8729581  11.4097226  49.8928976  19.0468824
  12.2383177  49.4178438  18.9837861  10.8712089  49.5295954  18.3438575
  25.5385709  37.0569921   7.5261021  25.3259635  36.1608887   7.2652841
  26.4371252  37.0048332   7.8518492  26.9274521  67.6042557  19.8649085
  26.3207102  68.1327343  19.3464375  27.6149035  67.3540926  19.2476106
  14.5733035  70.0241470  38.6507893  14.8359680  69.8440170  37.7481318
  13.6219406  70.1209068  38.6086273  30.4664779  39.2136264  32.8469229
  30.6370449  40.0435591  33.2922912  31.3316369  38.8196874  32.7349138
  47.8968763  42.3491716  15.8706403  47.6460791  41.7878532  15.1369822
  47.8497028  43.2382107  15.5190527  11.6599238  48.8873816  26.9570541
  12.4308884  48.4761286  27.3478413  11.1434364  49.1873693  27.7050400
  26.6594028  44.4013643   1.8481721  26.4876151  43.6545658   1.2745777
  27.5777149  44.6194601   1.6888832   6.1631250   4.2647901   2.0474735
   5.8600408   3.3573210   2.0179468   6.9598728   4.2340910   2.5770789
  71.1122306  43.7989770  61.3137783  72.0336325  43.5401999  61.2969593
  71.0260279  44.4247304  60.5945880   3.2673749  49.8258151  56.4785222
   4.1414507  49.4555224  56.3556282   3.3104023  50.2645339  57.3281757
  12.8952885  11.9214118  28.4782839  12.6612628  12.6444638  27.8963375
  13.4977829  11.3848031  27.9632282   3.2551014  17.1123350  16.0210216
   3.9979658  16.8325996  16.5559363   2.6813293  17.5754023  16.6314197
  24.8999524  31.7294121  16.4209318  24.0579319  32.0507216  16.7434156
  24.7962856  31.6987824  15.4698551  44.6916095   0.9641060   1.6437060
  44.9144260   1.0006174   2.5738949  45.5329839   1.0354599   1.1928965
  33.4373975  64.0294981  25.6592178  33.5487199  64.5839691  24.8869467
  34.2981935  63.6338663  25.7961130  23.0403543  39.0113473  30.9313583
  22.6741815  39.8911595  30.8414769  23.4343696  38.8276339  30.0785780
  14.3696427  39.9011421  27.1279788  13.7772691  40.0980854  26.4023495
  15.0437963  40.5787849  27.0774984  76.8627118  65.4772310  43.3032535
  76.3650249  66.2948685  43.3062885  77.7649854  65.7466798  43.1314157
  74.4962628  71.9741445  53.9541171  75.0895961  72.7217035  54.0272330
  74.1186555  72.0528560  53.0780767  27.6478863  43.5338163  23.0413604
  28.4404325  43.9674759  23.3576608  27.4513888  43.9692545  22.2118950
  68.5646769  31.0108471  30.6262589  69.0961900  31.7776775  30.8400273
  69.1758254  30.2755594  30.6718612  38.0369087  67.4429016  62.9970305
  38.1645437  67.7521448  62.1001978  37.2112615  66.9594507  62.9684573
  71.9374593  40.8804728  45.3276346  72.8651555  40.6587111  45.2473829
  71.8285210  41.6571500  44.7788761  18.2751656   0.8282087  19.0317380
  17.5280035   0.5809862  18.4868884  18.5149717   1.7032154  18.7266362
   6.9527348  39.1837777  62.4748188   7.3955854  38.4235944  62.0976789
   6.7033180  38.9032258  63.3553379  18.7418401  60.9510660  31.8585157
  18.9017391  61.2191010  30.9536290  17.8545165  60.5921936  31.8487763
  29.5378208  59.7682047  25.8654976  30.2324677  59.6345568  25.2206445
  29.8549938  60.4856968  26.4139819  78.3885714  34.6160102  15.6298900
  78.4229701  33.8940144  16.2574017  77.9194545  34.2567086  14.8768544
  23.0417252  39.7146654  26.8807340  23.4614682  38.8662434  27.0229578
  23.7495661  40.3515148  26.9787884  34.7739339  54.6304560   2.3823674
  34.3798113  54.5640421   1.5126036  34.9971151  53.7288332   2.6136702
  59.0072282  63.1492071  51.9109939  58.7092693  63.8025336  52.5439380
  58.2173474  62.6589899  51.6829465   5.6651505  24.6758594  62.9670128
   4.8750170  24.6103276  62.4307042   5.5755242  25.5119313  63.4243767
  46.1409741   1.8820824  45.0646148  46.1841624   2.8382172  45.0514637
  46.9886714   1.6088380  45.4152964  10.6417692  42.0147943  16.6138923
  10.0103450  42.6668739  16.3100362  11.3498640  42.0491791  15.9707355
   2.4439231  62.8668165  13.5355759   1.5728593  62.6621199  13.1956077
   2.2850375  63.4994698  14.2361045  37.8392012  73.9279418  49.7029720
  38.1003208  74.7256951  49.2429314  37.8134795  73.2560878  49.0216623
  42.1767187  46.4846992   6.3370198  43.1265926  46.4712477   6.4544457
  41.9577980  45.5969429   6.0538316  68.5787137  70.9189277  52.4981759
  67.9104979  71.4788442  52.8934131  69.2173798  70.7782822  53.1971429
  31.4751625  46.3950253  10.4711795  30.7336140  45.8738184  10.7788849
  31.6561913  47.0013475  11.1893964  69.0456596  58.4381819  22.4694014
  69.6656075  57.8454304  22.8943038  69.5508072  58.8512945  21.7691207
  23.6942577  20.7574582   3.9475167  24.6428633  20.8854437   3.9466059
  23.3820486  21.2854338   4.6823633  78.3292102  14.6521701  37.1390794
  78.4987139  15.5234803  37.4972962  78.0611967  14.1302480  37.8953860
  31.6365528  48.7926340  21.7943406  31.6592050  48.4506178  22.6880670
  31.6871452  48.0147457  21.2388539  70.9758631  12.0522293  27.1289897
  71.6883151  12.6772770  27.2629857  70.9557167  11.9113144  26.1824322
  36.0395885  21.7356586  22.0904684  35.4482293  21.6255450  21.3458872
  36.4577341  20.8807135  22.1927094  26.1278033  18.8155723  31.0585380
  25.9149408  18.4767592  30.1889825  26.9887590  19.2205203  30.9536481
  74.4315608  61.8784790  53.5631273  74.0601142  61.9051604  54.4449131
  75.3283198  61.5688138  53.6902581  36.4003992  54.0749598  20.0390601
  35.8341169  53.6175728  19.4174850  35.9065104  54.8582458  20.2814674
   0.1837882  29.8377313  62.4494403  -0.1417915  30.6355514  62.0326538
   0.7331022  30.1501264  63.1683939  36.1280918  57.2522593  22.6596284
  36.8043518  57.3630142  21.9913197  35.7615614  58.1286764  22.7770257
  67.4255573  20.0759829  53.6423538  67.7481186  19.2638720  53.2516335
  68.1826257  20.6616868  53.6367379  63.9696550   5.5961233   9.4619536
  64.5777130   4.8974416   9.7034925  64.5042992   6.3900900   9.4634992
  36.5055823  28.8515925   5.6479359  35.7558966  28.8206172   5.0535929
  37.2670102  28.7377453   5.0791663   2.3653921  14.7218169  62.6245832
   2.9354938  13.9676990  62.4745130   1.6832622  14.3935718  63.2104036
   5.8074766  39.3597531   5.7375437   5.3703737  38.6781049   5.2271247
   6.6387779  39.5019984   5.2848458  52.9423952  55.0222874  14.9226296
  53.6617804  54.8232412  15.5218792  53.3608294  55.4668570  14.1854036
   3.2238786  51.9575744  53.3977411   3.7479417  51.1885862  53.1735800
   3.3778016  52.5702398  52.6785885  57.5141596  38.1372346  59.0460054
  57.5996714  38.8904323  58.4615300  57.4875467  37.3809899  58.4598122
  34.6746172  64.1697340  60.5990611  34.3322273  65.0496845  60.7561917
  35.4208268  64.3038850  60.0147609  53.2388929  36.8009891  62.7536267
  53.7322804  37.4867381  63.2036875  52.6682036  36.4341105  63.4288628
  36.5261713  29.3052793  22.0139217  37.0827738  30.0829840  22.0539236
  36.3247886  29.1075706  22.9285741  33.2265401  52.9748774  20.6774950
  33.5373139  53.2426977  19.8126686  33.7355232  53.5059643  21.2899590
  72.1914084  39.5037748  51.1328040  71.7724736  40.3152816  51.4194761
  72.1272881  39.5254512  50.1780008   6.0742050  39.4603539   8.4181684
   5.2002400  39.6929288   8.7317383   5.9437788  39.2219281   7.5003588
  15.1583314  62.9964018  30.9323692  14.5121288  62.6688290  30.3067875
  15.6016278  62.2106981  31.2523532  15.3455067  44.9395418   9.5025724
  15.1633847  44.8722267   8.5652721  15.2784157  44.0406942   9.8247594
   9.7937602  49.7119093  16.7439461  10.1499653  49.7180796  15.8555138
   8.9315844  50.1189661  16.6591454  14.0257867   8.9990653  24.4127510
  13.4517129   8.2493247  24.5694802  14.2652019   8.9283551  23.4886788
  33.2259059  45.6561518   8.4424907  33.8298726  46.3886309   8.5646850
  32.5932121  45.7459593   9.1551369  14.9944623  66.1514883  56.6250591
  15.3776737  65.8243637  57.4389218  15.6998463  66.0789852  55.9820901
  76.9295295  67.3772554  39.7782825  77.1407111  67.8510861  40.5827187
  76.3896926  67.9873233  39.2756651  32.2126945  18.4128322  62.1235198
  31.3883623  17.9319514  62.1974204  32.6453622  18.2774581  62.9665537
  10.9815907  16.5016210   3.8362679  11.5668571  15.8961987   4.2914152
  10.2767432  15.9472346   3.5014874  18.7764502  61.8772030  29.2339087
  19.0338945  61.3073063  28.5092211  17.8982747  62.1786833  29.0012097
   9.5556003  34.2541575  13.3824432  10.4715097  34.5168614  13.2911825
   9.0629274  34.9455571  12.9403245  15.8440956  17.7829446  46.1673163
  15.8596548  17.5303735  47.0904623  15.9533580  16.9594182  45.6918142
  12.2360349  64.0564919  20.2808571  11.7410350  64.7550154  20.7089663
  12.6527762  64.4826365  19.5318842  56.5193769  23.1580104  46.1620055
  57.0881548  22.6241483  45.6072853  56.5978458  22.7669229  47.0321356
   5.3483820  47.1167183  34.1160393   5.3344291  47.1610975  33.1599712
   4.6199673  46.5373421  34.3395710  30.5863307  70.6767182  54.7106467
  29.8404835  71.2500505  54.8873739  31.2727530  70.9879141  55.3007422
  18.7948616  58.7267642  57.9650973  18.6551835  58.7707453  58.9110295
  19.6955968  58.4171038  57.8701345  39.0829134  19.9722624   9.1765219
  39.0036750  19.1642725   8.6694664  38.3776426  19.9203479   9.8216033
  39.2429686  38.8110971  16.1466157  38.3154964  38.9847255  15.9857476
  39.5904446  39.6435213  16.4668727  77.4288391  64.2875719  23.9478421
  77.0797864  63.5311985  24.4193220  77.3826927  65.0055313  24.5792174
   2.6318153  51.4953078  63.2221517   2.3768838  50.9002913  63.9272740
   3.3560618  52.0033874  63.5876029  29.9026537  24.1098404   1.4707127
  30.4316688  24.3441868   0.7081804  29.0950918  24.6128845   1.3657120
  19.7286161  55.8599223  60.8736969  19.0358671  56.1379661  61.4728831
  19.8465236  54.9283923  61.0596584  47.7209425  60.4964972   4.6077478
  48.1753635  60.5276060   5.4496300  46.8045664  60.6693268   4.8236713
  12.4462724  71.5066385  21.2948799  12.9459476  72.0328856  20.6706858
  11.9755399  70.8741522  20.7521033  63.4319258  47.0918417  29.2609620
  64.0264559  47.4810791  28.6196637  62.9289389  47.8317356  29.6012354
  73.8577682  50.9103918  36.9128323  74.0450466  50.7915449  37.8439784
  74.7116894  50.8407450  36.4859843   0.4301776  35.9621072   6.6098428
  -0.5082114  36.0624647   6.4498842   0.7047494  36.8082643   6.9632000
  10.1400912  43.7148666   1.1139792  10.0719666  43.0080795   0.4720724
  10.9617519  43.5424757   1.5737472  74.4803411  34.3848968  18.2518077
  74.4230694  33.5829449  17.7323592  75.4181904  34.5097470  18.3970070
  72.4826810  69.4657707  26.8127346  72.2030792  69.6025515  27.7179122
  72.1209690  68.6115217  26.5768123  78.6371445  36.7737950  41.2522600
  77.9961275  37.3699845  40.8651040  78.3149480  35.8997811  41.0319780
  32.9492807   0.4168929  55.5770872  33.6398422   0.2672471  56.2228141
  33.3817910   0.8966483  54.8706858  66.6729414   8.0086507  57.2100411
  65.8748328   7.4836291  57.2701137  66.8407368   8.2930459  58.1084816
  14.7957623  41.9104671  12.7710998  14.5148385  42.2836685  11.9356143
  14.4373477  41.0229063  12.7695549  23.1900835  34.9898577  17.8267407
  22.9509878  34.1115808  17.5306070  22.4255013  35.5280924  17.6219308
  26.9485021  71.0280514  15.0077355  26.2543440  70.6747627  15.5641186
  26.9784498  70.4353619  14.2567015  12.1241522  67.5924301  12.0102859
  12.2225642  66.8386889  11.4285457  11.3578963  68.0566549  11.6732740
  61.9138193  45.4397774   6.4932489  61.7328501  44.9221563   5.7086754
  62.8075886  45.7589912   6.3687032  54.5756991  48.7820010  60.1116891
  55.5319126  48.8204341  60.1320503  54.3244584  48.5891466  61.0149704
  20.9021457   3.7142123  26.6600869  21.6650709   3.3296098  27.0916556
  21.2706598   4.2802609  25.9818385  46.7480659  33.4067106   2.8149566
  46.3876390  33.4248400   1.9283937  46.2795067  32.6940513   3.2494688
  34.4965100  36.2293601   7.4491805  33.6466050  36.2574124   7.0097405
  35.0227308  36.8875289   6.9951600  26.3860541  62.1847038  52.7527140
  26.9363858  61.5693788  53.2372151  26.2708453  62.9241590  53.3495091
  51.8519974  24.4227767   6.5924662  51.6354084  24.7446036   5.7173955
  51.1970949  23.7471294   6.7680657  22.5805934   2.1345796  53.6718462
  23.1211265   2.8167714  54.0701811  21.7175993   2.2501053  54.0695064
   8.0622095  12.5568104  40.1323080   8.6452562  13.1916022  39.7159839
   7.2764075  12.5589299  39.5857358  32.6482749  27.7470350  11.3702583
  33.4710455  28.1779099  11.6018403  32.4173951  27.2381353  12.1473980
  50.3005870  60.1964073  53.1376587  51.0463293  60.7935767  53.1967006
  50.6440528  59.4287782  52.6804827   9.1162747  36.5903521   0.4251277
   9.0184516  35.6844926   0.7185227  10.0546074  36.6900635   0.2644397
  14.5999479  61.7013216   0.3150608  13.9864826  62.1863031  -0.2369192
  14.5862651  62.1645308   1.1526035  33.8661178  33.4198941  62.5137804
  32.9638752  33.1097735  62.4362318  33.7994226  34.3718518  62.4391661
  69.5107650  29.8416175  56.3594387  68.9403164  30.5109920  55.9816079
  69.0064441  29.0309037  56.2913559  59.5845323   8.3919181  55.7141690
  60.0508558   7.8521193  55.0758962  59.4360345   9.2225970  55.2623431
  22.8160214  41.7859554  31.7510056  23.6190915  42.2498941  31.5142179
  22.1350741  42.1998215  31.2206697  65.8405303  26.5790690  31.7552660
  65.5395483  27.4363030  32.0565770  65.2158307  25.9596814  32.1325467
   8.8817056  16.6804017  57.5652162   8.8303121  17.4315108  56.9740920
   9.3177351  16.0006274  57.0513932  48.2609033  12.0230998  44.3806325
  48.2738369  12.1796645  45.3248523  48.2447731  12.8981294  43.9929555
  39.3493342  52.3572397  23.6682558  38.8381267  51.6727400  23.2365656
  38.8520288  53.1605339  23.5145116  31.3987112  12.7495694  19.4728816
  32.1829367  13.2983053  19.4621861  30.9950662  12.9252064  20.3228545
  74.3872187  65.9973717  22.8224540  75.1761478  65.9461308  22.2828293
  74.5953634  66.6515636  23.4894943  77.9349899  43.3230925  12.7928603
  77.4468009  43.8273430  13.4437335  78.0102702  42.4485540  13.1746209
  21.8831491  41.6206789  28.5492659  22.6113343  41.2587738  28.0442882
  21.9130111  42.5609350  28.3724666  67.9867736  34.4353938  34.8663545
  67.9455915  34.5598125  33.9181685  67.3064044  33.7884259  35.0527978
  17.1788812  28.1193352  39.9226975  17.0168388  28.4664893  39.0455103
  16.7353308  27.2711372  39.9303126  27.2530532  50.3859854   9.6882880
  28.1817842  50.1783991   9.5853221  27.1308017  51.1921453   9.1868931
  47.5151475  15.1753558  56.3047383  48.2222255  14.7635020  56.8013762
  46.8767532  15.4363908  56.9684778  33.8830733  38.3338189   9.8427641
  34.6433425  38.3372927   9.2612028  33.2801628  37.7056813   9.4450510
  19.5366526  30.5587506  38.8579345  19.8412931  30.0266194  38.1229091
  19.6665359  30.0027514  39.6261978  33.0690098  57.0377779  29.3440485
  33.8138151  56.9743586  29.9419403  33.0943918  57.9397583  29.0246511
  20.5137348  53.3701086   2.7997458  21.3642025  53.3001709   2.3661035
  20.6232142  54.0839148   3.4280232  58.6696529  54.7265720   7.5826961
  57.7802420  54.3891096   7.4764264  59.0517807  54.6746922   6.7066139
  27.5042602  63.0462055  61.3100280  26.9954413  63.1810217  62.1095027
  28.1941246  62.4338274  61.5655879  39.4874120  51.5953827  11.3641250
  39.2743134  51.8354273  10.4623497  38.6935425  51.7967463  11.8595588
  15.1177470  65.8286338  59.5991580  15.1623838  65.8899169  60.5533506
  14.4819228  65.1326017  59.4333382  57.7770453  48.4269179  63.7171803
  57.2436779  49.2118396  63.8422507  58.0002361  48.1451453  64.6043218
  77.0116559  44.9284458   4.4105336  76.7829327  44.3970013   5.1730847
  76.2230259  45.4399490   4.2298225  36.6653442  42.8466368  12.6151800
  36.2325597  42.6629305  11.7814052  37.4537778  42.3040628  12.6004410
  37.1686395  13.1648244  54.2700647  36.2464746  13.1086196  54.0196846
  37.4291404  14.0532054  54.0268598  21.3930225  66.2168026   6.3029635
  21.6606593  66.0371304   7.2042507  20.5929589  66.7351103   6.3894987
  29.6778727   9.2628515   3.5177240  30.2830505   9.8703742   3.0923915
  30.0813842   9.0771466   4.3656182  43.8566828  46.9701242   3.3382955
  43.9239025  46.3866472   4.0941176  44.7518873  47.0354128   3.0057579
   2.8058680  13.4439410  58.8944624   2.9378732  14.1112842  59.5678569
   2.1850093  12.8290070  59.2851268  29.8852301  50.4814720   7.7376944
  29.5927143  50.4843092   6.8262899  30.5511928  49.7948503   7.7733630
  28.1481433  43.7636518  27.3301387  27.9876852  43.3713722  28.1883931
  29.0837336  43.9658928  27.3303699  66.2009481  63.1778717  29.8416162
  66.0459903  62.7376699  30.6773424  65.3873542  63.0560541  29.3522716
  12.2400316  29.9368180  61.5762262  12.9987486  30.2334870  61.0736693
  12.4164160  29.0128125  61.7532430  76.2167338  52.5757122  18.2561672
  75.4793403  52.9389286  17.7657008  75.8484688  52.3505354  19.1105139
  25.7088494  10.3070891  50.9326887  25.0266290  10.7672143  51.4216566
  25.2361441   9.8402506  50.2435970  76.1858101  56.2214041  18.5307944
  77.0722184  56.5773201  18.5927153  76.0816991  55.6982756  19.3256080
  16.5317929  27.5225854  20.9995818  17.1040106  28.2508969  21.2411618
  16.4034367  27.0381427  21.8151021  23.3645725  51.4746237   9.3936116
  24.2867184  51.3067150   9.1994870  23.3266878  52.4119520   9.5839107
  71.6168784  45.2483921  49.1571067  71.3541983  44.7100745  48.4104846
  71.9583963  44.6222322  49.7954808   7.0406598  13.1762910  12.8754914
   6.8522382  13.7556040  13.6138177   6.4044166  12.4661386  12.9598129
  57.4629062  12.0850839  42.0983170  58.2222997  11.5149678  41.9778178
  57.2729870  12.4195041  41.2217782  31.4332485  54.4563675  12.8594649
  32.2300982  54.0047693  13.1375301  31.3181186  54.1978502  11.9450545
   8.4543061  48.3195972  27.1767688   8.4706497  48.2364273  26.2233305
   8.3943790  49.2618942  27.3339963  57.5715955  47.5268583  48.4323524
  56.8273337  48.0812161  48.6668621  57.9462655  47.9444055  47.6567827
   7.8658277  42.7129507   2.7721623   8.0608386  42.7775621   3.7070563
   8.6150199  43.1253099   2.3421600  47.9974270  34.8727417   6.8941367
  48.1344318  35.8200693   6.8997943  47.0464754  34.7684598   6.8616515
  43.7913084  61.0413742  26.6257048  43.1739426  61.7701387  26.6888332
  44.6483898  61.4397287  26.7772126  55.8675814  46.2609625   2.4497405
  56.1824656  45.8720827   3.2657388  54.9926472  45.8915424   2.3303588
  14.9589884  54.3422031  19.1036296  14.2800605  53.6803913  18.9721370
  15.3380442  54.1302776  19.9566448  72.4148925  67.3313575  63.0865051
  72.1284087  66.8940811  63.8883448  73.0956443  66.7594485  62.7319237
  41.3118076  63.6750698   3.1159395  41.7533112  62.8542995   3.3342040
  40.6775141  63.8008738   3.8216865  30.7127953  27.4131775   4.5168030
  31.3613844  27.2581244   5.2034783  31.2214184  27.7473521   3.7779784
  30.2744087   8.8296069  47.4242709  29.9857601   8.0328359  47.8693197
  30.2968105   8.5915221  46.4974235  76.3261080  32.4826503  28.6908007
  76.6000973  31.8006968  28.0775309  77.0226263  32.5086880  29.3468618
  30.8006740  34.5189214  22.9414916  31.1776733  34.3230343  23.7992406
  31.5372205  34.8464012  22.4252677  22.9646468  13.5118890  20.9387255
  23.4612584  14.0053439  21.5914989  22.7950072  12.6669490  21.3552952
  54.9613555  60.7784347  62.3443334  55.1708801  61.5579181  61.8298082
  54.2358859  61.0503678  62.9064528  24.9675632  66.0451508  34.9546576
  25.1997733  66.6247034  34.2291045  24.0185475  66.1364794  35.0398636
  64.6146488  43.5952997   2.2828187  65.4234362  43.3347273   1.8421362
  64.9079275  44.0662003   3.0628675  41.9699001  63.8120747  23.7564373
  42.9137659  63.9523602  23.6811471  41.6701126  63.7100554  22.8531384
  39.6547318  47.6298761  10.8380115  38.7897921  47.9976988  10.6568480
  40.2129030  48.3929205  10.9878170   8.8921627  18.1243504  51.1582719
   9.1754516  17.2180928  51.2794111   9.3712195  18.6162271  51.8252037
  25.3112864  57.1992350  11.5822852  25.0857711  56.7511225  10.7670736
  24.6217322  56.9433975  12.1948981  14.7983440  14.7374286  60.5174868
  15.5456909  15.2047862  60.8906822  14.3321928  14.3864097  61.2762509
   1.0344832  56.5287733  32.1506739   1.0143823  56.8286324  31.2418771
   0.9782674  55.5751801  32.0895457  39.5507693  49.3470621  19.2950416
  39.5350957  50.1950979  18.8513923  38.6306024  49.1532183  19.4737804
  61.5659952  38.6507130  20.9530449  61.7040396  37.7819753  21.3304973
  62.3415613  38.8032889  20.4131818  20.0408602  72.8469515  14.2077196
  20.3147340  71.9455528  14.0383065  20.4458451  73.3562756  13.5057175
  17.9370105  49.7596073  20.4814982  18.0344939  50.6950665  20.6593704
  18.6139250  49.5673704  19.8326027  11.7307544  16.5379655  25.9631228
  11.0555243  17.2087920  26.0645509  12.5143802  16.9261277  26.3523436
  63.0809641  46.9633389   2.5246990  63.5390568  47.0239687   3.3629751
  62.2281265  47.3660755   2.6881272  73.0606890  37.3517442   3.9623132
  72.7814531  36.7314768   4.6357584  72.2595501  37.5602770   3.4817678
  31.8229413  61.8600321  28.1648946  32.0105267  61.7325687  27.2349501
  30.8827734  62.0368099  28.1975460  37.2630528  15.6778416  16.3390744
  38.1689755  15.3894886  16.4503694  37.2356609  16.0459885  15.4559255
  42.0976301  72.2696619  63.4546087  41.6289349  71.4357333  63.4880997
  42.8991182  72.0746140  62.9690116  57.5285387  23.0278087  10.7344544
  57.8725576  22.1992254  10.4007828  57.2639990  23.5101199   9.9511117
  37.3220205  64.3502331   8.0097318  36.5274763  63.8518238   8.2008380
  37.2770405  64.5212126   7.0690012  48.2074673  72.5659304  53.2660304
  48.2554467  71.6124921  53.3359001  47.8323992  72.8486328  54.1000776
  36.5055561  71.0183668  51.2281704  36.3356304  70.1535082  51.6015005
  36.4908528  71.6108131  51.9798470  15.2240205  49.1634226  12.6043904
  15.5496669  48.9624500  13.4817708  14.8609710  48.3360624  12.2883224
  68.8785791  66.3580370   8.7966847  68.0796480  65.8308411   8.7986565
  69.2302370  66.2566853   7.9122102  64.6522652  26.0678376  62.6724906
  63.7488984  26.3702811  62.5792914  65.1846205  26.8207540  62.4156900
  33.7534499  58.5775328  26.4056277  33.8908744  58.9513540  27.2760320
  34.0052009  59.2766476  25.8022261  30.5430365  70.7956553  26.3177490
  30.1198840  70.3665876  25.5740595  30.2974129  71.7170238  26.2342024
  48.9778393  70.7937780  39.9864054  49.8976719  70.6024340  40.1695108
  48.5853266  70.9302074  40.8486986  37.5547966   9.8369540  60.5152412
  37.7600797  10.4017104  61.2603180  37.0636829  10.3995170  59.9164383
  77.6364088  65.0058937  11.3851154  77.8685665  64.3056297  11.9950080
  76.8235302  64.7081041  10.9767222   8.8445759  17.0683324  13.3763850
   9.7415125  16.8142116  13.5935450   8.3417684  16.8711424  14.1666579
   1.3720950  57.0728244  62.6651674   1.6473158  56.6814078  63.4941924
   1.6548642  56.4463557  61.9989745  45.8782959  44.9271488   3.5912153
  45.1909208  44.3133688   3.8501105  46.0630083  44.7085333   2.6778033
  35.5163240  45.3351068  25.3057837  36.2766910  45.1221704  25.8468270
  34.9875784  45.9153461  25.8534908  42.1396724  23.3676228   4.3600354
  42.5185780  23.0966839   3.5238230  42.2027115  22.5900635   4.9147063
  22.4185348  54.1415453   0.3549988  21.5134072  54.0704489   0.6581891
  22.6405692  53.2601118   0.0549908  59.2569684  49.4557513  52.8002403
  58.9184242  49.3030967  53.6824630  58.8124614  50.2513160  52.5074552
   1.9775900  42.0861244  14.8331904   2.7595934  41.6306734  14.5213342
   1.2704357  41.7540026  14.2801416  18.4111857  50.7518005  25.8247137
  17.8205967  50.8733940  25.0813079  17.9097855  50.2224016  26.4448500
  29.7407556  73.2125425  11.1390555  29.4503784  72.3210669  11.3318956
  29.7591519  73.6480618  11.9912386  14.1277266   4.4456896  28.4065413
  13.3470298   4.2283043  27.8971410  14.8238707   4.5276913  27.7547073
  42.3552561  40.9896517   1.0062388  41.5229845  40.5710030   0.7864842
  42.2434282  41.9012070   0.7364338  49.2998028  40.7537317   6.2408674
  48.7291050  41.2464046   6.8306237  49.4249773  41.3330984   5.4892695
  27.7435315  21.5641483  22.3956752  26.8869769  21.9905838  22.3692155
  27.6879776  20.9609207  23.1368017  64.1502237  56.2802601  30.5557060
  64.0924549  56.0966969  29.6180487  63.2523203  56.1865997  30.8738637
  24.5635915  47.1775818   8.1025022  24.6370721  46.4719820   8.7451243
  23.6455798  47.1604967   7.8319556  41.9398419   4.0342411  13.3527660
  42.8858499   4.0828928  13.2151663  41.8293003   4.1428789  14.2973351
  25.4800582  63.0833197  42.4814367  26.4090919  62.9799891  42.6874733
  25.4669619  63.3533573  41.5632105  65.3222214  21.2935103  44.2223845
  64.8146796  21.8229808  44.8374448  66.2281024  21.3861979  44.5173774
  51.5436792  63.0502701  25.4715586  52.4271965  62.7073765  25.3372121
  51.6685772  63.9906549  25.5992603  16.8488145  38.8370323  14.0216935
  16.6395128  39.4411373  13.3093154  16.2984180  38.0715990  13.8561320
  30.3321966  16.2961472  48.6467145  30.8964857  15.5254830  48.7091051
  30.9376224  17.0266952  48.5202585   5.7452044  40.3520775  16.2422192
   6.1930975  41.0536051  16.7149615   5.3915152  39.7877741  16.9297504
  27.4211979  70.4109478  35.9839177  26.5944076  70.1096058  36.3605404
  28.0289602  70.4282236  36.7232132  23.1636556   0.0909533  56.5453754
  23.9096769  -0.4057179  56.2092207  23.5533699   0.7461037  57.1242814
  27.8180480  70.4081297  10.3975046  27.7947426  69.9214411   9.5735997
  27.4882150  71.2777901  10.1713753   8.0586869  49.8423958   3.3657986
   7.6709682  50.5610561   3.8652265   7.4294418  49.6707773   2.6652056
  53.8449860  43.6818027   9.2334938  53.6862659  44.5574665   8.8809896
  54.6662045  43.4051704   8.8269144  55.8798504  46.2574148  36.3860989
  56.1670399  46.2818670  37.2988749  56.3757944  45.5364323  35.9982085
   8.4518465   7.6502313  50.4235981   8.9931496   7.7658118  51.2045358
   8.5229429   6.7179193  50.2187310   0.3139981  29.3334998  48.4678362
   0.6145867  30.2202453  48.2689331   0.6087717  28.8081778  47.7239452
  14.9601015  52.8282203  56.4746903  14.0980371  52.4410285  56.6268967
  15.0659498  53.4631576  57.1831248  61.8755543  28.5828055  54.1130303
  62.4009716  28.1137122  54.7611962  61.1345332  28.9288129  54.6104239
  77.3988175   8.9316167  51.9609283  76.8643927   8.6789788  52.7137886
  77.1293687   8.3330335  51.2642739  39.5904116   1.4364895  10.6244779
  39.0689949   2.0668968  10.1275480  38.9437357   0.8879980  11.0685551
   4.4028791   1.9641961  54.9829821   3.5369309   1.7940034  54.6123074
   4.5708283   1.2141694  55.5534951  44.2099667  11.0970175   3.2697639
  44.4086695  12.0227253   3.1290010  45.0661755  10.6805325   3.3681437
  66.9047451  69.0306377  11.7424929  66.6630316  69.5374298  10.9672713
  66.3793468  68.2329226  11.6805494  61.8717992  13.6068429  44.5497142
  62.5593745  13.5270204  45.2108501  62.3257100  13.9248218  43.7692760
  54.7785473  43.2240772   5.7996792  54.0521097  42.6489925   5.5592704
  55.1036167  42.8666687   6.6260099  25.1375842  50.0562477  29.4182873
  25.5976892  49.3227863  29.0101528  24.4059181  49.6508837  29.8836660
  53.7742765  51.3702075  31.3773320  53.9586313  51.4040308  32.3160027
  52.9553969  51.8554752  31.2764333  21.6615661   5.6592454   1.8415592
  21.5944131   5.1334466   2.6385878  21.8258651   6.5487708   2.1545790
  21.4957174  12.0035304  54.1570745  20.8623537  11.2924327  54.2541335
  21.0449251  12.6539554  53.6185919  39.9240971  27.3453220  16.8538094
  40.2121449  27.8959450  17.5818694  40.4076100  26.5269455  16.9665551
  27.0156988  24.9670386  -0.0324751  26.1544165  24.8248172  -0.4251575
  26.8354449  25.1018906   0.8978767  20.8215761  38.6707473  21.9747686
  20.0391340  38.1434083  21.8137431  21.5504813  38.0651474  21.8399453
  11.3799107  59.0675449   7.5474554  11.2132204  59.8722696   7.0566797
  12.1611321  59.2605829   8.0657816  77.8867006  44.2183532  45.2039860
  78.8366579  44.1080035  45.1635633  77.6923942  44.2806663  46.1391829
  55.0558113  30.0781859  63.7713513  54.4756029  30.2635087  63.0329436
  55.8890637  29.8371448  63.3666027  41.4750910  61.5494347  10.3858221
  41.7951298  60.9579134  11.0669291  40.5641890  61.2883425  10.2504849
  39.2046014   0.3943476  24.7411895  39.4267765   1.2373241  25.1364851
  38.5341052   0.0285515  25.3181291  43.7015533  65.7078934  11.5907633
  43.3317041  65.3837347  12.4119616  44.0539742  66.5702486  11.8107104
  13.3672357  59.5235634  22.2067809  13.0241084  60.4052258  22.3522520
  13.3131635  59.3988180  21.2592840  23.6668205  53.9841557  10.3582644
  23.7920403  53.3982229  11.1047459  24.5229292  54.3918657  10.2275562
  73.1747214  12.7527222   8.7283748  72.8793732  12.3019585   9.5194578
  72.4937455  13.4025845   8.5546178  12.5329336  11.2750806  46.2390743
  11.9134840  10.6183566  46.5572308  12.5603517  11.1394586  45.2919267
  54.0483148  42.8413533  48.8028584  55.0039680  42.8912835  48.8244365
  53.8193186  42.3046921  49.5616649  70.5311044  73.3294611  41.5288947
  70.2985366  74.2142539  41.2473128  71.4882787  73.3227329  41.5313838
  35.0857902  45.5874538  22.5721812  35.3900051  45.5666447  23.4795141
  35.3001285  44.7204685  22.2277570  18.3626748  20.1265224  56.5197945
  17.5281907  20.5629810  56.3484049  18.5873414  20.3821262  57.4144602
  19.0711701  41.3550377  14.9675262  19.2603171  41.1101532  15.8733332
  19.9179065  41.6220617  14.6098030  57.1243715  47.9655552  25.6797576
  56.6838694  47.5108051  26.3976645  57.4111938  48.7950087  26.0618138
  31.8361735  67.1681356  32.3573136  31.1043930  66.7397738  32.8014255
  32.4371290  66.4545727  32.1430492  18.2113624  68.2318068  34.0932703
  18.4998810  67.8231096  34.9093318  17.2616041  68.3069229  34.1857409
   1.6001321  17.9363998  20.7769060   2.4594784  18.3159431  20.9604812
   0.9780074  18.5587868  21.1535072   6.8175174   5.2561125  35.4049563
   7.7084351   5.1298174  35.0785327   6.3683654   5.7234367  34.7006083
  24.1604829  61.4472055  23.4961987  24.7900534  61.9242859  22.9555798
  23.3253527  61.8864250  23.3353281  29.1195059  45.5744743  11.2620032
  28.8405609  44.9295712  11.9120193  28.3040905  45.9615517  10.9434104
   2.5570441  19.9775299   3.0091137   2.6324321  20.9307655   3.0526349
   2.3848105  19.7094330   3.9117160  31.8261862  48.7085724   1.7060629
  32.0119691  48.0109930   2.3346306  31.7746568  48.2620192   0.8609781
  26.3064494   2.7891001  27.9459834  27.0963828   2.2508225  27.9959583
  26.6318632   3.6878475  27.8951168  72.2987401  28.1867303  52.1645091
  71.4390992  27.7934827  52.0141564  72.8972124  27.4415196  52.2166668
  23.7876201  16.7737067  11.5299368  24.2124867  16.4649034  10.7297111
  24.4376063  17.3429823  11.9418514  65.2238480  11.5382370   9.9281526
  65.8660213  12.2476467   9.9525630  65.6679884  10.8290085   9.4634402
  14.9237335  56.2346554  26.6670156  14.8908055  56.9304419  26.0104871
  15.8568895  56.0502148  26.7739463  22.6459503  63.3627367  17.0714176
  22.6161218  62.4188232  17.2275329  22.7082253  63.7481976  17.9453588
  60.4756831  25.0871552  39.7307299  59.8207223  25.0740375  40.4286431
  61.2594288  25.4487313  40.1445363  26.1390901  29.8793721  17.9737580
  25.7546711  30.7207656  17.7277684  26.9467402  30.1100969  18.4327769
  44.8998690  19.4619977   3.6191204  45.6390619  19.7567856   3.0872095
  44.1450548  19.5200694   3.0333599   4.4257668  69.3016481  23.1057906
   4.6723866  69.4299078  24.0217376   5.2084893  68.9329290  22.6963735
  49.3273560   5.3694138  23.1971359  48.5501877   4.8816618  22.9244828
  49.2241017   5.4753288  24.1428375  23.9281535  47.3002863  19.5148146
  23.2402849  47.1111298  20.1530027  24.4920111  47.9381227  19.9523807
  24.8854613  43.0204391   7.1641690  24.6827626  42.2092295   6.6982490
  24.4864011  42.9072952   8.0268300  20.8065558   3.0118689   9.3289477
  21.7205907   2.8817829   9.0762568  20.4635335   2.1266350   9.4511509
  53.3478594  65.4492617  15.6434226  53.9102840  65.9481907  15.0509858
  53.6471367  65.6926203  16.5194619  34.6103986  27.5691737  57.9173510
  35.2002748  27.3828162  57.1869103  34.1274961  26.7533292  58.0493913
  28.0782485  50.6360102  29.0663505  28.4508514  51.2814713  28.4657001
  27.8078890  49.9116993  28.5019803  61.6052532  44.5205593  23.9557648
  62.5353193  44.3977833  23.7656713  61.5027523  45.4677248  24.0485358
  14.6916994  39.3982972  51.1509393  14.9784359  40.1169385  50.5874060
  14.5637401  39.8030795  52.0088504  32.1825452  71.8608599  56.3357310
  32.4781759  72.0122127  57.2334651  31.7120261  72.6605492  56.1004774
  18.3945892   8.1783661  30.8976769  18.7691609   7.4987968  30.3372121
  18.8101295   8.0424866  31.7492032  70.2767754  59.6900654   2.6806530
  69.4238949  59.4926357   2.2935511  70.8207655  58.9340258   2.4599488
  53.3713023  11.8599972  20.1285601  53.6149923  12.6968845  20.5241323
  54.1948930  11.5037045  19.7954202  70.8791304  57.6335001  20.1854897
  70.8856297  56.7491341  19.8193085  71.7691326  57.7637339  20.5128527
  33.1831694  60.8334398   1.1945041  32.4978542  60.3346777   1.6392687
  32.8012896  61.0621500   0.3471012   1.9568047  48.2320690  31.9747114
   2.4417585  48.1861877  31.1507297   2.4071202  48.9086962  32.4803042
  78.0020506  56.7161655  14.4001067  77.6262649  56.0208225  14.9400258
  78.9051150  56.7962599  14.7071743  47.1179231  62.9500990  54.1848759
  48.0090387  63.2326989  53.9792453  46.7432030  63.6796002  54.6784781
  11.1608704  18.7925090  63.6974168  11.2317403  19.6993293  63.9955535
  10.2860602  18.7343492  63.3132851  32.0435858   4.1115403  17.3733544
  31.7161727   3.2150763  17.4467349  32.4730253   4.2791042  18.2122457
  78.0775284   7.5794829  60.7088099  78.5748386   6.8068208  60.4406459
  78.7260651   8.1508864  61.1200605   5.2903876  45.1740313  24.6490502
   4.9685320  46.0718918  24.7295856   6.2227377  45.2703238  24.4549227
  30.7524991  54.1264391  21.5777731  30.7182312  54.7029305  20.8144140
  31.5964079  53.6808348  21.5037036  50.3386997  44.1942252  53.2263539
  49.5526400  44.0746535  53.7593125  51.0393687  43.7914218  53.7392328
   9.5165309  34.6630420  61.7643143   8.7042221  34.2625989  62.0742044
  10.1574620  33.9524402  61.7863148   5.8277941  64.4612312   7.1345431
   6.0882169  63.5592842   7.3213762   4.9104843  64.3955708   6.8690932
  24.5922875  54.9332952  25.1616812  24.2283440  54.0603876  25.0139880
  25.3320217  54.9898529  24.5568466   9.1856533  69.3980265  45.8374739
   8.6406600  69.2933178  46.6173792   8.5601550  69.4964170  45.1196289
  29.0424395  69.8090839  30.0773811  29.9736524  69.7822571  29.8574781
  28.5986662  69.8790979  29.2321610  34.9043640   0.7343925  57.6512055
  35.2825912   0.6400980  58.5254393  34.8216852   1.6798557  57.5267116
  57.9216528  46.4930820   5.8345139  57.7707338  47.4264765   5.6854248
  58.4216309  46.4585590   6.6500270  19.4922876  42.6551342  21.5895581
  20.1226497  43.3084202  21.8930316  19.1023302  42.3078203  22.3917651
  49.9391699  46.8737507   7.3950708  49.8897696  47.5284719   6.6985559
  50.8627129  46.6237974   7.4237627  67.3515320  54.8321533  17.0038223
  68.1542492  54.5957851  17.4685848  66.8483353  55.3418350  17.6388466
  26.6034508  18.2498288   9.3370813  26.7368627  19.0509522   8.8304901
  26.9577765  18.4521854  10.2029550  40.9527285  59.1328959  63.0786896
  40.2900811  59.7884850  63.2962551  40.6144090  58.7016563  62.2939580
   7.3619779  20.0536002  62.6380151   7.2169932  20.2000226  63.5727724
   7.7477249  19.1789044  62.5895995  64.1785145  53.8521290  25.0386095
  64.8431873  54.3227100  25.5416012  63.7646627  54.5259762  24.4992661
  37.9573274  68.9331150  13.6883700  38.3783603  68.3560514  14.3255210
  37.0306540  68.6963511  13.7264645  32.4717426  45.4518223  13.3321989
  32.5538111  45.0628138  12.4614716  32.5977421  46.3897276  13.1883514
  29.1606879  51.9474125   3.6246288  28.9316344  51.4330244   4.3986896
  29.8829031  51.4653540   3.2218176  39.7147679  66.0915661  25.9467196
  40.3689909  65.7703018  26.5672183  40.0508928  66.9417238  25.6630230
  29.7557235  53.9821386   0.0029889  29.3445301  53.1645203  -0.2774608
  30.5536556  53.7064934   0.4541591  20.4721769  35.8575238  38.6532615
  20.7476028  34.9750365  38.9014242  21.2831625  36.3657130  38.6365078
  75.4839801  30.7463635  47.1309446  74.6695279  31.1946000  46.9029520
  75.4683923  29.9424304  46.6116415  39.8745251  64.4993305   9.4730759
  40.4871750  64.4869471   8.7377274  39.0097499  64.5298195   9.0638518
  54.7657672   2.1083483  19.6965158  55.5467550   2.3509344  20.1939511
  55.0682393   1.4318213  19.0906644  16.9119342  13.6156930  47.7762209
  16.1655315  13.6522950  48.3743666  17.0862421  14.5303906  47.5544701
   8.6701548  17.7262175   9.6870917   8.5499775  18.2119668  10.5030799
   9.6081722  17.5380528   9.6562934  73.7722310  27.5872064  18.4430528
  73.0310837  28.0505180  18.0528283  73.5031089  27.4231029  19.3468642
  17.4569225  61.2061691  18.9081562  16.5365314  61.4216232  18.7575209
  17.4337542  60.4733849  19.5235634  19.1535449  44.4008160  26.3508821
  18.9641857  43.5183764  26.0320258  20.0309300  44.3360710  26.7280245
  18.3074506  29.9404611  55.7498841  19.2352804  30.0457610  55.5394666
  18.2767757  29.9452628  56.7065803  29.4262648  13.4012794   9.2919499
  28.7830329  14.0014112   8.9146864  28.9294958  12.6049495   9.4798654
  45.0541449  60.6926394  19.8039496  45.1238346  60.2616453  20.6557822
  44.2414808  61.1957502  19.8558533  47.4750706  10.6035460  62.9658803
  47.0092808  11.0173024  63.6925689  47.8291284  11.3353957  62.4606390
  26.4134868   9.5293988  61.2833594  26.0635980   8.9976634  60.5684711
  26.3308033  10.4313315  60.9736581  35.9872993   3.8354958  35.5242894
  36.0898956   3.4697284  36.4028810  35.8313926   3.0746402  34.9648045
   3.8730299  30.0089622  28.8991785   2.9423586  30.1670241  29.0576029
   4.2761740  30.8752632  28.9560103  24.5927024  52.8346491  18.3347547
  25.3520203  52.9119825  18.9124107  23.8465953  52.7557755  18.9291751
  19.8697162  68.5611725   6.7990226  19.8597050  68.7074471   5.8531177
  19.5859611  69.3951893   7.1733689  63.4833574  69.8503828  19.6462917
  64.1999722  69.3012857  19.3281817  63.2365942  69.4601011  20.4847574
   6.4365252  40.1886834  42.6832507   5.6822594  40.0149526  43.2463978
   6.5462693  41.1389960  42.7163051  72.6891581   1.8345436   2.4896394
  72.8746287   0.9188446   2.6978061  73.4882609   2.3020395   2.7327776
  15.9739002  12.5904788  44.1071532  16.7544206  12.3920859  43.5897921
  16.0504087  12.0311870  44.8801814  55.3132582  30.2608490  12.8682995
  55.1158476  29.7480345  12.0845389  54.4601250  30.5687261  13.1742537
  33.0701876  39.2438722  12.0697081  33.4286833  38.7430358  11.3369906
  32.1424508  39.0090179  12.0892155  32.2575450  42.4809265   6.0308230
  32.3991895  41.7271090   6.6034758  31.3309216  42.6943445   6.1406070
  26.7816305  67.3878622  14.4906783  27.0183039  68.1758976  14.0015793
  27.4810743  66.7647362  14.2938960  34.5883679  49.7020245  19.7252572
  34.5105839  49.2673874  18.8759792  34.0788341  50.5067205  19.6300483
  53.2191261   1.2104238  55.9899918  52.9820474   0.5148210  56.6033123
  53.3042797   0.7668723  55.1460473   0.8361976  29.4418454  28.0194092
   0.6878565  30.2016616  28.5823536   1.2477678  29.8023677  27.2340035
  46.4482927  57.3943949  61.9129992  45.6870222  57.3081446  62.4868107
  46.8507957  58.2233191  62.1720505  24.7917493  24.1151751  40.7166360
  24.2639764  23.6616124  40.0593947  24.1514238  24.5524253  41.2779043
  53.1616084   3.2351383  11.9939458  53.5421173   2.6929220  11.3029730
  52.2958223   3.4730896  11.6622424  32.1789479  51.3288450  22.6563263
  32.4765468  51.8371582  21.9018149  32.3830175  50.4215908  22.4294567
   0.9290417  37.5592317  57.3153178   1.6281613  37.5175322  56.6628413
   1.3637980  37.8599585  58.1133042  45.1185695  12.5830540  27.0370889
  45.6794278  11.8480667  26.7891836  45.5414621  13.3487782  26.6484118
  45.4284143  62.7320623  28.5159421  46.0579681  63.3084536  28.9491415
  45.8020782  62.5783491  27.6481986  54.7901487  54.7626066  16.8798029
  55.3767014  54.1798878  16.3974869  55.2804232  55.5804682  16.9632590
  18.5187419  51.9094409  60.1855011  18.6424526  51.6625728  61.1020089
  18.7237009  51.1143340  59.6935291  65.7389533  12.3125543  57.0400034
  66.4289033  12.2091187  57.6953678  64.9440109  12.4645747  57.5510691
  44.9697161  66.5172100  15.0338924  44.5887136  66.4621401  15.9102690
  44.6236086  65.7525301  14.5737720   3.4106032  73.5897498  61.1651607
   2.7245776  73.6173396  61.8321264   3.5676353  72.6565056  61.0215483
  73.7884521  35.6305385  12.2352493  73.5078096  36.5266418  12.4209166
  73.6541319  35.1619458  13.0590272  15.8643325  16.4880742  48.8795267
  16.6279062  16.7970075  49.3671237  15.5335649  15.7516946  49.3938850
  60.7146739  15.5960120  52.8738402  60.3358089  14.7242106  52.9863380
  61.3307380  15.6850900  53.6010001  60.2773824  62.7793121  19.7985661
  60.1487067  61.9090843  20.1758957  59.6875814  62.8032446  19.0450454
  28.6873651  73.0412102   2.2714484  29.3467402  73.3772182   2.8785345
  29.1931653  72.6040745   1.5863845   4.4967063  22.8481091  53.5234271
   5.1999792  23.4102763  53.1984590   3.7644275  23.0130185  52.9294537
  46.3999987  23.7518692   1.3858160  46.2085724  22.8165436   1.4547691
  47.3456001  23.7929225   1.2430469  52.1435308  49.4703388  24.8407984
  51.3563824  49.9784184  25.0369596  52.8663397  50.0273705  25.1297617
  58.0621997   3.0598339  24.8056483  58.3118836   3.4833273  25.6269526
  58.7762276   2.4485907  24.6246123  32.6554918  53.5729265  16.3665450
  32.9222941  53.6683941  15.4522502  31.8183517  53.1106758  16.3247430
  18.2786592  10.8148850  62.2038698  18.5201772  11.3218345  61.4286913
  17.3228677  10.8592929  62.2308749  76.9222180   4.4476065  22.8207421
  76.3177124   4.3106922  23.5501671  76.7026917   3.7573704  22.1949506
  77.7621285  24.1124710  17.3281360  78.6277787  24.3882832  17.0267916
  77.7018992  24.4476589  18.2227051  78.2927727   7.4426307  55.8299838
  78.6197876   8.2208289  56.2813215  77.8395414   6.9441356  56.5099202
  77.5633787  48.6312903  63.3238059  77.2077631  48.7952556  64.1972376
  77.6883101  49.5029582  62.9485497  30.5872703  61.8760538  15.2809310
  31.0212231  61.3414001  15.9458065  30.9781909  61.5938425  14.4540274
  31.8617344  23.3941126   3.0891201  32.6339126  23.0110550   2.6728982
  31.2908077  23.6345887   2.3594314  25.5221677  44.7766256   9.7938442
  24.6963072  44.3948460   9.4964665  25.9304523  44.0866232  10.3167522
   2.2436175  69.9180222  53.0155230   2.9186949  69.2463827  53.1125259
   2.6555762  70.7198954  53.3372784  46.4746809  40.7446957   3.7517959
  46.1354923  40.5841064   4.6323597  46.8881464  39.9189067   3.5001034
  68.6237303   9.6851620  23.0252171  67.6959769   9.9159988  22.9781389
  68.9457146  10.1442799  23.8009548  77.8287506  71.8370724  37.9534674
  78.4681797  71.7954206  37.2423935  77.1614838  71.1941004  37.7135134
  44.8831550   5.3744730   1.9435762  45.4260985   6.0611424   1.5563624
  45.0032155   4.6202644   1.3665256  13.8533927  31.6023716   1.8017605
  13.6029769  30.7460007   1.4551431  13.1106234  31.8677887   2.3440503
  41.5111923  62.2486734  29.3593001  41.7607784  62.3161936  28.4376836
  41.1862087  63.1205463  29.5839262  34.4800886  68.5516480  13.8751447
  34.8684438  68.1618402  13.0919075  34.6861681  69.4838462  13.8060939
  64.9829102  72.9412508  22.7612138  65.8007240  73.0857897  22.2852731
  65.0808048  72.0705986  23.1467199  54.8100281  70.6724119  13.2236850
  55.4626989  71.3667488  13.3139443  54.9330854  70.3422451  12.3336959
   5.8439351  35.2178654  62.5364637   4.9960566  35.5732044  62.8030539
   6.4163876  35.3753170  63.2872915  53.9943735   4.4539055  26.0277987
  54.8431126   4.7211870  26.3805580  54.1874258   3.6783489  25.5010414
  66.8321848  71.8277884  16.4504707  67.1900225  71.1469460  17.0202446
  66.5576410  71.3601303  15.6617045  35.7888532  72.1285343  31.8222189
  36.5669632  72.1530008  32.3791552  36.0282183  72.6461029  31.0534167
  49.7984266  66.3657093  26.4703465  48.9380169  66.7528868  26.6316581
  50.0161982  66.6299438  25.5764866  27.6073345  22.2171105  57.1940098
  28.0070194  21.3714875  57.3975055  26.7878040  22.2198857  57.6885728
  77.3674154  29.7841872  52.1141933  77.0154261  29.4497956  51.2892578
  77.4350690  29.0122642  52.6761435  57.4541896  41.7656220  37.2701405
  56.7001989  41.8864383  36.6929649  57.4749415  40.8244313  37.4432276
  24.2689443  40.5820704  17.5608253  24.4985986  41.4858866  17.3449337
  24.1842341  40.5776787  18.5142601  22.1980747  50.9774436  59.8482604
  22.0761283  51.5236892  59.0717478  21.3140567  50.6969203  60.0849996
  24.8074460  68.1412458   3.0444989  24.9765587  69.0773821   3.1506884
  24.3798733  67.8810358   3.8604057  35.7593608  64.5681620  15.7646346
  36.0424924  64.1405869  16.5728736  35.9788346  63.9433050  15.0735366
  10.7352019  20.2554878  14.3458986  10.9672070  19.7037872  13.5988867
  10.1539851  20.9221729  13.9799106  41.4472342  57.2711325  51.0814285
  41.1059284  57.9781580  50.5338383  40.9195280  57.3099089  51.8790865
  47.4100669  16.0276545  62.0232627  46.7625459  15.7007493  62.6478244
  47.1627124  16.9408168  61.8777078  20.5989917  49.3317069  51.8982063
  21.0504039  49.1796531  52.7284716  20.4007181  50.2681388  51.9013737
   6.6991600  34.2865504  49.8774229   6.2114581  34.1964330  49.0587304
   7.5372108  33.8572062  49.7054814  62.8181553  65.2462339  48.1142950
  62.1710825  65.6893301  48.6631107  62.4199724  64.4000292  47.9102802
  45.7497052  18.5127720  41.6795778  45.0684515  17.9271301  41.3492060
  46.0438327  18.1031403  42.4931622  75.0999228   4.3512568  25.3218079
  74.4057814   4.9842867  25.5053115  75.8127800   4.6002373  25.9100866
  43.1897831  53.7349081  10.3783834  43.7397003  54.2342472  10.9821093
  43.7415171  53.0035686  10.1009667  13.7041295  61.4576006  28.3973694
  13.8322902  60.5472803  28.6640525  12.7550626  61.5809011  28.4146810
  14.3396886  32.5445546  61.2940202  14.6653446  31.9699611  60.6011848
  14.5627626  33.4270419  60.9978954  50.8140913   9.2262253   8.3705664
  50.6262294   9.0188965   9.2859638  51.4310495   8.5489258   8.0933255
  39.6194553  60.3921700  27.2406769  38.8988090  60.3693819  26.6110897
  40.2218962  61.0489511  26.8914819  77.9518715   7.1133026   6.9839698
  78.3939139   7.3766693   7.7911091  77.5912873   7.9270920   6.6318798
  48.7410132   3.3977827   1.8132615  48.7331335   3.5616383   2.7563000
  49.6410600   3.1327948   1.6237149  51.4873139  20.2026161   3.8420799
  51.1426679  19.9824795   2.9766372  52.2509233  20.7514080   3.6633018
  72.6583973  14.5582089  20.5037761  71.9798581  14.1402992  19.9735236
  72.5039736  15.4965004  20.3942537  24.2954230  45.3651667  17.7062881
  24.1855550  46.1012316  18.3082616  23.7767220  45.6044292  16.9382155
  40.2733517  54.6792507  19.0926826  40.3826714  55.1262426  19.9320161
  40.4122591  55.3629541  18.4373331  68.2163811  68.9803171   1.5076801
  68.1908417  69.0134335   2.4639660  67.3804522  68.5856581   1.2592812
  54.3725824  61.8287659  25.8383965  54.2051315  61.7777205  26.7794538
  55.1256227  61.2548685  25.6976438  73.4754371  30.7613410  60.2532537
  74.1693758  30.1989831  60.5973957  72.7612209  30.1594819  60.0437508
  69.4823933  55.6987190  57.3820162  68.5465050  55.5417871  57.2566605
  69.9020386  54.8888826  57.0916843  62.7763120   2.4214920  28.7538552
  63.2983986   2.6835951  29.5121169  62.2636167   1.6745075  29.0627170
   3.9187003  73.3589397   6.0189821   4.3947364  74.1206323   5.6881573
   3.6258651  73.6201654   6.8920471  58.7001371  62.2857141   1.6674750
  58.3345461  61.9536638   2.4874234  58.9842224  61.5019417   1.1971323
  51.3440371  66.8283367  41.4989519  51.8634462  67.1864080  40.7790661
  51.2452793  65.9006596  41.2847376  59.7153378  45.7387304   7.7705145
  59.9793863  46.0875416   8.6218894  60.5205584  45.7351065   7.2529823
  77.0530733  37.0811643  52.9001663  76.3935121  37.3704232  53.5306762
  77.7330812  36.6722239  53.4355055   0.4720164  14.8426041  13.3777118
   0.2946473  14.8605618  14.3181634  -0.3551196  14.5661053  12.9832149
  11.4191469  57.6863861  28.9692402  10.7761607  57.5929070  29.6721363
  12.1424231  58.1694508  29.3689394   1.1516698  57.7728213  57.3304365
   0.2119335  57.8641356  57.4878774   1.5630158  58.2160129  58.0724625
  31.5841389  60.5967188  11.0696316  30.6813264  60.6718779  11.3786840
  32.1153164  60.6644201  11.8630409  35.3567719  47.5694132  28.0325556
  36.1418962  48.0085468  27.7054906  35.0800109  48.0990648  28.7802887
  17.1087202  45.4582538  61.3356127  17.3088296  45.9031428  60.5120487
  16.3242754  44.9437465  61.1454473  55.7242203  55.2872801  58.6122131
  55.6711197  55.7951832  59.4218063  56.1910629  54.4893074  58.8602638
  24.9253821  50.2935886  25.3135419  24.4253063  50.8344030  24.7022510
  25.7511044  50.7637644  25.4290628  62.3769561   5.8754524  33.2195139
  61.4970008   5.5126795  33.3210230  62.9538671   5.1117596  33.2327676
  20.3260645  60.9848404  46.6647291  19.8027739  60.7302570  47.4247217
  21.2226424  60.7466364  46.9006157  70.4402081  25.3644928   0.5724179
  69.4984881  25.5311283   0.6127335  70.5215279  24.4186386   0.6948742
  73.7087838  30.3358826  14.8186839  72.8602044  30.7624134  14.6994448
  73.5475699  29.4173512  14.6029460  16.5042814   9.0449275  43.2540820
  16.2489494   8.2537021  42.7797387  16.0413726   8.9831485  44.0896247
  73.9890448  17.6573166   3.0666703  73.4683863  17.3998436   3.8274980
  73.4030549  17.5287041   2.3208091  60.8344698  54.9267769  43.7192774
  60.7036543  54.0521717  43.3529663  61.7667294  55.1027250  43.5921192
  43.6465804   7.4273857  14.0431702  43.9085118   8.0479893  13.3631122
  42.7062503   7.5713142  14.1494548  11.3504887   9.6635994   5.6486320
  11.7565966   9.0499672   6.2608165  11.2853099   9.1752991   4.8279291
  10.4856015   2.9172119   5.6931233  11.4272166   2.9125103   5.5211633
  10.2309657   1.9951996   5.6572217   8.4540900  46.4948691  54.8589544
   9.1341384  45.8354033  54.7215591   8.3844789  46.5724887  55.8104591
  70.7303921   3.2892927  38.1718969  70.3685681   3.9301237  38.7839818
  70.1658932   3.3489594  37.4011755  42.9383881  67.0631318  55.0033049
  42.7681644  67.5328188  54.1868184  42.1108718  67.1078067  55.4823164
  22.6758417  64.8045349  19.5069146  22.3921809  63.9856625  19.9133885
  22.0402369  65.4539776  19.8076904  34.7753549  60.2383900  24.3333888
  34.4762754  61.1471081  24.3015599  35.0385761  60.0412464  23.4344554
   4.6589240  30.8999671  55.2816431   4.1098770  31.4798011  54.7538464
   5.5534085  31.1012782  55.0066815   5.6701884  28.2343650  38.9778376
   5.8253512  28.5931063  39.8516011   5.9885916  27.3331213  39.0289378
  43.7390471  66.2684631   3.2768571  42.7976847  66.2861776   3.1043521
  44.0248108  65.4121733   2.9585198  51.3004247  17.6200279  21.5484071
  52.1839754  17.9586968  21.4039373  51.3550106  17.1573624  22.3845840
  58.4948206  73.1968641   1.5635417  59.1813755  73.1789446   2.2302923
  57.6775980  73.1533718   2.0600179   3.8561631  30.0530418   3.9073223
   4.6701003  29.7618946   3.4962621   4.1021157  30.8387836   4.3955293
  36.4145470  63.3356762  21.8567801  36.1301589  64.2252541  22.0665550
  37.0359230  63.4463024  21.1371374  62.9045407   0.9992060  32.6953506
  61.9710962   1.1956009  32.7749705  62.9581801   0.0482544  32.7904320
  64.6684114   6.2099442  44.0728426  64.8032681   5.5677351  44.7697020
  65.0598494   5.8077511  43.2974434  29.3213058  54.0583611  15.4588544
  29.0139389  53.5916090  14.6817458  29.6106863  54.9088907  15.1285625
  26.1934042  72.4111795  24.4274211  26.4670491  73.3108997  24.6059012
  25.4752803  72.2532082  25.0402641  69.2745749   8.5651573  27.0299768
  68.4487978   9.0463814  27.0824409  69.8215882   9.0910229  26.4464831
  39.8112726  69.7067976  45.2130127  39.8891759  69.1573954  45.9929609
  40.6942177  70.0482368  45.0713921  60.9404723  14.7855457  23.8626432
  61.6982285  14.3691525  23.4519672  60.7848350  14.2714771  24.6549487
  39.3340087  58.2473898  11.8807888  40.1099777  57.7557373  12.1498239
  38.8759542  57.6611710  11.2784874  47.0132875  70.0787878  26.0890818
  46.8117809  69.8509550  25.1814914  46.7610550  70.9988880  26.1667156
  17.8054225  24.8833990  20.0710464  17.4507940  25.7656479  19.9610043
  17.9085112  24.5536351  19.1783762  60.1798868  69.4795656   1.1937402
  60.7739639  68.9615107   0.6506695  59.8321772  70.1453590   0.6004049
  65.4449598  10.0091061  52.7253675  65.8827845  10.2313408  53.5470438
  64.5145980  10.1438889  52.9056358   5.2928576  47.8208303   8.7274045
   4.4989046  48.3064651   8.5037577   5.9413752  48.1142759   8.0874413
  38.1252027  66.4630651  10.8923781  38.4338284  67.0515728  10.2034366
  38.4698725  65.6046534  10.6462789  66.1290105  71.3346939  53.8637350
  65.7837065  71.8791680  54.5712255  66.4014943  70.5251341  54.2957036
  22.4573787  34.1458739  63.7835301  21.8154415  34.8262395  63.5804172
  22.9443010  34.4916476  64.5315809   3.3430132  66.2806702  12.0681596
   4.0239558  66.4541054  12.7181387   2.6175913  65.9135771  12.5733685
  36.3318968  69.6643734  22.7076173  35.6051421  70.2292967  22.9701447
  35.9106207  68.8844872  22.3463225  24.2857584  29.2691363  55.7574562
  25.2039560  29.5362939  55.7994960  24.2607387  28.4258307  56.2096087
  12.7545262   5.6090006  31.0714483  12.4682761   6.4838013  30.8087444
  13.1078196   5.2219852  30.2704263  47.7084295  13.2746395  46.8502617
  46.8487612  12.9810890  46.5485477  47.5776545  13.4893116  47.7738714
  26.7143512  55.8572435  23.9889550  27.0208120  56.5136862  24.6145701
  26.9412398  56.2186527  23.1321383  62.5571012  59.9588346   5.2959025
  62.4344635  60.7274055   5.8531147  61.6733217  59.6162462   5.1624846
  59.3536615  49.2260695  39.6291137  59.4325161  49.4210005  38.6952972
  60.1192045  48.6864805  39.8266339  49.3207836  69.2168140   3.9360556
  48.4457636  69.5828152   4.0649492  49.2395067  68.6717129   3.1534398
  24.9306060   0.2609953  44.1630173  24.5184994   0.2256283  45.0262356
  25.7824279   0.6681189  44.3207693  51.8700115  13.2219967   2.5049123
  51.4672104  14.0139755   2.1488851  51.6340152  13.2295021   3.4325337
  64.3344641  67.5762749  27.2333908  64.3610096  66.8635798  26.5949607
  63.6356640  68.1512976  26.9215250  30.1520586  54.0200853  24.1898251
  30.5342197  53.9804268  23.3131194  30.8552098  53.7300825  24.7709537
  36.2227988  51.4272118  16.8063223  35.3781891  51.1093140  16.4872468
  36.8654466  51.0327530  16.2167132  56.0164738  65.3100824  19.3186069
  55.7726860  66.0652494  19.8538864  56.7343903  64.8977327  19.7990131
   6.6742930  50.0679064  31.6221333   7.2945627  49.4241858  31.2799096
   7.1140036  50.9100246  31.5050101  72.6473045  64.0787601  10.8617771
  71.7253160  64.1165781  10.6073415  72.7460146  64.7770834  11.5089512
   7.6810533  48.4589148  14.1217041   8.0655783  49.2878628  13.8367081
   7.0986885  48.7001467  14.8420441  32.6229557   6.1928929  45.0693987
  32.2319730   5.7196511  44.3349550  32.0049366   6.0697497  45.7899020
   0.2668477   2.6755175   0.3189864   0.6346274   3.1961426   1.0330695
   0.5640126   3.1167158  -0.4767948  57.5147025  16.8718037   9.4322139
  57.6759640  16.9926247  10.3679645  57.7976839  17.6941189   9.0322733
  46.8120098  62.1565676  34.2951441  46.0755825  62.3838043  34.8628354
  46.9187546  61.2120390  34.4078469  11.3545597  69.9691582  19.2647433
  10.4645681  69.9478054  18.9130437  11.9172955  69.8483086  18.4999192
  72.0724026  16.9923576  19.6502054  71.3719288  17.4218735  19.1592062
  72.8736035  17.4207291  19.3488562  62.9851388  13.4816779  62.2260175
  63.6004006  12.9734696  61.6974266  62.5585472  14.0671338  61.6003214
  61.6614437  52.2414541  22.3146391  61.0421467  52.9628992  22.2040558
  61.7152071  51.8370962  21.4487076  14.7411633  31.6676029  23.2496595
  15.5896188  31.8199333  22.8335476  14.3680669  32.5421509  23.3600521
  19.6804750  70.8863258  37.1208143  20.3993630  71.4954424  36.9522619
  20.0977731  70.1331329  37.5388932  21.7099269  20.2907886  47.8865634
  21.4460643  19.3888797  47.7044557  22.4763759  20.4329194  47.3310528
  47.1013165  63.3957624  15.1452589  47.4052238  64.2338371  14.7966921
  47.3257303  62.7587271  14.4669867  77.3087891  36.5130277   2.4226858
  76.5323050  37.0014234   2.1492388  78.0421884  36.9972224   2.0433285
  46.5549088  33.7405205   9.8623204  46.1669779  34.4706011   9.3799055
  47.4392891  33.6603165   9.5050108  39.7031816  17.0805348  55.7604174
  39.6330961  16.3511027  56.3762496  40.1817926  17.7553309  56.2418817
  58.7989012  15.5685696  26.0441303  58.6368481  14.6263393  26.0907364
  57.9447690  15.9486183  25.8385730   3.7221321   1.4617313  63.4182100
   3.5340007   0.7087435  63.9784301   4.6778759   1.5022077  63.3843356
  35.6602303  18.6821922  47.4039841  36.4351670  18.1211170  47.3740578
  35.2062801  18.4210857  48.2052231  70.1600520  15.8178314  52.2843790
  69.8278014  15.3162464  53.0288601  70.9152190  16.2917503  52.6327467
   6.1350473  19.6191157  52.1659098   6.2770017  19.4613542  51.2325333
   6.3708933  18.7925567  52.5871120  76.8733136  13.4347805  61.7815256
  76.5428702  12.5398239  61.7034674  77.4192587  13.4207996  62.5676441
  66.4315795  27.9885329  61.9108601  67.3122393  27.6551761  61.7389792
  66.2255179  28.5261620  61.1461888  73.3456532   9.5055374  28.7046242
  74.0441052   8.9669117  29.0764737  73.4523741   9.4157967  27.7576351
  60.2279902  73.7412119  26.7998052  60.0822449  73.6875200  25.8552909
  59.3534088  73.8581181  27.1708465  72.0994965  15.5123695  24.9181128
  71.4174286  14.8453507  24.8399711  72.4175230  15.4256043  25.8167601
  67.1051947  30.9056171  28.0906248  67.6340262  31.7011436  28.1514525
  67.4571864  30.3314289  28.7708068  13.3712801  27.4083604  62.0267047
  13.9495262  26.7564715  61.6305898  13.5462078  27.3446835  62.9656283
  30.3225303  67.7236366   9.6131885  31.0700440  68.2500505   9.8966354
  30.6862807  66.8504429   9.4667560  71.3733912  51.5928984  39.8389482
  70.6628895  51.8698263  40.4175091  71.2518644  50.6480360  39.7457051
   6.0851050   7.0763954  16.9270504   6.7856694   7.3264488  17.5294685
   5.2854253   7.3991188  17.3424923  25.4626656   0.7116684  13.2434154
  26.0496283   0.4627642  13.9573884  25.0476123   1.5196785  13.5452139
   0.6808854  14.3687138  19.2102730   1.1085320  15.1358589  18.8296998
  -0.0251865  14.1600212  18.5986006  54.9907351  50.6192350  19.2497277
  54.0661621  50.8319712  19.3767858  55.4602957  51.3854885  19.5792699
  19.4385466  68.6057329  23.4611773  19.1196856  69.4953871  23.6130691
  18.9875826  68.3221817  22.6659060  37.9409146  63.1766748  19.5754611
  38.8503623  63.3001804  19.8472762  37.8991652  63.5579443  18.6984658
  50.3668022  47.7885294  17.7027380  50.7224894  48.1195879  18.5274303
  50.0144482  48.5637236  17.2655261  16.3560963   0.4292711  35.0786805
  16.6962195  -0.4653278  35.0630498  17.0555831   0.9444651  35.4805875
  67.7977498  45.3854744  60.1842807  67.6179726  45.0266598  59.3152793
  67.0891650  46.0107450  60.3365160  68.1398192   6.1017168  11.6130733
  67.9424349   6.1725080  10.6791258  68.3654323   6.9932932  11.8784463
  14.7863802  17.0951356  36.0575841  13.8934310  17.4280395  36.1472867
  14.7115167  16.1576499  36.2357567   3.6355432  19.3384923  44.8014448
   4.1675290  20.1319207  44.7406958   3.4853967  19.0805806  43.8919566
  22.1938848  28.6197376  24.0348601  21.4398193  29.0646696  24.4217110
  22.9339194  29.1980600  24.2195845  55.5084784  53.6581616  51.6438351
  55.8159168  54.3302481  52.2521220  54.5855553  53.8682311  51.5013014
  73.2618713  73.5424843  32.4216962  73.7971401  74.0345650  31.7991424
  72.3773646  73.8886125  32.3030472   2.8088777  45.4485201  44.3834673
   2.7063863  44.8044066  45.0840710   3.7132041  45.7510202  44.4666336
  26.7900348  59.8292780  10.7097340  26.5757298  59.7692585   9.7787648
  26.4420319  59.0218592  11.0881567  14.4828641  30.7270288  20.2459502
  14.1869700  30.0634527  20.8691216  14.8757195  30.2260709  19.5311511
  36.8416309  27.3944449   1.0992756  36.6710973  26.7028713   1.7387092
  37.7103949  27.7241421   1.3290176  45.6128454  19.5295811   6.5037668
  45.3002548  20.3445411   6.8966514  45.5033922  19.6603572   5.5618811
  49.8574257   9.1805553  16.9046450  50.2760410   9.8529559  17.4421144
  49.9154091   9.5179957  16.0107744   2.8044335  56.4018564  34.7498582
   2.2598045  56.2860291  35.5284451   3.1338803  57.2979002  34.8191546
   7.8688169  23.0476236   4.6079764   7.9459953  22.4866843   3.8362101
   8.0355662  22.4625397   5.3469646   3.2927140  60.8477560  20.6504369
   3.1120475  61.1606685  19.7640526   4.2405065  60.9392348  20.7481933
  52.0383985  44.7563093  48.7454186  51.4646585  44.6166198  49.4987724
  52.7816971  44.1730951  48.8990389  41.4871092  67.0250635  63.1299969
  42.3021360  67.4873977  63.3254719  40.8517225  67.7207308  62.9609956
  28.1697464  13.6304975  18.5599279  27.7034903  14.4148266  18.2706761
  27.5537968  13.1871688  19.1432786  10.4226788  24.9533833  42.3124169
  10.8876070  25.1928796  41.5107201   9.5073660  24.8739804  42.0438455
  16.9897497  18.5710895  12.4913633  16.2343550  19.1537821  12.5693429
  17.0120037  18.3304369  11.5651762  36.4382243  18.2650483   5.3233933
  35.6471848  17.7425003   5.4554355  36.9757605  18.0849481   6.0946590
  16.9721842  23.8061213   9.8535568  17.3934436  22.9826164  10.0997484
  16.1099207  23.5464263   9.5290715  45.3434086  72.7471352   8.9132577
  44.4029617  72.9221106   8.9475620  45.5053234  72.4847889   8.0070633
  26.2070354   1.4456810  55.2114819  26.9436344   0.9379806  54.8710523
  26.4921220   1.7281808  56.0804759  61.6682505  24.1225566  36.9285725
  62.5225293  24.3376912  37.3029493  61.1085259  23.9586867  37.6875756
  35.7980664  69.8555832  62.2210398  35.3317823  69.6992688  63.0422447
  35.1072575  69.9170022  61.5613107  30.3930283  13.8262260   0.3379869
  29.7663283  13.1440556   0.5790693  30.5883813  14.2737794   1.1612520
  24.3510008  67.7773476  18.2573533  23.7069798  68.1272030  18.8730395
  23.8290143  67.3143673  17.6020575  71.3856125  17.7779543  13.6093760
  71.1402464  18.2404661  12.8080595  71.1689663  16.8623614  13.4333491
  52.7003574  29.5730472   6.0910565  51.8712378  29.3582797   5.6636620
  53.2922554  29.7892976   5.3705549   3.6074750  37.5638756  52.8370343
   2.8204839  37.0305730  52.9486869   3.6015098  37.8088390  51.9117294
  74.3541797  59.5376663  36.9234393  75.1310904  59.0221481  37.1399711
  74.5947869  60.4375439  37.1438072  60.9365733  71.3415198  49.6184788
  60.4367240  72.1208124  49.8615597  60.8841999  70.7738810  50.3874229
  36.1078067  69.7214155  48.7187157  35.7748367  70.6188326  48.7166093
  36.5893145  69.6465354  49.5425938  57.7891301  58.4907474  63.8860528
  57.4028008  58.1364383  63.0851494  57.8206425  59.4360389  63.7389166
  59.5949443  71.5983109  53.3935557  59.7592314  72.5382309  53.4696482
  58.6498339  71.5305762  53.2578657  11.6118082  32.9319324  62.3957526
  12.5294312  32.7029885  62.2481507  11.3801297  32.4812068  63.2077901
  30.1260757  44.4735432  23.9023972  30.3154254  44.1752529  24.7920036
  30.8953953  44.2157936  23.3945155   3.7983378  10.5728759  60.8752908
   4.5617922  10.3953113  60.3258915   3.9605793  11.4443912  61.2363659
   8.5553569  28.6757827  30.0987124   7.6402295  28.4032035  30.0318241
   8.6591792  29.3363643  29.4138169  14.5289310   0.6402291  19.3379448
  14.9103960   1.4939345  19.5426510  14.6796163   0.1157750  20.1243780
  34.1414674   5.7933463  27.6201604  33.8802227   4.9147119  27.8958104
  34.0523513   5.7818021  26.6671870  43.3816290  36.1117315   2.6547968
  43.1023550  37.0264864   2.6930359  44.1355276  36.0666895   3.2428735
  53.2897656  18.2074536  49.4767569  53.9871760  17.8695382  50.0385974
  52.7165610  17.4554433  49.3279300  57.2441053  30.2482915  14.5424843
  56.4762640  30.3139424  13.9747357  57.1441031  30.9686446  15.1648355
  31.1782813  39.7786784   1.3565172  30.3421092  39.6179867   0.9192223
  31.3460207  40.7107592   1.2175348  12.9630407   2.1673478  57.7571307
  12.5310763   2.5011648  58.5433899  12.3584589   1.5101756  57.4124025
   2.3896618  28.5516620   5.6592065   2.9760313  29.0312696   5.0740737
   2.9272664  28.3510876   6.4253545  26.0877681  48.7443256   6.6068804
  25.4989600  48.8423586   5.8585989  25.5701971  48.2714128   7.2585744
  74.0565895  20.3017653  56.5059636  74.8756766  20.7001819  56.2116901
  74.2832660  19.8678531  57.3285024  17.8432640  11.3694037  42.6360272
  17.2926553  10.6099738  42.8266452  17.8351101  11.4375581  41.6812919
  10.5798738  46.7257200  50.0442253  10.3196256  46.7710971  50.9642480
   9.7734372  46.5059404  49.5777569  63.5862191  62.2788887  63.3433995
  63.2575019  62.9824381  63.9030361  64.4538982  62.5762134  63.0696098
   1.8881956  44.0245962   2.3007250   1.3798115  43.3303881   1.8813762
   1.7137231  43.9177608   3.2358065  27.8063560  73.3554888   6.0400313
  26.8748879  73.4317446   5.8331913  27.9154420  72.4474096   6.3223898
  61.5346749  41.8794386  57.8074036  61.6455682  42.5951897  58.4332107
  61.9083889  41.1161559  58.2478224  16.8889968  58.0603628  55.9452180
  17.0897166  58.7133818  55.2747623  17.6693408  58.0381112  56.4991127
  68.9657672  56.7042308  52.5696765  69.0631516  57.0191436  53.4683285
  69.3752034  55.8390253  52.5733839  70.4025586  66.1979394  53.6568974
  69.6214898  66.0125976  54.1782520  70.1089127  66.8318872  53.0025945
   6.0020345  25.0789070   3.8481206   5.4519027  25.3445888   4.5850059
   6.5578383  24.3847060   4.2022347  27.9893091  53.0024831  63.9373641
  28.8170050  52.5313883  64.0333903  28.1898534  53.8973765  64.2115532
  65.1164209  33.2272138  51.1545907  64.8713362  33.7868918  50.4177545
  65.0065493  33.7841405  51.9253002   7.6306087  10.7503009  28.5173321
   7.1485364  10.9732342  29.3136597   8.1075537  11.5497029  28.2943678
  76.7548958  19.4906509  17.8821397  77.6285245  19.6490824  17.5245035
  76.1683792  19.5829320  17.1313310  44.1430409  71.3674836  61.6772055
  44.9153228  71.8649750  61.9461176  44.4766970  70.7298427  61.0460801
  11.5168428  40.5182314   3.5291815  12.3694539  40.7824993   3.8747942
  11.7176414  39.8246408   2.9008156  40.2898169   6.0369748  28.9556623
  40.8352709   6.4876956  29.6003032  39.5665073   6.6414642  28.7893939
   0.2125519   7.9732895   9.4407886   0.9462727   7.3788184   9.5972806
  -0.3976570   7.7941215  10.1561737  19.0429723  10.3861487  15.6518447
  18.7104023  10.0637043  14.8141932  18.5597920  11.1981678  15.8047974
  38.1939340  41.5635967  16.5952277  37.4155879  41.0499001  16.3795316
  37.9217386  42.4732351  16.4739847  28.2225101  62.7347355  58.1399052
  28.0663268  62.1315222  58.8665227  27.6466386  62.4229484  57.4417709
  32.1372350   3.2928599  52.4765728  32.3462137   4.2207755  52.3691915
  32.6322635   2.8542294  51.7846296  49.6344931  55.9213321  57.2643558
  50.5773242  55.9595148  57.4251137  49.3000110  56.7519383  57.6026569
  67.2514327  68.9336662  38.6524676  67.3020537  69.7132997  38.0994390
  67.7438863  68.2674889  38.1729577  63.7463243  56.9910197  42.2762321
  62.9376562  57.2881417  41.8590902  63.9333709  57.6571398  42.9376910
  34.3129086  62.1725559  15.3931797  33.7075257  62.2948980  16.1244643
  34.0469837  62.8293562  14.7496510  25.7437801  45.5515528  23.7602305
  26.6566586  45.7441664  23.5462594  25.2523947  46.2896347  23.3996701
  69.9150764  58.0488602  10.5146623  69.4588291  58.3049873   9.7131205
  69.4097471  57.3092011  10.8519733  28.7063122  21.1724830  16.5934277
  28.7317276  20.4337549  17.2015953  27.8990889  21.6370010  16.8144357
  76.1845803   7.4636258  58.2064996  76.9507360   7.2333564  58.7320606
  75.4413366   7.1239652  58.7049518  14.4719060   9.4568719  40.5405806
  13.5507377   9.2044057  40.4778312  14.5133146  10.0221623  41.3119195
   4.8527685  28.5050035  32.1667910   4.0582454  28.9957619  31.9567370
   5.2115452  28.2543325  31.3155103  49.9603367   0.1361220  16.2094879
  49.0136242   0.2768936  16.1972940  50.3340292   1.0143126  16.1362207
  71.4023005   5.2278890  50.7339631  71.8066811   5.7784404  50.0634382
  72.1330415   4.9430694  51.2827132  68.1957602   6.9461049  60.2020465
  67.5508606   6.3464965  59.8268051  67.7459394   7.3467053  60.9459649
  50.8682156  18.2218289  13.7485266  50.9337473  17.2690570  13.8130617
  49.9279881  18.3944702  13.6995912  45.6673403  58.7221365  58.3918319
  45.2771349  58.1200032  59.0253989  46.2882693  58.1839352  57.9008959
  75.1212064  18.4170783  -0.1220990  74.1746456  18.3947659  -0.2626574
  75.2551180  19.1384435   0.4926621  56.3932212  26.1671178  59.6939359
  56.6893514  25.4461889  59.1382374  56.5562613  25.8637028  60.5870144
  33.9924097  21.2368464   5.3854024  34.2174768  21.5390944   4.5055035
  33.1331730  20.8270359   5.2854025  56.5592273  59.3715291  41.0530327
  57.1487553  58.6182051  41.0875343  56.4237101  59.6117883  41.9696258
  31.9292577   5.5172147  39.4257019  32.2787889   4.6699752  39.1495727
  31.5330442   5.8822240  38.6344908   4.5000297  33.9729238  13.7263346
   5.2251124  34.4745469  13.3536959   3.7168330  34.3507600  13.3262432
  10.8252780  59.7430568  59.7396330  11.4121883  59.5460110  59.0096067
  10.5467240  60.6458597  59.5860542  46.7806959  62.4906731  21.9833803
  46.3051319  62.1663332  22.7481484  47.1759653  63.3113527  22.2774506
  10.7883191  18.5063720  23.2981920  10.1111817  18.2139528  23.9082813
  10.3166020  19.0280092  22.6488781  24.1921425  28.4464478  12.6143515
  24.6604824  27.8984904  11.9845629  24.0953112  27.8921199  13.3886731
  43.9356709  35.2070737   5.6808013  44.3679047  34.7281218   6.3879168
  43.0913162  34.7686124   5.5757201  70.0181308  51.3399124  25.8545804
  69.6949503  51.7117739  26.6752505  70.7053855  51.9434643  25.5723786
  57.9176457  73.5556130  48.2486520  58.1391175  74.0588527  47.4651132
  58.5475715  73.8482766  48.9072679  71.9555619  20.2589774  63.5672760
  71.6022167  21.1484170  63.5506535  71.3593176  19.7750270  64.1386890
  71.2186205   9.9315442  57.5218419  71.8344306   9.2676391  57.8320704
  71.7657828  10.5719079  57.0671133  62.3282082  36.7775681  53.1999038
  62.5194819  37.4480893  53.8556836  63.0937870  36.7791892  52.6253460
  17.1203959  22.2269320  42.2099495  16.2656224  22.3057580  41.7864180
  17.2649908  21.2836075  42.2838640  36.3919783  39.5073295  15.8493578
  36.1694813  38.5777688  15.9007609  36.3133311  39.7213817  14.9197185
  72.4870896  33.8762320  49.4401322  72.9051542  33.4961738  50.2127956
  72.6583123  34.8152007  49.5126317  63.0814838  36.9330525   3.8762352
  62.5711966  37.7391791   3.7987879  63.8168287  37.0564675   3.2760105
  15.6584486   5.1584424  55.6885658  15.5127176   4.7218026  56.5278159
  14.8365911   5.0417174  55.2119551  44.0201791  60.5127935  44.0009068
  44.6346147  61.2187962  43.8002608  43.3853264  60.9100060  44.5970748
  28.3064111   9.0031375  33.0770658  29.0704425   9.5666923  33.1991099
  27.5617250   9.6044959  33.0836509   7.0761140   4.3972434  18.4717463
   6.3806614   4.7340096  19.0366982   7.2584232   5.1134433  17.8634308
   5.1944727  10.1796663   0.8995062   5.8646905   9.5037353   0.7987238
   4.4585118   9.7275883   1.3120815  66.9295628  55.9950321  61.2945066
  66.3909610  55.9921460  60.5032228  67.5880225  55.3180306  61.1385165
  11.8881480  69.4898419  56.4720534  12.1851556  68.7688713  57.0272295
  12.6509874  70.0629024  56.3951932  68.0088456  67.7866559  52.8306804
  68.3855565  68.4559326  52.2593747  67.3035987  67.3988013  52.3125754
  38.7647314  67.0657020  44.5992718  39.3148966  67.8486304  44.6232532
  38.2116325  67.1377139  45.3771721  62.9118347  41.8232155  14.9126816
  63.2289982  41.5024662  14.0684307  62.7959919  42.7645016  14.7831059
  25.3239989   7.9941046  26.9071865  25.5380034   8.6791945  27.5404978
  24.6101213   7.5046444  27.3158908  58.1979370  16.8738413  19.7743249
  58.9953232  16.5664196  20.2054858  57.7556705  16.0739148  19.4901597
  39.3231249  64.6629667   0.8514314  39.8151970  64.0700293   1.4193383
  38.6847305  65.0764370   1.4325774  45.5475266  67.7096968  61.4818619
  46.3813908  67.2748213  61.6601494  44.9984618  67.0264106  61.0973100
  54.8617125  43.1430626  17.2537518  55.1979780  42.3859978  17.7333510
  54.3546867  42.7653933  16.5350580  47.9477198  66.5790205  62.1931541
  48.1367405  65.6509595  62.0545596  47.6565965  66.6308026  63.1035371
  66.5566111  35.1709175  16.6551995  66.2550974  34.2943811  16.4164507
  67.5074577  35.1336169  16.5515745  78.3074856  23.4775639  36.5782785
  77.4394369  23.7029266  36.2437177  78.9145994  23.8458204  35.9363818
  27.6165819   6.1344683  24.5243955  27.3648787   5.2199829  24.3955779
  27.1084690   6.6168880  23.8722253  31.1735567  68.8440612  38.8725495
  31.1020835  68.6318359  39.8031855  32.0461019  68.5391638  38.6236835
  63.9569807  36.4525867  12.4556375  64.3762159  35.7421160  11.9701409
  63.6917305  37.0789552  11.7821860  55.2030993  35.4604244   5.3245586
  55.1706505  34.5954800   5.7332736  55.3867149  35.2827001   4.4020987
  20.0403611  70.2591400  43.1718658  19.7160403  69.3842225  42.9583929
  19.4595210  70.5666928  43.8677595  67.4650466   9.5113887  50.4897545
  66.7160260   9.6496381  51.0694860  67.9215872   8.7578286  50.8638523
  29.1374946   7.5227064   1.4003304  29.2664146   8.0298859   2.2018167
  29.1035151   6.6128004   1.6955391  72.8245115   7.7540149  58.6149619
  73.5469031   7.5979365  59.2232571  72.8126525   6.9790114  58.0533026
  37.2260983  65.6552963  42.7326153  37.4906607  66.3639955  43.3191155
  37.5650449  65.9143858  41.8757485  36.1931324  54.5884562  13.7264705
  36.2877774  55.2197933  13.0132449  36.5325785  55.0444460  14.4965887
  55.9190416  67.9032373  20.3668118  55.3894329  68.3145952  21.0498428
  56.7526865  67.7083349  20.7949305  57.7685976  56.7653036   1.5455855
  58.6538792  56.4724922   1.3293266  57.8995085  57.5255060   2.1123159
  23.2055172   3.3912171  60.8280535  23.3564218   3.3375777  61.7717600
  22.7120193   4.2028798  60.7101629   0.2485578  44.8755478  50.4328964
   0.6667964  45.7065927  50.6580065  -0.0547774  44.5254396  51.2705384
  25.0372171  23.1137371   7.4472421  24.5722795  23.0083275   8.2772738
  25.8579898  23.5447645   7.6855254   3.9761623  35.5246533  41.2117098
   3.1643017  35.0287618  41.3175700   3.8558277  36.3007821  41.7588614
  68.1521845  32.4975920   7.3616940  67.8411627  32.4648190   6.4570266
  68.3285856  33.4248328   7.5208747  46.2131262  32.6067305  12.3225784
  46.9436646  32.7078009  12.9327655  46.4139175  33.2094860  11.6066194
   8.6723725  55.5317252  52.7697824   8.3921449  54.8855667  52.1215676
   7.8626268  55.9616117  53.0449985  72.2208890  45.4828072   1.3410419
  71.4313176  45.5736828   0.8076093  71.9535825  44.9248600   2.0714331
  50.8086824  18.8414371   1.4406265  51.3805437  18.6422598   0.6993176
  50.0876570  18.2168615   1.3614936   4.4116720  22.1120633  32.2924398
   5.3310760  22.3532571  32.1795080   4.4393762  21.2563456  32.7204726
  54.5712145  72.3356514  60.7790412  53.7342389  72.0264463  61.1255903
  55.1536830  72.3515801  61.5384562  28.7736726  40.1145554   5.6049734
  27.9884911  39.9834275   5.0734389  29.3066740  39.3366051   5.4408658
  13.7708029  67.4671602  19.6684325  13.2610449  67.9331636  19.0056944
  13.9451155  66.6107273  19.2780864  49.8347981  57.0681076  41.3868926
  49.2075069  57.3852448  42.0366309  50.2567847  57.8604536  41.0547040
  16.1262687   4.1075934  30.6075309  16.7891630   4.7249307  30.2981733
  15.4302963   4.1551055  29.9520992  43.4423399  30.8001113   5.8398545
  43.5727882  30.0240493   6.3847762  42.4945545  30.9340048   5.8367115
  70.2109846   0.8351697  61.0462300  70.4909261   1.3615312  60.2973585
  70.9130128   0.1954426  61.1651547  -0.1443227  59.6488957  18.3487557
  -0.1585229  58.7740664  18.7369631   0.6221263  59.6440797  17.7753781
  41.1230453  23.0241717  37.4410747  41.5552076  23.1193723  36.5923093
  40.2562746  23.4095992  37.3130868  57.7651596  26.7168427   0.3714802
  57.1562195  26.4114213  -0.3009347  57.2648191  26.6712928   1.1862294
  65.7148933  22.9176521  18.7303448  65.8787155  22.8393602  17.7905250
  66.2375736  22.2188115  19.1236150  24.2216285   0.0875558  53.7587927
  24.8850568   0.4314603  54.3569742  23.5978683   0.8060469  53.6542569
  16.1116076  19.5923504  36.1236024  16.7997456  19.3846687  36.7557144
  15.6337834  18.7706074  36.0111070  36.7254758  58.1970358   7.7259845
  36.3647556  57.3174906   7.8378230  36.1345148  58.7631845   8.2224441
  68.8474480   4.5027813   2.4945305  69.1619126   4.2185530   3.3527598
  68.8330809   3.7035545   1.9679734  40.0778627  51.4820385   3.0760151
  39.6781731  51.2327671   2.2427419  39.8328376  50.7799292   3.6787084
  13.8139594   8.2028800  14.5557523  13.7772000   8.5949641  15.4281914
  14.7330487   7.9618061  14.4400370  66.3546181  30.3756666  10.0715876
  66.7275429  30.8547497  10.8116138  65.6779909  30.9578156   9.7258878
  45.8787966  45.0365162  11.4223731  45.9804440  45.9274673  11.7571962
  46.3563538  44.4901323  12.0465779  17.1550354  15.4279508  24.1937874
  17.5663932  15.5143632  23.3338164  17.7830680  14.9226703  24.7100185
   2.2026323  69.0151787  14.6619797   2.4230571  68.1566334  15.0232852
   1.3884747  68.8703156  14.1799080  45.9570054  10.8014378  13.0323780
  45.7486502  10.1077732  12.4065661  45.8803228  11.6108021  12.5271237
  51.4224386  29.7630453  11.9360936  50.6852818  29.2882180  11.5522075
  51.9749975  29.9921846  11.1888278  26.0184956  21.2532982  14.8611200
  26.9105530  21.1988720  14.5183444  25.7883311  22.1792110  14.7839558
  20.1201089  29.8595180  41.5490673  19.4232019  29.4276704  42.0430921
  19.8010047  30.7519378  41.4149545  59.3435526  59.6620417   0.9280381
  59.0529728  59.6518278   1.8400085  58.5462570  59.5092201   0.4208933
  60.6848240  36.9523096  11.5150988  60.9238958  37.8782320  11.5568900
  60.5598402  36.7790914  10.5820370  41.5576267  64.6304035   7.4049854
  42.1628284  64.1864538   7.9990155  42.1134806  65.2147961   6.8894804
   8.7207795   2.6008019  35.2181363   9.5639659   3.0524954  35.2533627
   8.7056113   2.0599731  36.0077596  69.0505051  12.0515384  48.6332594
  68.3509909  12.2094001  49.2672883  69.8422086  12.3720921  49.0653299
  25.0989532  54.4159079  -0.1128760  25.8640742  54.2034578   0.4216222
  24.3762398  54.4661999   0.5127326  41.3643761  73.8074880  61.1045669
  41.4395376  73.2432918  61.8741537  42.1466513  74.3583112  61.1340813
  60.0555325  26.5384316   4.9559873  59.3326235  26.5669084   5.5827445
  59.9401379  25.7076073   4.4948509  59.5204242  60.3106885  23.3355568
  58.7617810  59.9560194  23.7991331  60.2696069  59.8527841  23.7167118
  20.0042009  41.3915396  17.9140997  20.6897449  41.9253445  18.3157432
  19.7685874  40.7560635  18.5900307  61.4135170  51.3148546   5.1320714
  61.9998693  51.9922829   5.4689866  61.7990971  51.0594845   4.2940098
  55.8824544  19.2814292  46.1997686  56.7352738  19.7159757  46.2099097
  56.0496166  18.4170093  46.5753530  62.0675278  17.4834812  19.7892618
  61.7061281  16.8773758  20.4359913  62.9787540  17.2089374  19.6866751
  38.1213999  31.2574172   6.3509816  37.5295639  30.5344200   6.1430484
  37.5445843  32.0113564   6.4738303  52.0731433  71.8514805  62.3514838
  51.3107403  71.7213516  62.9154342  51.9338234  72.7115207  61.9550603
  38.8082489  11.1743440  40.2320622  39.2306694  11.6975869  39.5508812
  38.6461671  11.7935695  40.9437655  43.1482573  73.4094076  57.3760204
  42.3942430  73.3258896  57.9597328  42.8125055  73.8878565  56.6180043
   7.4537953   7.7906598  61.7961146   6.6143306   7.8371610  62.2536823
   8.0500873   7.3914708  62.4296130  31.5285325  28.9715314  32.9046726
  30.9968662  28.2653093  32.5375056  32.4261928  28.7484217  32.6583838
  72.7475293  67.0577149  43.8950680  73.6781152  67.2423129  43.7679432
  72.3086722  67.8811936  43.6817144  31.8012547  27.7358508   8.7305713
  31.3650131  26.9130301   8.5094488  32.1936822  27.5757766   9.5888305
  25.4778560  10.5659522  42.8065084  24.8020299   9.8881282  42.8132222
  25.3999504  10.9733142  41.9438265  28.1491356  59.6458940  56.8817232
  27.5264466  59.2701082  56.2594096  27.6524420  60.3262739  57.3362665
  61.8720400  17.4133576  62.0208078  61.7225914  18.0690707  61.3396795
  61.6894829  16.5770806  61.5923813  11.2711700   1.4308537  51.5326081
  11.2568363   1.0646476  52.4168692  10.5966457   0.9428300  51.0602949
   7.1384031  33.5753727   4.8508286   6.2205976  33.3130527   4.9219096
   7.4602187  33.5676432   5.7522756  13.1951587  73.0890422  18.5980223
  13.2739131  72.5102477  17.8397177  12.6247947  73.7977176  18.3002089
  10.3103995  64.2905807   2.8081679  10.1266432  64.6258879   1.9306529
   9.4519824  64.2352152   3.2280320  23.8547182  44.3270969   2.8919345
  24.4394541  43.9707327   2.2231147  24.3551898  44.2647505   3.7054905
  67.0170450  37.8085351  11.6676390  67.0079947  37.1004057  12.3116136
  66.2638903  38.3521700  11.8988383  49.4159572  72.6554232  56.1890368
  48.4718578  72.7506356  56.0631726  49.5107333  72.4004226  57.1067653
  31.9089303  10.5874619   2.3703153  32.1802513  11.1747917   3.0757678
  32.7287445  10.2382454   2.0207673  35.7756209   5.1590699  17.8179896
  35.2540946   5.9431523  17.6463628  36.1284781   5.2938932  18.6975050
  67.1128702  35.8170962  13.7314451  67.1016312  34.9185109  13.4018242
  66.2625885  35.9266996  14.1571724  15.1035627   4.1534604  60.2106212
  15.5623039   3.9462413  61.0247765  15.7872423   4.1416015  59.5407872
  32.6867390  55.6790066   9.0930462  33.5218596  56.0787535   8.8501376
  32.0930696  55.9119940   8.3792496  72.9418071  55.9277015  55.2632646
  72.9260571  55.1554875  54.6978704  73.8590129  56.2014251  55.2693532
  16.1017013  60.1083660  22.7693486  15.1927173  60.0309324  22.4795485
  16.6079366  59.6587706  22.0927238  65.3039583  21.2566318  55.0817822
  65.8955225  20.6655587  54.6160422  65.7858213  21.5052070  55.8706097
  58.3298254  52.3228884   1.2947756  57.9721308  52.7608442   2.0670962
  58.9796066  51.7132521   1.6445756  34.9919486  24.0603852   5.1030576
  34.4442034  23.8766146   4.3398848  34.3882656  24.4289970   5.7479793
  40.1033545  50.7763004   8.4799469  40.8411264  51.3856506   8.4552246
  40.3743744  50.0491905   7.9195076   4.2638414  61.8373542  58.3370827
   4.8105113  61.6106014  57.5847731   4.6328323  62.6584511  58.6624704
  58.6732626  67.3146439  16.2668240  58.2679653  68.1076145  15.9158802
  59.5913744  67.3783255  16.0036755  33.2734283  25.2963723  57.8787242
  33.4639820  24.5589532  58.4584997  32.6358160  24.9511756  57.2538064
  63.3809566  44.3105125  19.9477863  63.8502455  43.4873343  19.8122180
  62.5083303  44.0439034  20.2370524  38.6418056  52.6100397  15.2443504
  38.0659485  53.0649614  15.8588970  39.1959286  53.3001184  14.8796999
  11.5616059  46.1270523  18.0809331  12.0629561  46.6913033  17.4922907
  10.6466949  46.3208818  17.8769684  74.6516609  46.5120316   4.6204641
  74.2500687  46.8003559   3.8008150  74.6614647  47.2951269   5.1708293
  78.4820222  11.3940228  52.2662018  78.5780191  11.5825595  53.1997274
  78.0543184  10.5381717  52.2374473  36.9025254  71.9420624  20.1385093
  37.2094536  71.4798164  20.9184813  37.6171041  71.8493319  19.5084226
  61.1687422  38.0539942  17.1716893  61.0970545  38.3504081  16.2643671
  61.9130087  38.5414457  17.5248086  14.4860538  24.9374379  58.1498013
  14.8268875  25.5339564  57.4832950  13.5963639  24.7367991  57.8592406
  29.7832942  35.5946636   8.6337483  29.1451359  34.9400663   8.3500504
  29.2526507  36.3377357   8.9209628  19.1018137  15.7280768  60.8243043
  18.4704956  16.1634673  60.2514992  19.2551263  16.3544549  61.5316795
  17.3898375  13.2284772   0.9066915  16.8620765  13.8810802   0.4464648
  18.2904327  13.5385668   0.8117980  44.2483997  65.1272488  22.7827907
  44.2432690  66.0290146  22.4618173  44.9780369  64.7131348  22.3219514
   6.8788847   7.0058288  37.6677368   7.0195898   6.3984431  36.9414328
   7.2213133   6.5460195  38.4342550  68.3060248  68.8704138  63.9486483
  68.4424813  68.9138203  63.0022195  68.6328156  68.0060749  64.1983612
  14.1191900  30.4659486  13.4474707  13.9860487  30.4669738  12.4995756
  14.9250317  30.9661055  13.5766864  49.4884260  63.6763506  58.5248957
  49.7390921  62.9082041  59.0380721  48.6634047  63.4272818  58.1083189
  15.8744796  28.8061561  55.0506828  15.8111318  29.2227639  54.1912292
  16.7412027  29.0530957  55.3732471  34.7034264  12.7618039   1.2139983
  34.7948647  13.7142086   1.1857925  34.5521069  12.5086451   0.3033691
  53.5874891  39.5752263   7.5916886  52.7528954  39.7966146   8.0048144
  53.4827089  38.6656642   7.3124909  23.8167636  63.1886630  62.1963976
  24.5037667  63.6837916  62.6426093  23.0518930  63.2739978  62.7655378
  13.7842116  38.8835979  17.4492657  13.2391009  38.1255770  17.2383416
  14.6491560  38.6595893  17.1058762  53.4957123  42.4918175   2.6132351
  53.2164812  42.7876520   3.4796908  53.7619400  41.5818930   2.7451086
  50.8428271  54.4159751  52.8164993  51.1411460  53.7713103  53.4580956
  51.6000755  54.5562856  52.2480617  65.2064514  61.5962267  23.3283544
  64.5353603  62.1136332  22.8831983  65.2809525  60.7987833  22.8041792
  54.6000862  27.1460915   4.4614294  54.5407915  26.5492725   5.2074349
  53.6900949  27.3440599   4.2401624   4.5455321   7.5795831  60.6732799
   5.4359730   7.9045190  60.5399872   3.9998635   8.1452359  60.1269163
  33.7786420  15.3894986  62.4459205  33.0274948  15.2828635  61.8622769
  33.7281641  14.6410169  63.0404434   2.7188119  22.1822108  61.8505631
   3.4908088  21.7110623  61.5370790   2.8599294  23.0865182  61.5703010
   9.1099565  49.5912974  43.0368946   8.2847087  50.0038235  42.7819012
   9.2151706  48.8656740  42.4215625  15.5813468  14.2003441   9.2949879
  15.1960564  13.5016096   8.7662590  15.8249247  14.8743105   8.6604249
  32.6529050  49.8167372   5.7368410  33.4097934  49.2972279   5.4658085
  32.2934771  49.3430424   6.4869452  41.5621901  45.6473827  15.9292281
  41.3494110  46.2350988  16.6541743  41.9379663  44.8741627  16.3501275
   3.4695356  62.1170311  46.7977796   2.6055829  61.9024258  46.4459906
   3.6686294  62.9798155  46.4341925  59.2748085  10.9861931  14.3521118
  59.3696515  11.0777172  13.4040296  60.1126615  11.2839302  14.7064877
  45.8081007  44.2578220   0.9615242  45.4450130  44.6734428   0.1794408
  46.4642239  44.8779488   1.2796089  17.7107680  47.3059130  16.2518036
  17.0255578  46.6399717  16.3087308  18.1735611  47.2454357  17.0875049
  40.1085392   1.8877634   1.8242189  40.4602841   1.6091665   2.6697317
  39.3919269   1.2775263   1.6501182   8.5999808  31.6685891  12.8375125
   8.7487158  32.5789237  13.0932546   7.7473292  31.4503431  13.2137918
  21.6674741  29.7327460  60.8094792  21.4388927  30.3442420  60.1094402
  21.0710701  29.9537791  61.5247951  62.1701527  64.7589779  29.8088217
  62.6234293  65.2433395  30.4988670  61.8997383  65.4306412  29.1827464
  35.6407054  13.7313117  10.1865671  34.9669727  14.2425145  10.6348894
  36.4616283  14.1714515  10.4069946  26.4961179   4.8975600  52.3593686
  27.0273717   5.2414359  53.0775271  26.5324338   3.9472712  52.4682949
  28.7029791  65.8570194  21.3020849  28.1066251  66.5954781  21.1785054
  29.3226099  65.9253979  20.5757141  64.7790766  57.1859503  21.0775304
  65.3092051  57.9410505  21.3325286  64.2793512  56.9675255  21.8641663
  70.2981091  70.5365324   3.0732417  69.9857283  69.6747971   3.3490312
  69.5055723  71.0695076   3.0095997  39.5266528  62.8067737  52.8303681
  39.3721159  62.0442085  53.3879040  40.0125356  62.4614005  52.0814584
  24.7147799   5.7385868   2.7514312  24.3843436   4.8427436   2.6842809
  23.9461780   6.2892002   2.6020706  11.0641035  25.7085085  15.3805089
  10.7290491  26.3777709  15.9772134  11.5039572  25.0778484  15.9506249
  21.6232284  22.0719375  49.9752103  21.2234767  21.5428199  50.6654726
  21.5143045  21.5502490  49.1800950  63.5646105  52.6380157  30.8471107
  62.7577448  53.0790806  31.1129212  64.2330647  52.9850721  31.4378333
  61.1216307  41.9845295   0.2672864  60.9514952  42.8398275   0.6619495
  61.4530993  41.4496040   0.9885437  47.0446634  40.2567148  14.1525471
  46.4902353  39.4986033  14.3372250  47.0778799  40.3020620  13.1969988
  36.8232187  11.5157451  45.2322016  37.0046743  12.4550237  45.2648471
  36.7832216  11.3118686  44.2978213   5.9118335  43.8298629  57.8485368
   5.9927861  43.6260049  56.9168071   6.3026874  43.0776672  58.2931332
   6.7655253  42.7503347  11.2204599   6.0837173  43.3667040  10.9531450
   7.4203694  42.8007603  10.5241358  51.8366575  50.8098030  13.9820862
  51.4828396  51.4408588  14.6088362  51.0849476  50.5576658  13.4458101
  77.4434853  42.3284912  22.0621371  77.0406103  43.1026840  21.6690063
  77.9768276  41.9539165  21.3610911  49.1670752  31.1468673   7.3442107
  49.2474174  31.7314577   8.0978882  49.7168827  31.5473723   6.6707575
  18.0030632  45.3252888   6.7316252  18.2511973  45.2014160   7.6477677
  17.0460916  45.3053427   6.7378759  75.8266652  49.1303015  11.4779305
  76.6941524  48.9954185  11.0964811  75.3415528  49.6095991  10.8062375
  37.4766668  30.3241004  33.2738350  37.0142158  29.8563184  33.9692090
  37.2255643  31.2400235  33.3932923  32.2527965   9.7473897  55.5893259
  31.7297777   9.4732417  54.8359804  31.6074928   9.9884976  56.2539159
  65.1195335  61.1788845  19.6432102  65.4783773  60.3347397  19.3695569
  65.8873701  61.7370892  19.7659528  74.7061571  29.2249574  39.4597743
  74.3634447  30.1142777  39.3709253  73.9463934  28.6602296  39.3180631
  36.5822721  56.1830997  15.7888007  36.9388652  57.0688105  15.8565950
  37.0559049  55.6827068  16.4532614  52.6110029  45.7326794   7.4046665
  53.4310579  46.1751604   7.6236260  52.6934052  45.5220890   6.4745617
  75.7910426  45.4145377  52.4458228  74.8898061  45.6480633  52.6682327
  75.7057460  44.6661262  51.8551992  30.5338558   0.2046169  53.7783347
  31.4540466   0.2859081  54.0290807  30.1941856   1.0985173  53.8207458
  61.9271290  17.5739230  39.4490932  61.4465939  17.4425591  38.6317442
  61.9484048  18.5239161  39.5643924  59.2944622  54.3028831   4.7054270
  59.9626207  54.2689228   4.0208516  58.4956455  54.5647526   4.2476684
   8.6611558  13.5826859   3.8179204   8.0695439  14.3332085   3.8722405
   8.7043334  13.3788761   2.8836682  65.2272415  57.4608231  25.6612492
  64.3270206  57.6441383  25.9300113  65.7619905  57.7553129  26.3985062
   8.4743341  30.7856692  63.6873147   8.2816871  31.6015948  63.2253743
   8.6627801  30.1554765  62.9919181  41.7725468  18.5856426  13.7943387
  42.1293497  17.9862452  14.4498134  41.9625092  19.4581759  14.1390598
  44.1304250  72.4905758  41.0823415  43.3494563  72.6169281  41.6211866
  44.2227311  73.3111601  40.5982421  42.9323673  27.7458787  15.5577266
  42.3238707  27.0716548  15.8600271  43.4586716  27.3103023  14.8872721
   4.7645220  34.5656276   1.4214861   4.8731360  34.0072441   0.6516528
   3.9198622  34.3053055   1.7889407  70.8773279  39.5953083  17.9860711
  71.1583042  38.6945605  17.8250229  70.6866312  39.9459004  17.1160412
  36.1582661  71.6363096  45.1785374  35.6157279  72.3340464  44.8110485
  35.7217789  70.8274841  44.9111223  68.6377096  43.4033489  31.7768884
  69.4906616  43.4594679  31.3461280  68.6825037  42.5984144  32.2929382
  20.2658416  17.1249184  22.0990252  19.4365407  16.6747459  21.9383073
  20.7573796  17.0194992  21.2844634  60.1278305  54.9416161  24.4287372
  60.8530378  55.5442190  24.5935893  60.2428102  54.6720743  23.5174990
  49.1903719  53.1539287  57.1325116  49.2839321  54.1055335  57.1765356
  50.0892480  52.8256835  57.1098582  23.4711584  33.4222259  60.8412243
  23.1650718  33.2811440  61.7371242  22.8926405  32.8823365  60.3026487
  16.7096059  72.7779012  32.6683758  16.2458436  73.2512836  31.9776748
  17.1319739  72.0475893  32.2161792  31.0477798  70.5973248  47.9656301
  31.7111747  70.6283193  48.6549602  30.2141635  70.6526475  48.4328113
  11.8812228   3.3655390  26.9158363  11.1592770   3.5705313  27.5099778
  11.6506625   2.5144133  26.5434623  67.4924374  66.0276985  20.4724526
  67.6241541  66.9535637  20.6765509  66.7032909  65.7855225  20.9570479
  47.8091621  62.5955677  10.4896760  47.8010273  63.4986162  10.8069599
  46.8889236  62.3922634  10.3221607  18.6751159  20.8938827  53.7808798
  18.6037954  20.5868138  54.6846793  18.6099895  20.0987662  53.2519339
  35.9999108  31.1118531  10.4764795  35.5936480  30.5978251  11.1743021
  36.8214965  31.4236736  10.8559501  71.2499428  37.2618604   1.8560161
  72.0208597  36.7040658   1.7521724  70.5154276  36.7062736   1.5951648
  34.8559999  37.0061016   0.4896907  35.0640941  37.8059340   0.0067867
  35.5969167  36.8852448   1.0835499  52.4030638  56.2989330  20.9248853
  52.3405170  57.1140528  20.4269886  52.6975632  55.6499529  20.2858829
  24.0315080  19.6963418  27.0219612  23.2326007  20.1776075  27.2372890
  23.9589691  19.5191741  26.0841012  13.8521608  14.0131844  46.8548070
  13.6046346  13.1330050  46.5715264  14.2093786  14.4262160  46.0686563
  27.2196603   6.2875187   3.7861869  26.9621515   6.3011861   4.7079974
  26.3986921   6.1631012   3.3099875  65.6864412  61.2622814  32.2201822
  66.6139586  61.1348801  32.4194740  65.3566487  60.3815942  32.0416949
  31.1773666  25.5164470  62.5589195  30.8922132  26.2048091  61.9580233
  32.1063932  25.3964414  62.3621122  46.4435530  21.4249969  13.4824944
  46.9268608  20.9641171  12.7967584  46.3905907  20.7961106  14.2021656
   9.7809236  47.5849490  46.0386358   9.5490996  46.6590725  46.1110435
   8.9552562  48.0498855  46.1740504  29.6208048  32.6477456  19.3923795
  30.3441525  33.2218862  19.1406548  28.9416909  33.2430935  19.7095501
  48.7486649  15.9232330  21.4005542  49.1190004  16.7892146  21.2297940
  49.4106770  15.4800093  21.9311428  38.7062053   3.6458668   0.1644724
  39.2818192   4.2215046  -0.3390570  39.2829815   3.2331356   0.8072899
  66.4654906  68.1782989  15.6789730  66.4785321  67.5465207  16.3979433
  66.9170888  67.7339535  14.9614475  35.1857471  13.0738640  18.3040452
  35.7161164  12.4992228  17.7520239  35.4927325  12.9011571  19.1940820
  41.8009313   2.8110184  48.7575732  42.0172056   2.1515645  48.0983470
  42.5798448   3.3652152  48.8064979  49.8253250  15.4999983   6.8475682
  49.5555115  16.4181983   6.8291008  49.0260696  15.0114918   6.6506296
  61.1180170  73.6254840  56.1192684  60.3951223  73.3446555  56.6803311
  61.5292557  72.8101211  55.8323930  32.1563562  12.8602303  55.2790706
  31.2399324  12.9916419  55.0359051  32.4708398  12.1887101  54.6737699
  54.1214561  20.0262284  26.1124778  54.2065144  19.1804957  25.6723285
  53.8914442  20.6380892  25.4132271   7.5063626  54.5346110  58.7626110
   8.2184856  55.1274841  59.0026413   7.7115981  53.7174718  59.2169167
  73.6243390   8.2888450  41.6994427  73.5362434   7.5122632  42.2520683
  74.0763735   7.9753484  40.9161065  55.2852257  38.4583965  56.1326597
  55.2415092  37.5513684  55.8299707  56.2157781  38.6792837  56.0937701
  68.5299217   5.8284701  56.5908591  68.0479860   6.6452588  56.4611439
  68.6145734   5.7486190  57.5409589  34.5503887   5.1115502  33.6557220
  34.6321138   4.4817008  32.9395912  35.0981172   4.7527636  34.3539284
  42.7344942  44.8034191  13.4171581  42.0297480  44.8727751  14.0611744
  42.9676437  45.7103157  13.2186377  33.6432203  14.3299378  37.2649096
  34.5795139  14.2482413  37.4463294  33.2520708  13.5568274  37.6717685
  55.0628821  -0.1644293  31.4361858  54.4610921   0.5034288  31.1074853
  54.8438970  -0.2482763  32.3642206  52.6065841  58.6692572   6.9692761
  53.1306139  59.1033459   7.6424694  53.2029334  58.0328083   6.5748996
   5.7139361  65.7841301  30.2694106   5.1758593  65.3097296  30.9031701
   5.1734239  66.5290308  30.0063491  72.8796223  55.0227356  28.1234908
  72.5584921  54.5042086  27.3857665  73.7080690  54.6084213  28.3648467
  72.1148879  12.8623470  31.9757652  71.8699772  12.0850166  31.4737678
  72.3821766  12.5217613  32.8294563  29.5630598  32.7463794   2.1895573
  30.3276491  33.2329464   1.8815185  28.8556910  33.0158496   1.6036859
  73.9355055  47.0528555  48.0063915  73.7199253  46.1394310  47.8181982
  73.8057453  47.1399021  48.9507484  41.8896723  71.9694519  11.7751455
  41.6897106  72.8267288  12.1510732  41.1830235  71.4020681  12.0832980
  26.7426772   2.7988609  44.4159412  27.6648588   2.8474983  44.6678257
  26.7256423   3.1047043  43.5090780  69.8936066  33.6462784  26.2606621
  69.2616180  33.2783341  25.6430531  69.4675508  33.5683608  27.1142650
  28.7876606  64.7926235  36.7868352  29.5280147  65.1271200  37.2930169
  29.1471386  64.0530920  36.2968349  71.9024832  11.3277039  34.5027065
  70.9874756  11.0934052  34.6579480  72.3834712  10.5093273  34.6257472
  75.4426908  17.3430385  61.3698818  74.6062230  17.7974309  61.4702995
  75.8303189  17.3586787  62.2449426  74.0958187  43.1275129  12.2688091
  74.4480264  43.6479664  12.9908276  74.3447727  43.6111784  11.4812016
  66.8944004  46.5718603  38.1569338  66.8462268  45.8440828  38.7768149
  66.1805096  46.4090252  37.5404310  62.6315403  55.2361441  23.0381775
  63.0863047  54.3976688  22.9583383  62.7195406  55.6395340  22.1746016
   1.3343695  40.5813265  45.0318241   0.9477641  39.8337245  44.5759106
   1.0837249  41.3394880  44.5039988  25.4294218   6.0904392   9.6918243
  24.6852807   6.6155800   9.9862874  25.0375247   5.2776512   9.3724054
  11.5425062  41.8687820  20.8107615  11.5019333  42.4467802  20.0488544
  11.6632640  40.9939432  20.4415607  46.0883784  27.2331847  60.3077586
  45.4436516  27.9179515  60.4856793  46.0448956  26.6588105  61.0722418
  22.0653272  67.3943090  22.6667523  22.9759049  67.4050665  22.9616475
  21.5623307  67.1731901  23.4505439  22.1136355  53.2370424  26.8687201
  23.0081820  53.2068491  27.2079968  22.2057724  53.0538225  25.9337497
  29.5418135  35.9410938  16.1692059  30.3179089  36.3256725  15.7617688
  29.1853154  35.3561195  15.5006671  64.7662464  72.2434330   7.7900803
  65.4592231  72.3925304   7.1468192  64.4239834  71.3753891   7.5765699
  63.1409112  42.5568676  42.7984285  63.1237581  43.2840919  42.1762705
  63.7023476  42.8638792  43.5103035   2.2012918  59.3242264  17.3889756
   2.5924161  58.8315344  16.6675103   2.7069068  59.0636110  18.1588244
  39.3343317   0.5922617  57.2836743  39.5343971   0.2170481  56.4261071
  38.4386336   0.9190597  57.1990667  20.9292126  64.3082428  33.2118416
  21.5946412  63.6254072  33.2965398  20.1076078  63.8710928  33.4356713
  55.2565661  64.5577860  12.4123788  55.5697742  64.3582249  13.2945967
  55.9741607  64.2916059  11.8375385  58.7997690  65.8425426   3.1260955
  59.6017113  65.4230213   2.8144515  58.0963245  65.2660942   2.8275967
  19.9187028  29.0427494  36.7064691  19.8658562  29.4458270  35.8398843
  19.3438971  28.2793689  36.6510057  30.6842160   4.5753077  21.8358850
  30.4410768   3.7799439  22.3097134  30.2802515   4.4736347  20.9740806
  57.5579253  66.8671274  40.2727890  58.2072535  67.0397997  40.9545469
  57.7771583  65.9934425  39.9489880  57.5468808  26.4100112  46.5892993
  56.9959717  25.8331145  47.1183763  57.9109114  25.8391990  45.9126256
  69.8749892   1.8658766  21.0283875  70.6748167   1.5307936  21.4336348
  70.1513640   2.6630816  20.5763698  17.4588704  71.5215492  18.8038301
  17.2399640  71.8278074  19.6838975  16.9216847  72.0597219  18.2224262
  18.2446945  22.9210448  23.2466602  18.7388945  22.7799106  22.4391460
  18.9058554  22.9018164  23.9385605  74.2787841  65.8123016  59.4124079
  74.5619458  64.8982048  59.3906260  74.5379567  66.1636925  58.5605955
  23.1719231  21.0628356  53.6450813  24.1213893  21.0627831  53.5236417
  22.8928470  20.1956119  53.3513544  14.5126863  68.0003385  54.0318785
  14.5284291  67.8800087  54.9813549  14.8738952  68.8762026  53.8954292
  61.3301747  36.9937266  63.7046664  61.1561518  37.1533479  62.7770515
  61.5663206  36.0671271  63.7480715  38.1393627   7.8414330  28.9277959
  37.1886555   7.9518589  28.9138794  38.4057323   8.1669601  29.7876310
  64.1528478  41.6336393  23.1120443  64.9095479  41.6439676  22.5259304
  63.3968201  41.5926027  22.5264096  77.5739963   4.3537554  27.6659298
  76.9322641   3.9179691  28.2267332  78.2777125   3.7128958  27.5643945
  14.8595881  64.8629236  23.0662274  15.4074967  64.1395950  22.7615547
  14.0975022  64.4371986  23.4589291  50.8795706   3.8767132  34.8331499
  50.3720704   4.0563902  34.0417004  50.4595462   4.4048342  35.5120468
  72.6221243  51.4189196  17.9227841  71.8980387  51.3113785  17.3060453
  72.9880455  52.2786617  17.7149868   0.3095309  17.6545033  34.2867780
  -0.6185611  17.4358162  34.3707514   0.3506414  18.5949692  34.4601750
  22.2984576  12.9694271   4.5908618  21.5221786  13.2928813   5.0480306
  23.0046678  13.0492663   5.2320504  36.1457153  26.8865483  55.7871113
  36.9763263  27.3538856  55.8760671  35.7436748  27.2598420  55.0027345
  51.6020695   7.1676907  23.3003807  51.0351745   6.4466080  23.0266881
  51.7455641   7.6758560  22.5020027  77.0467945  28.7163901  37.8916359
  77.0358495  28.3918595  36.9911981  76.3514492  28.2269144  38.3311129
  44.5851819  15.9338841  28.7388253  44.3345479  16.8501267  28.8567805
  44.7376398  15.6110367  29.6269464  67.5458097  22.6344384  62.0761147
  67.1344053  22.2754230  62.8622994  68.4439217  22.3044957  62.1038085
  14.7729433  53.2579231  14.0481734  15.3830862  53.3045769  14.7842312
  13.9238381  53.0783939  14.4519329   4.2406598  67.4710560  35.2603388
   4.5334059  66.6599131  35.6757617   4.1196784  68.0822086  35.9870386
  18.9425480  64.9420691  29.3501711  19.0466869  64.0174007  29.1257191
  18.2544696  64.9510050  30.0155282  16.9929349  21.7670369   6.0901296
  16.5565491  21.3354087   5.3556252  16.3002002  22.2701597   6.5181702
  77.4657710  25.0055690   8.3353712  76.8278129  25.4795547   7.8019192
  77.9307206  25.6897349   8.8170053  33.4720623   2.9282512  60.4786478
  32.6639616   2.5641741  60.8401079  34.0043151   2.1624650  60.2629874
  18.3309436  35.1616812   9.3521476  18.5950112  34.2495418   9.2317194
  18.4369576  35.5579042   8.4872770  68.3414152  68.7321424   4.1854653
  68.4468082  68.1270218   4.9195972  67.6477447  69.3295002   4.4651434
  19.9157822  56.8846512  10.2172148  19.0065169  56.6066074  10.3274834
  20.2379823  57.0095491  11.1098623   6.2367082  63.1555939   0.7798591
   5.5227780  63.2702589   1.4070654   6.7370218  62.4135876   1.1194759
  34.9525928  47.1315527  15.5715668  34.4964981  46.3174200  15.3585124
  35.2602196  47.4617243  14.7274196  63.7086558  19.5161523  62.8419953
  64.5027017  19.3859996  63.3604397  63.4095287  18.6306228  62.6356220
  50.9406947   4.6503295  61.3513060  50.5849581   3.9033116  60.8700044
  51.8871484   4.5073022  61.3500862  42.3520640  10.8725628  16.2437665
  42.1290056   9.9417290  16.2489736  43.3087150  10.8897671  16.2712502
  48.5721437  31.6591343  48.5339308  48.9481274  32.2914776  47.9215479
  48.8906304  31.9384655  49.3922806  26.1134171  53.5742664  15.9013605
  25.4336333  53.1194925  16.3986576  25.8737755  54.4992113  15.9586251
  17.3374295  71.5052223  41.0731936  17.0636153  71.5028858  40.1559973
  17.2653520  70.5908585  41.3470030  71.7259607  59.5639706  59.1898346
  71.8528649  60.4228592  58.7868023  70.7756379  59.4599724  59.2378139
  70.7197928   9.6965302  51.2958406  70.2141356  10.3536595  51.7740939
  70.3917658   9.7485961  50.3981100  47.0946685  15.3292641  23.4962296
  47.1288673  15.9483131  24.2254996  47.8713004  15.5308899  22.9742861
  75.8489037  20.0081778  52.6756477  75.6023189  19.1549659  53.0326605
  76.5812054  20.2938080  53.2218885  52.2273174  46.5798473   4.4761264
  52.9163519  46.1910534   3.9373305  51.4200702  46.4133406   3.9894456
  21.1911583  33.8146448   5.6012553  21.6414404  34.3954897   4.9879891
  21.1776638  32.9650593   5.1605105  29.4257053   3.7911452  60.9392325
  29.8948797   3.0528392  61.3278405  28.6620172   3.3953322  60.5193020
  40.8630220  14.1537079   8.7521321  41.0073272  13.4175476   9.3466753
  41.4937834  14.0177616   8.0451024  73.8329585  65.0564103  63.0120365
  73.8193686  64.7692971  63.9250605  73.9575465  64.2512612  62.5095995
  18.8335156  60.9608030   5.5510706  19.7238386  60.6132412   5.6035727
  18.9507174  61.8930340   5.3682214  64.0666941  54.1093063  20.2573538
  63.5544077  53.3010483  20.2347684  63.8167754  54.5736790  19.4585240
  72.3771218  19.9633348  14.9099600  73.2065418  19.6942031  15.3047526
  72.0712850  19.1863036  14.4420743  27.4549115   1.5597424   9.3301588
  28.1065638   0.8674892   9.2189240  27.9514452   2.3729881   9.2389822
  65.5489102  64.1069984  24.8732376  65.5246094  63.3358049  24.3067551
  65.7472757  63.7593412  25.7427287  58.5558473  68.9263532  23.4288859
  58.6702549  68.0401162  23.0857730  59.0589690  69.4808680  22.8325534
   9.1870689  44.4529819  15.6853151   9.0651083  45.2946758  16.1245334
   8.3273095  44.0342808  15.7269788  23.0728658  14.9673594  58.8552449
  22.9729208  15.9153880  58.9417885  22.5550731  14.7414865  58.0825202
  45.3770295  70.4791975   6.8018758  45.4369393  71.4059544   6.5700138
  44.4409171  70.2829409   6.7643517  16.1966455  53.2356977  21.5715528
  16.2019670  53.7679434  22.3671174  15.3604519  52.7707243  21.6000438
  71.0272192  37.4788178  46.8671976  70.5955946  36.6677560  46.5986655
  71.8893718  37.4397410  46.4531968  28.4398406   7.0679649  26.8237638
  28.2062230   6.6202625  26.0106134  28.3512207   6.3969597  27.5006127
  70.4271582  20.2118540   2.8124201  71.0691324  20.7369685   2.3345536
  70.9456208  19.7230542   3.4515625  73.0054626  47.0975542   8.8003004
  73.7550867  46.9196177   9.3683088  72.4726418  46.3039923   8.8512701
   5.2382523  50.0267744  34.3557143   5.1776743  49.0772629  34.4605374
   5.8550358  50.1492071  33.6340332   4.4064131  45.7791662   5.6724811
   5.2834475  45.9900379   5.9927535   4.4724071  45.8623171   4.7211856
  15.0814048   9.1433987  45.7061672  15.4056732   8.2569775  45.8653355
  15.5108932   9.6789249  46.3732386  24.6207952  50.7736778  16.5120256
  24.4864488  51.5006447  17.1200573  24.2326760  50.0178623  16.9528687
  43.5973846  28.4036292  61.4484711  43.2353931  27.9505815  62.2100118
  42.9642742  29.0959014  61.2583191  41.8284607  69.5100498  21.2991619
  41.2031794  70.1989031  21.5244102  41.6908646  69.3580723  20.3641748
  59.0911523  57.6722097  15.5432594  59.4688287  58.3248901  14.9536788
  59.1849342  56.8430519  15.0742924   7.0435643  20.4047966  16.7181981
   6.1673176  20.4252648  16.3334835   7.2205240  19.4750905  16.8616033
  22.9764843  43.5209799   9.5251083  22.6373744  42.8335857  10.0984538
  22.4695063  44.2987967   9.7579277  21.7203159   1.3953766  34.4899607
  21.0255370   1.3101181  35.1428366  21.5121806   0.7332071  33.8308382
  28.8038969  38.2949090  30.9000850  29.2729831  37.4702072  31.0268116
  29.3754840  38.9576030  31.2878418   9.6252926  19.1303386  53.6543868
   8.9469203  18.4741630  53.8140045   9.5145329  19.7661818  54.3612550
  28.6939812  41.2600613   1.4728142  28.6217022  41.6145277   0.5866087
  27.7922010  41.0631514   1.7263007  10.2311349  43.7905645  22.8872347
  10.6119835  44.4011593  22.2560740  10.2327108  42.9468346  22.4351859
  75.4031017  20.1695347   2.6692837  75.7311958  20.3682280   3.5462710
  75.2124989  19.2317688   2.6916367   0.6304056  55.8961439   7.3243946
   1.1311590  55.0837946   7.2497851   1.0698777  56.3853884   8.0199063
   5.3788034   5.9877190  20.4043818   4.5397512   5.9718689  20.8647847
   5.7306138   6.8609032  20.5776429  77.7436819  50.9880400  26.3124990
  77.9892755  50.7013178  27.1921039  78.3811079  50.5661535  25.7363629
  70.5628350  53.6522722  11.8918979  69.6989742  53.2756805  11.7240942
  71.1000153  52.9079151  12.1632016   6.1314809  53.1301260  45.1100969
   5.9317750  52.1946812  45.1460409   6.2600338  53.3119965  44.1791677
  42.8708076  33.1279254   2.4242534  43.3081341  33.9597654   2.2425440
  42.5243378  32.8492999   1.5765750  43.7333738  13.8461436  45.0265382
  43.0290764  13.8962497  45.6728242  44.3873286  13.2744969  45.4287754
  29.2624305  61.0920243  62.3952804  30.0534768  61.1551003  62.9305364
  28.8802324  60.2468018  62.6314085  19.9904571   5.0279602  10.7593060
  20.2853981   4.2961391  10.2173865  19.7018645   5.6900677  10.1311648
  10.7590588  12.4560632  62.0920245  10.0913747  12.3728789  62.7728404
  11.0902937  13.3488549  62.1892108  26.3195038  49.7999573  61.0534906
  25.5653548  49.8174381  61.6427183  26.0771680  49.1720676  60.3728628
  49.1314235  44.8287725  14.9298048  48.3794060  45.1535988  15.4249728
  49.8867837  45.2559566  15.3337550  70.7731878  22.6350965  44.8320196
  71.4851867  22.6734485  45.4706250  70.2481031  21.8822803  45.1036630
   3.4665576   5.5953630   6.5602744   3.6971799   6.4771637   6.8526369
   3.3786646   5.0903400   7.3686427  59.7772042  24.1559109  21.4430881
  59.6387831  23.2661137  21.7676258  59.6712891  24.7116646  22.2152019
  49.9280445  26.8354973   7.1087849  49.9878470  25.9856876   7.5452173
  50.2027527  27.4663433   7.7742147  55.0885852  69.9320011  51.1426697
  55.8129080  70.3730850  50.6987832  54.6600826  70.6235127  51.6470788
  47.6481596   5.2253756  42.9588795  47.1583573   5.0956806  42.1467781
  48.5652510   5.1234850  42.7043295  77.3513746  27.5526227  57.1973310
  76.8379688  27.9895581  57.8768407  77.4178552  28.1990375  56.4945112
  69.4955143  71.8701506  35.4083872  69.9640349  71.1761189  35.8721066
  69.4522068  71.5656137  34.5019579  49.8453204  39.6111855   2.0622922
  50.5769340  38.9960751   2.0111719  49.3459383  39.3263325   2.8276077
  25.2244639  49.3206167  20.8152986  25.1372766  50.1280880  21.3218713
  25.7928896  49.5577478  20.0825691  68.1306127  71.2538433  45.9395552
  67.8651157  72.1218014  46.2435150  68.8229802  71.4250565  45.3011656
  25.7199805  29.3467983  27.1721625  26.3100241  28.5936913  27.1418166
  25.2294383  29.2340740  27.9863453  15.5611169  69.2933035  23.7869978
  14.7169399  69.7039604  23.9739633  15.8691573  68.9809227  24.6377397
  -0.0430202   1.8330416  37.5479531   0.1758958   2.1189770  36.6610765
  -0.0409984   0.8771118  37.4987555  66.6951004   3.8702091  25.7027674
  65.9725920   3.4525236  25.2339911  66.8778054   4.6651825  25.2019072
  29.5622706  70.7264090  37.7412820  29.9617887  69.8742437  37.9157400
  30.2808237  71.2642050  37.4085879   2.7805310  71.5591860  22.3508763
   3.4749493  70.9145594  22.4867845   2.0180987  71.0397243  22.0957518
  32.9678345  72.2272825  16.7143250  32.1966457  72.5423813  17.1857178
  33.4110856  71.6518736  17.3377550  77.8294610  13.6868514  50.7379971
  78.0636429  12.7958716  50.9978996  77.0977687  13.9186849  51.3099347
  18.9026865  31.8971337  47.7742205  18.1266483  31.9743527  47.2192119
  19.4788106  32.6026000  47.4798916  12.4653459  62.1364307  22.5089407
  12.0017135  62.7096939  23.1193900  12.3613012  62.5597954  21.6567850
  13.0556834  47.9718685  29.8380709  13.6621881  47.7725697  29.1248631
  13.6202729  48.2168198  30.5711937  54.5697419  24.9123558  15.7211411
  55.4863230  24.6366104  15.7297778  54.2763320  24.7404560  14.8263824
  17.5058591  56.0158777  26.5827942  18.2269764  56.4707851  27.0178604
  17.7226341  55.0873899  26.6673684  14.9052938  15.3726043  55.3850792
  15.7823404  15.1953210  55.7250730  14.5613988  16.0595693  55.9560846
  67.1575633  30.2548575   4.5718393  66.3490334  30.0690794   5.0493306
  66.9128469  30.9315300   3.9406034  24.4730377  52.5927734  27.6829481
  25.0715923  52.5188780  26.9396424  24.7208047  51.8724012  28.2625175
  22.2102618  55.7806969   8.8400960  22.7306485  55.1852465   9.3794173
  21.5175033  56.0892725   9.4241321  72.2234344  53.7378634  53.9088581
  71.3368463  53.8737334  53.5745977  72.5858115  53.0478991  53.3531032
  56.6599766  16.5344128  24.1245937  57.5078527  16.5011391  23.6816120
  56.0853330  15.9935173  23.5828853  17.6930213  59.8857737  15.8232152
  17.9958737  60.5967522  16.3880408  18.1292391  59.1055441  16.1655426
   8.6595708  56.6637039  12.8358650   8.4748608  56.2771988  11.9798684
   7.8573918  56.5250874  13.3393788  31.3125372  70.3833055   8.0745065
  30.8836770  69.9660301   8.8216275  31.5985966  69.6539879   7.5245136
  50.2204903  61.5468062  60.1350327  49.3977013  61.0579719  60.1178933
  50.7888032  61.0807361  59.5218210  34.1277168  13.2178387  51.4650154
  34.2298714  12.8283676  52.3334122  33.8747410  12.4858555  50.9024858
  52.7146576  51.0796012  52.2347401  51.9951873  50.4501761  52.2839568
  52.7303172  51.3542499  51.3179229  37.4648324  11.6953358  17.7508032
  37.9686836  10.9702286  18.1203783  37.7240101  12.4563870  18.2702935
  38.8163534  66.5800714  57.5864124  38.8526502  66.5651751  58.5428047
  39.6324101  67.0049858  57.3223448   2.6364056   3.8628897  35.9837389
   2.2734753   4.4870266  36.6122055   2.0079724   3.8571390  35.2617478
  74.9134930  65.5807538   7.1136810  74.4464095  66.3465638   6.7796137
  75.8329757  65.8466096   7.1237995   1.3428283  73.1742430   2.9151678
   0.4633093  72.7998877   2.8648171   1.8706325  72.4910307   3.3285335
   5.4456409  17.1637048  57.6760207   4.5671853  17.5045957  57.5076739
   5.9675129  17.9387082  57.8839980  74.2872936  61.4363432   4.4358680
  73.4557292  61.8833733   4.2780823  74.0376893  60.5906248   4.8082811
  21.6295600  61.7709780  26.3392305  20.8698535  61.1936283  26.4150047
  21.4982891  62.2320700  25.5107427  37.6470653   6.0173782  20.1591945
  38.2510022   5.4097733  19.7322202  37.5758497   5.6930431  21.0569525
   5.2411968  53.5700369  24.0764666   5.8539301  53.0812120  24.6258688
   5.6674832  54.4154787  23.9359689  17.6464200  59.1449833   2.2833499
  16.6944408  59.1233110   2.3808131  17.8995991  58.2256842   2.1995713
  28.5526466  65.3904104  14.0873921  28.3759046  64.5627689  14.5346141
  28.5142732  65.1724005  13.1561399  39.9742103  64.2563105  12.1007311
  40.2229023  64.3289852  11.1792636  40.5269909  63.5539627  12.4433255
  27.3634543   6.5956196  30.0342631  26.4534881   6.3093742  29.9551511
  27.8441510   6.0373196  29.4231510  69.6871535   7.3510632   6.9524360
  69.0927426   7.0616135   6.2602502  69.3672053   6.9135174   7.7413726
   3.4216078  40.1609506  56.5959923   2.9912194  39.9082030  57.4127625
   2.8688534  40.8562077  56.2391792  47.4969427   9.4195065  38.1312442
  47.6178996   8.8213047  37.3938489  48.3762804   9.5378288  38.4904051
  16.1361468  44.2299223  24.9080706  16.9298422  44.6390676  24.5632839
  15.5743611  44.9653673  25.1525068  76.2190236  70.3079128  27.6365566
  75.6675810  70.1209164  28.3962774  76.5945152  71.1692047  27.8193331
  13.1265553  36.5869464  59.7241939  13.6929878  37.0541753  59.1101239
  12.6817330  37.2788705  60.2136911  63.5105936   8.6564144   7.6924312
  64.1619317   8.4374985   8.3588159  63.7733904   9.5205101   7.3753917
  66.9057762  23.4455193  59.7181783  67.5780069  24.0074529  59.3327306
  67.2990441  23.1234015  60.5292339   9.6250749  27.0701432   5.7053781
   9.7633302  26.2268591   5.2741164   8.7097311  27.0491695   5.9845513
  34.9461126  57.1343279   5.0286967  35.7838106  57.0993853   4.5668831
  34.6627760  58.0445433   4.9423060  48.4006874   3.8129982   4.7790447
  47.5283019   4.0529665   4.4666481  48.6912195   4.5720610   5.2846593
  72.2636954  14.4497189  11.1926711  71.4785687  14.6824917  11.6882730
  72.9815642  14.8608002  11.6742456  40.6133366  57.4973297   8.3843654
  40.1448107  58.2498693   8.0232608  39.9487972  57.0149612   8.8762391
  55.8480469   8.9730057  25.0455332  56.5170614   9.0445980  25.7263589
  55.1069228   8.5522160  25.4813099  65.6084716  50.7429828  55.9725772
  65.6000077  50.6114806  55.0244914  66.4948320  50.5001105  56.2401686
  44.2797653  21.5883621   7.9908997  43.5010199  21.5846619   7.4343276
  44.3113378  22.4739632   8.3527559  71.2743983  73.7237358  14.6839356
  72.1923527  73.5307026  14.8745406  71.0395995  73.1087112  13.9890659
  16.5738463  63.0395460  27.3208451  15.8061385  62.4721432  27.2507787
  17.0041275  62.9666233  26.4689231  16.5212035  63.8027334  34.0510011
  15.9842491  63.1562376  34.5092106  16.4562511  64.5921803  34.5883918
  66.9971302  59.1935015  18.3885825  67.1213308  59.3543911  17.4532104
  67.7908388  59.5376158  18.7982655  64.9223140  49.1589975   3.6450019
  64.1555229  48.9293337   4.1699010  65.6676892  48.9755583   4.2168385
  64.8564958  34.6184911  53.5709356  65.4545008  34.4396152  54.2966245
  64.7568499  35.5704917  53.5717891  45.5114167   6.6078462  61.1452098
  45.4741531   7.4260224  60.6497951  46.4333212   6.5151061  61.3854645
  43.0757097  24.4101318  41.3779926  43.3542386  23.5480961  41.0688877
  43.6136714  24.5720181  42.1529913  45.1187412   3.4962925  20.3494930
  44.9584297   2.8599009  19.6526885  45.0650851   4.3469652  19.9139369
  45.9892654  47.7180147  12.5075781  46.5294838  48.2633924  13.0793834
  45.1226950  47.7299452  12.9139578  41.2809948  -0.2266184  30.5499530
  41.1277608   0.5670818  31.0625815  41.0131601   0.0068745  29.6611476
  34.2700787  60.0237327  63.8993283  34.6610309  60.4213600  64.6773269
  34.3083020  60.7110100  63.2341812   4.1212615   9.4370641  52.6326655
   3.2162794   9.1358317  52.7132962   4.2511138   9.5561923  51.6918264
  38.0677000  22.6438698  16.1274910  37.8944162  23.2345852  15.3945088
  38.6350719  23.1469902  16.7116046  25.3167772  64.8967266  12.1697915
  25.4877377  63.9589834  12.2572279  25.6711721  65.2806044  12.9718363
  33.1678462  52.5213575   6.5983438  32.9295111  51.6062450   6.4500284
  34.0576482  52.4832964   6.9491047  44.9728970   5.1011690  54.0956879
  45.3146008   5.9920343  54.1720438  44.5977143   5.0631317  53.2159042
   8.6672753  36.8760753  12.3463786   9.5791680  37.0202041  12.5991845
   8.3714813  37.7265286  12.0216179  56.6170422  11.4090427   0.8736587
  55.7459108  11.8011078   0.9341113  56.6797654  10.8448204   1.6443372
  19.1437419  14.1838683  63.2001022  19.0399726  13.8018979  62.3285748
  18.9701637  15.1168384  63.0749244  76.6118997  69.2630959   7.6436371
  76.1280401  69.1509438   8.4618872  77.4798379  69.5597315   7.9173535
  13.6619985  48.4075499  18.9619684  13.7419522  47.5465345  19.3724453
  13.6811662  48.2275057  18.0220497   1.8765251   8.8113960  50.1962662
   1.0425559   9.0392384  50.6071377   2.2759286   8.1827911  50.7975674
   7.5109917  27.6552391  16.8825245   8.3943200  27.8862071  16.5950930
   6.9388962  28.2554078  16.4042616  34.1398314   3.2475409  31.7212796
  34.7060982   3.5114416  30.9960675  33.2842479   3.1035694  31.3169527
  45.2043704  13.6165794   8.6221492  45.2197639  13.6806664   7.6672214
  45.9576730  14.1327843   8.9090210  56.6352860   6.9559368  28.7740469
  55.7890264   6.5098747  28.7408328  56.4175002   7.8867420  28.7249327
  44.3182278  57.3296022  18.9095509  43.4941721  57.7328730  19.1825604
  44.8087215  58.0415297  18.4986877  17.3226500  72.0446873  -0.0881890
  17.1145451  72.5026894   0.7261568  16.5245545  72.1131897  -0.6121958
   4.0990552  37.8427113  50.0595866   4.0179547  37.4047030  49.2123531
   4.8880251  37.4661006  50.4493640   0.2308949  32.0120658  40.6533764
   0.4976901  31.4913024  41.4109085  -0.3382746  31.4293851  40.1506255
   9.1951698  53.6633778  14.3149495   9.3516451  54.1366959  13.4978116
   8.5830051  54.2174244  14.7992194   6.8244442   1.2206425  46.2004815
   6.1657961   1.4540614  45.5463169   7.5327786   0.8214988  45.6953321
  73.0917954  41.6336955  47.9334913  74.0030288  41.8930568  47.7970420
  73.1335258  40.6926669  48.1036542  22.8479131  25.6999768  41.8192099
  22.2117504  25.6178702  42.5296949  22.5101741  26.4124240  41.2764548
  67.1052948  23.1570038   3.8792029  67.3131815  23.4988197   3.0096206
  67.6511542  23.6700901   4.4750312  33.1484933  71.1730103  37.4350260
  33.7757786  71.6482930  36.8901847  33.6765404  70.5195885  37.8937600
  17.6408482  64.2231178   7.0885462  18.0562043  64.3353415   6.2334931
  18.3687925  64.2217207   7.7100986  37.6102661   3.4316911  44.4141982
  38.3876514   3.4468545  44.9724768  36.8871795   3.2525910  45.0152825
  51.8089445  58.9067249  55.9783725  51.3816102  58.5894875  55.1827745
  51.9221909  58.1241255  56.5177630  57.0344573  12.5128402  34.7711752
  57.7391445  12.9812898  34.3237327  57.4850719  11.9206037  35.3731964
  59.6613526  12.8309859  54.4004647  59.7872072  11.9974841  53.9469598
  59.0625774  12.6250590  55.1183043  10.3225577  62.2419691  19.4847178
   9.6249038  62.7716637  19.0987968  11.0701525  62.8368187  19.5437634
  28.3946000  71.3142686  43.3782385  28.4066391  72.2415857  43.1412433
  29.0630777  70.9159069  42.8208540  27.7111412   3.3123526  35.2588940
  27.7033674   2.3641380  35.1282716  26.8339047   3.5167011  35.5828214
  56.5106859   9.5127572  62.9663853  56.1141526   9.4280709  62.0993089
  57.3203819   9.0053596  62.9100563  10.1680429  55.6188910  26.9215773
  10.5082126  55.8471279  27.7866910  10.0840600  56.4577608  26.4682816
  54.2807647  16.3716115  61.7604674  54.2478754  16.3824500  62.7170409
  53.8408881  15.5577125  61.5148951  27.3321652  48.3392429  28.0069923
  27.8981352  47.9125500  27.3636842  26.9103265  47.6164770  28.4716368
  30.9601331  48.0893469  27.7212024  31.6465235  47.5193739  27.3744607
  30.2993321  48.1167698  27.0292330  12.2138357  20.9092283   0.1181209
  11.9825184  21.3796329   0.9190230  11.5149856  21.1278248  -0.4983661
  18.3715796  24.8945975  14.6435261  18.2361019  25.1163054  13.7222648
  17.7063227  24.2323446  14.8308361  21.3696098  49.5637798  14.3670285
  21.0149050  48.7036324  14.1421580  20.7176876  50.1843309  14.0412271
  49.8571270  23.8823689  50.6303023  49.9447588  24.8174323  50.4453324
  48.9211424  23.7556161  50.7855354  15.1431879   1.2226809  42.5916598
  14.2583641   1.1171545  42.2421096  15.6947025   1.3353456  41.8174694
  36.4367199  56.8012762  19.3482828  36.3615847  57.3111105  18.5416496
  35.5492043  56.7876434  19.7065580  29.3108130  45.1889563   1.6636789
  29.2578912  46.1073923   1.9280778  29.8620081  44.7791672   2.3303783
  31.8956971  67.2830629  23.2133126  31.6106105  66.6624880  22.5426078
  31.7612743  66.8203545  24.0403938  46.0125923  13.3023632  22.1357369
  46.2712812  13.9868629  22.7528024  45.0562286  13.2935905  22.1748686
  52.0647018   9.2189588  45.1911317  51.7931062   9.9888171  45.6909130
  52.6366745   9.5670260  44.5070778  14.2843565   2.8900541  63.6337220
  13.3490332   3.0800761  63.7064934  14.3592723   2.3548974  62.8436418
  22.9050636  51.5282345   5.5601120  23.0384254  52.2023344   4.8937520
  23.3925009  50.7710123   5.2356941   7.6698728  68.9893966  34.7625874
   7.1234615  68.3018069  34.3819473   8.4936292  68.9364819  34.2779682
  45.1585674   7.1989192  37.2650908  44.6730488   6.3752259  37.2199939
  45.7684910   7.0778979  37.9928110  54.9420335   7.3728503  48.0827699
  55.6116929   7.9783858  47.7647863  54.2775536   7.3672952  47.3938094
  22.2907543  48.6935616  16.8151343  21.7803121  49.1219854  16.1280143
  22.4250245  47.8021622  16.4932501  54.5462003  35.3756989  60.8044915
  54.2069421  35.8511008  60.0461207  54.2362962  35.8762635  61.5592269
  21.0181327  70.0246291  56.7095946  20.0737114  70.0338344  56.5539817
  21.1086024  70.2081709  57.6446663  68.8042878   1.2599076  55.2253721
  68.7127995   1.1871733  54.2753343  69.2759918   2.0821322  55.3583161
  23.3669313  18.5743894  61.4836003  24.0309557  17.9031171  61.6407613
  23.1739601  18.5061110  60.5485426  47.2333089   1.7920431   7.0978516
  47.7683083   2.2190699   6.4287806  47.0624153   0.9183296   6.7462188
  47.8808816  69.4858675  57.3071591  47.6814325  70.1489692  57.9680262
  47.3827918  69.7583561  56.5365170  70.4710946  61.2895536  28.0394411
  71.2156406  61.6151094  28.5453033  70.7283965  60.4059696  27.7761674
  19.4328666  30.0993180  16.4979482  20.0946188  29.9318933  15.8269155
  19.6820819  29.5314145  17.2270644  16.7114365  66.6265821   0.5198334
  17.3278368  67.3455000   0.3804038  16.7221367  66.1387968  -0.3036839
  61.6551059  17.3506297  43.4109734  62.1883594  17.7265395  42.7105711
  61.2145674  16.6052522  43.0028437   0.7868703  37.2612370  32.2867559
   0.7504424  36.3637818  32.6176260   0.6228932  37.8069152  33.0559014
  73.5594439  11.8946780  48.1114398  73.7677025  11.5348376  47.2492490
  74.2801952  11.6066922  48.6716316  29.7424817  60.8341408   7.8934562
  29.6274137  59.9695539   8.2877713  28.9893508  60.9339714   7.3111677
  63.9982751  25.8814597  45.3275251  64.6134237  26.3560224  44.7684097
  63.3842304  26.5505910  45.6299257  55.6582855  36.6222371  37.5360964
  55.3171658  36.4122380  36.6667484  56.6061854  36.5182675  37.4529861
  73.2424243  51.2849419  42.8523157  72.3191245  51.5159278  42.7503489
  73.4493859  51.5190713  43.7570713  51.9303417  24.5395660   2.4813919
  51.7516613  24.5974827   1.5428022  51.1753082  24.0736270   2.8406382
  74.4060611   7.3068751  60.6165458  75.0857376   7.0899285  61.2546707
  73.6878084   7.6592244  61.1420877  53.3283885  72.6876788  56.9093512
  53.0377133  72.5595980  56.0063921  52.7309854  72.1522455  57.4315117
   2.3775831  61.7745495   0.4219772   1.9991095  61.0489082   0.9183989
   1.7830414  61.8939257  -0.3186315  69.7230920  27.0271873  11.4310253
  69.9805316  27.5040460  10.6419992  68.7988213  27.2449303  11.5516174
   3.7056395  42.4532461  28.8926888   3.2689297  42.5883818  28.0517054
   3.0313015  42.6408291  29.5456147  56.9162066  52.3391156  46.3311909
  57.8131779  52.1569877  46.6113709  56.4339431  52.4769573  47.1464549
  72.7231196  21.3163829  35.2468300  73.4027091  21.4977050  34.5975900
  72.5246367  20.3869772  35.1326227  69.8227250  35.1677741  46.0556303
  68.9161848  35.1708974  45.7483719  69.7524738  35.1092614  47.0084534
  54.8131887   5.9529623  10.5626750  53.9142338   5.9306606  10.8907175
  54.8791472   6.7890820  10.1013887  73.5846904  46.9678402  29.1153240
  73.3018664  46.0559797  29.1843033  72.7714577  47.4647379  29.0260267
  43.9751688   0.3770432   6.5346652  43.2933501   0.0627693   5.9408748
  43.7354247   0.0149569   7.3876882  54.8996424  69.0085033  31.3705444
  55.1685654  69.7855315  31.8605852  55.2478846  68.2740912  31.8761110
  76.3453038  39.7830963  22.7774239  76.8290377  40.6086969  22.7525663
  75.4442322  40.0392818  22.9740739  48.4510183  62.1581411  32.1477699
  48.9918184  61.4112473  32.4045110  47.7837181  62.2169495  32.8314972
  58.8346727  46.2594395  53.5595570  59.5332153  46.3606493  54.2061065
  59.2019732  46.6186254  52.7519010  70.1308329  57.0368271  47.7030371
  70.9872420  56.8350546  47.3261021  70.3259356  57.5950532  48.4557317
   1.0600290  27.9827929  33.5175204   0.2974385  28.1662178  34.0661955
   0.7493230  28.1186771  32.6224065  58.8229683  69.1099596  12.3772025
  59.6407214  69.0036249  12.8632116  59.0928915  69.1480255  11.4596379
  31.1476745  73.4485702  29.8277424  31.5629472  72.7899270  30.3844927
  30.3372861  73.6724811  30.2853082  39.2101264  30.9144378  19.2612958
  38.8748050  31.7101550  19.6743655  39.8600483  31.2269425  18.6318743
  10.9160113  35.9269500  24.6135497  11.6228735  36.4931345  24.9234104
  10.1253223  36.4583921  24.7063422  71.4287694  72.5145607  55.0622742
  71.1093362  73.2151060  54.4935636  72.3823197  72.5799160  55.0103156
  39.0816931  11.6731915   1.2916084  38.1357089  11.7100128   1.4329940
  39.4430367  12.2914871   1.9267224  72.5272188  57.5873995   3.9609662
  72.7206138  58.2341385   3.2823214  73.2904264  57.0097160   3.9657533
  62.4009585   5.4960574  51.7352758  62.9944836   6.2297000  51.8956624
  61.8595188   5.7823981  50.9996925  70.5572160  70.1696877  31.4933680
  70.6041272  69.3351130  31.9597529  69.8216231  70.6292849  31.8982194
   0.0967897  51.9885540   6.9410944   0.7178718  51.4990807   7.4804533
   0.6288454  52.3521328   6.2333107  52.4116547  15.6071176  36.4492319
  52.2466810  15.6324138  35.5066941  53.3162461  15.3037156  36.5259932
   8.6895633  25.2934480  10.6413615   8.1626695  24.5146418  10.8204544
   9.3623459  25.2892280  11.3222265  43.1490946  58.5975742  15.2081478
  44.1033602  58.5601187  15.2729857  42.9697990  59.4448996  14.8005581
  42.3384308  14.0256394  16.4347790  43.1846004  14.2515315  16.8210457
  42.3943424  13.0845441  16.2691210  77.4703264  10.1101769  61.1238853
  77.5029730   9.1838206  60.8850686  77.8211164  10.1405610  62.0139728
  27.6845884  24.0755725  28.2913780  28.5563827  23.8096213  27.9990125
  27.0837975  23.5696125  27.7443075  73.5894989   1.0141124  59.8279272
  73.5297536   1.2002696  58.8909064  73.0941533   1.7194451  60.2443079
  47.3238786  69.1984420  38.9204333  46.6463287  69.1143327  39.5913170
  47.9005773  69.8887758  39.2476819  32.9023017  73.1716161  59.7987132
  33.2250990  72.3000317  59.5698614  33.3041169  73.3608298  60.6466366
  54.6378954  64.9834661  30.4010413  54.2528947  65.7555084  29.9863647
  54.3280108  65.0180654  31.3060306  43.2210308  17.9118766  52.3824380
  42.8599542  18.2492818  51.5626727  44.0895640  17.5865830  52.1456609
  78.0152725   2.4580039  49.4024895  78.4207534   1.6529001  49.0805767
  78.2524442   3.1213321  48.7544344  39.3459892  45.7382727  14.3127131
  38.7919164  45.1074076  14.7723293  40.1427650  45.7867336  14.8409438
  77.9728098  42.3502541   3.8147148  77.2159711  42.0857906   3.2917559
  77.7041461  43.1714582   4.2266354  13.2109506  67.9441957  58.1567447
  13.7248619  68.6802297  58.4889786  13.7984617  67.4977045  57.5470666
  45.5278873  40.1151276   6.0456562  45.9370327  40.4556322   6.8411976
  44.6083403  40.3699589   6.1213213  15.2326691  38.1370997   9.0350306
  15.8364034  38.0957842   8.2933903  14.3709230  37.9736090   8.6517596
  69.3623602   5.6753243  63.5196913  69.4834470   4.8574246  63.0373963
  70.0316321   5.6514253  64.2036034   6.4744776  35.2488279  12.2940576
   7.1831453  35.8904362  12.2454655   6.2585086  35.0608730  11.3806784
  20.2048254  23.2616782  10.1922500  19.2854500  22.9981589  10.2314377
  20.2280545  23.9521027   9.5296741  16.1512160  57.3575306  38.8968253
  15.7454944  56.7046785  38.3263826  16.5212023  58.0040359  38.2956767
  55.7655223  46.1678247  27.7973364  55.0723822  46.8271129  27.7637528
  55.4558451  45.4653804  27.2255824  19.9658950  13.4007253  47.0848916
  20.2504524  12.5702275  46.7033992  20.4559406  13.4682549  47.9043601
  16.8291557  35.8857536   4.6561620  16.8553984  36.4189982   3.8616845
  16.1147642  35.2667069   4.5056358  68.3381262  51.2585258  56.2585068
  68.4967426  51.3108492  55.3159904  68.9910010  50.6351995  56.5770197
  50.9689665  39.4723225   8.4928125  50.4189110  39.1827154   9.2206818
  50.3500843  39.6797729   7.7926821  75.2050304  38.3981694  29.8083494
  75.4133152  38.8371028  28.9836119  75.1110029  39.1099538  30.4414008
  45.9962273  48.0473423  17.4945235  46.0725403  47.1417952  17.1938694
  46.8908644  48.3002949  17.7222669  24.6120310  41.2951422  23.8216829
  23.8158274  41.8223190  23.7555337  25.0352073  41.6000986  24.6242762
   5.3393394  39.7422457  29.1513300   5.6397504  39.9033093  30.0457811
   4.7769609  40.4899931  28.9492488  23.0570263   8.2097229   3.1725672
  23.7993460   8.7233814   3.4909198  22.4269942   8.2274040   3.8929689
  68.8963143   3.2621273  17.7682877  67.9766194   3.5175261  17.8401411
  69.3113676   3.6411079  18.5431015  53.6748655  56.6938620  45.9018992
  53.9606126  56.2126963  46.6784690  54.2486818  56.3818149  45.2021895
   4.7982780  22.3243984   5.0423855   5.5781738  22.5777039   5.5361784
   4.1115443  22.9092106   5.3627330  37.0450544  48.3199596  17.3358393
  37.4483299  48.8942766  16.6848671  36.4244056  47.7898407  16.8358386
  25.4076840  18.9316830  21.7923951  25.1721052  19.8004803  21.4669394
  25.3079128  18.3565601  21.0337663  68.4038861  58.4748392  56.8313090
  68.8080342  58.2597594  55.9906922  68.5139354  57.6840405  57.3592828
  58.6466948   1.7385611  17.0864356  58.3289782   2.5822434  16.7647469
  59.3784729   1.5220818  16.5086222  12.2820294  44.7194672   3.3276761
  11.9966269  45.5278587   2.9018980  13.0319643  44.4276285   2.8093517
  59.5929562  28.9193477  57.9326604  59.1679024  28.9868154  57.0776699
  60.4707640  28.5907449  57.7384774  56.9738690  10.8664974  11.7550373
  57.8462211  11.1124786  11.4472663  56.5602771  10.4530796  10.9972334
  60.8964292  20.0659641  12.9098380  60.7866327  20.9689697  12.6119077
  61.5948144  20.1124271  13.5627782  45.2298609   1.4693007   4.3014181
  45.4772023   2.3876652   4.1934270  45.0410501   1.3803610   5.2355874
  68.9177600  65.3940582  22.7575350  69.6035001  66.0086918  23.0187178
  68.6410174  65.6972599  21.8928313  63.1026951  11.4353737  31.5460181
  62.2358815  11.1090359  31.3044333  63.3356086  10.9386047  32.3303676
  31.9715452  46.4875937  20.0397992  31.2108040  46.5935040  19.4685805
  32.7008629  46.3290787  19.4404674  36.0257387  52.8521633   6.5996587
  36.2540174  52.6654053   5.6890315  36.7915773  53.3070278   6.9501156
  63.3061051  23.6096133  48.5794459  63.4022378  24.5474376  48.7452124
  64.0961599  23.2182874  48.9521537  29.4122195  63.1485844   9.2444682
  29.4001818  63.4619474   8.3400935  29.7021198  62.2387075   9.1788447
   8.3269686  64.5979118  16.0198486   7.6081681  64.3353462  16.5948415
   8.9578909  65.0203037  16.6027296  31.5179571  17.9545106  57.6429192
  32.3460134  18.1233109  58.0924330  31.7707714  17.7587403  56.7407046
  26.4996719  36.2770534  11.1803722  26.4996529  36.9610357  11.8499994
  25.6173420  35.9075928  11.2153590  72.8641366  33.0340136  52.8097759
  72.7607559  32.1205129  53.0763469  71.9976186  33.2910956  52.4946795
  17.4296650  11.7223634  58.4676938  17.8385385  12.3797406  59.0306423
  17.6389011  12.0056762  57.5776444  19.7642946  66.1367369  51.5053606
  20.5059600  66.0613966  52.1057653  19.4986713  65.2324581  51.3381577
  48.1599379  45.5403900  23.7567258  49.0400314  45.2429724  23.9873910
  48.2836008  46.4381361  23.4485221  49.8826361  58.8424921  14.2662501
  50.6920910  58.5810328  13.8273287  50.0629282  59.7224998  14.5968723
  77.1105838  60.2273512  15.0422513  76.5477058  59.4945574  15.2920818
  76.9211128  60.3695631  14.1148317  32.8666019  57.9056120  10.5420661
  32.5241256  57.0734644  10.2157724  32.0998764  58.3595276  10.8918107
  34.4349632  33.4841904   5.2284205  33.9697180  32.6970467   4.9452469
  33.8613377  34.2065128   4.9726251  32.2873378  55.3821993  18.4143102
  31.5554428  55.9255981  18.1222856  32.5099134  54.8497009  17.6506770
  55.8153248  49.4518661  23.6267829  56.3691139  50.2276707  23.5392022
  56.1878490  48.9740992  24.3678617  23.9903188  28.9674139  15.4954565
  24.0650082  29.2096901  16.4184701  23.8314843  28.0235648  15.5076694
   7.9853996  12.1829738  53.7963031   8.7935408  12.3844279  53.3245478
   8.2778295  11.9030894  54.6637045  73.1999516  35.0469960  58.8158510
  73.0432224  35.2200402  59.7441421  72.3251843  34.9542989  58.4384666
   0.5144032  60.2849044  29.5835922   1.1214765  60.9019412  29.9921892
   0.8208760  60.2102698  28.6798571  68.4838025   3.0671486  12.4437022
  67.7437035   3.1750902  13.0410576  68.9983097   2.3561701  12.8258371
   3.4542546  73.9605951   8.9068753   3.8826853  74.3572760   9.6653748
   3.3268809  73.0450344   9.1553879  19.3030846  65.1980782  11.4328051
  19.4303608  64.7804451  10.5809736  19.4654334  66.1273575  11.2705970
  17.8923714  59.1557789  20.9116292  18.4978604  59.0438414  21.6444921
  17.9905927  58.3556938  20.3954458  38.7587277   2.2398027   6.9971693
  39.2622224   3.0511793   7.0634425  38.3924369   2.2567638   6.1129892
  58.2163315  19.5630492  53.8397668  58.7364470  20.1931561  54.3384443
  58.5735922  18.7097300  54.0856217  77.7132868  32.0970620  61.4687608
  77.7604651  32.3516358  62.3902793  76.8871259  32.4686994  61.1596037
  32.7468371  68.5945940  10.4472160  33.0369711  69.4918489  10.2829385
  33.5219884  68.1516266  10.7924032  39.3112230  41.8064737  12.6608300
  39.2868352  40.8591032  12.7954638  39.6932030  42.1532202  13.4671116
  71.5641061  38.3404779  43.4421921  71.0127309  38.9437914  42.9439640
  71.7747447  38.8163996  44.2455387  61.0288339  24.0006913  61.3130681
  61.4155071  23.8852347  62.1810458  61.4521890  23.3344115  60.7717086
  53.4016545  27.4561299  50.8061550  52.4872294  27.1930207  50.9102331
  53.4470964  28.3262862  51.2023793  17.9636467  21.4381695  10.6110382
  18.5629547  21.2877893  11.3420975  17.1865177  20.9234309  10.8286297
  77.4439981  40.8734417  13.6394119  77.9298259  40.0811005  13.4104955
  76.5368828  40.5809927  13.7279940  42.7455800   3.2893123  23.5660647
  43.4832548   2.9152216  23.0842732  42.8939664   4.2344369  23.5352657
   6.1194976  52.0240439  57.0577572   6.2120613  51.2727775  56.4718680
   6.9855603  52.4316348  57.0632432  31.4044634   6.8370041  17.4501789
  32.2605840   7.1917328  17.6898849  31.5926651   5.9571156  17.1236706
  45.1331806  51.7668247   9.5477670  44.5336723  51.1134052   9.1874063
  45.6305075  52.0784235   8.7915897   8.8607033  35.5031289  59.0856425
   9.2039474  35.2249707  59.9347843   9.4900187  36.1537637  58.7744002
  73.8016564  59.2563820   1.9776757  73.6098078  60.1778030   1.8032680
  74.7477880  59.1810799   1.8535939  15.8154273  60.7574320   9.1358036
  15.9376574  61.7045784   9.0709507  16.0028994  60.4309273   8.2557583
  24.7332120  60.7956724  50.3861771  25.2472924  61.5373425  50.7053648
  25.3470001  60.0611691  50.3860567  66.5556764  18.9463700  60.4110862
  65.8102226  19.5319594  60.2783654  66.2311112  18.0833949  60.1538543
  62.8779212   7.0215305  35.7815695  63.2798187   6.7291054  36.5996146
  63.3083240   6.5005669  35.1036382  70.3509866  40.1919545  29.7326539
  70.5162036  41.1325492  29.7975300  69.4855034  40.0732507  30.1239083
  42.4352980  50.2066469  14.0473557  43.3693790  50.1019812  14.2283797
  42.2453642  51.1140585  14.2856038  57.6692239   6.6448006  21.1806393
  57.8863017   5.7777819  21.5232635  58.4914509   6.9703087  20.8142853
  55.5259076   3.1315464  32.1709752  55.1397911   3.7304455  32.8100872
  55.9691730   3.7033409  31.5442371  46.7870251   3.6918816  16.7467821
  46.0158340   4.1413626  16.4011467  47.3206822   4.3897184  17.1268725
  38.0129123  26.6759610  12.9596627  38.5595608  25.9843850  13.3326638
  38.1498432  27.4270797  13.5369861  77.1930330  45.6326246   1.5762079
  78.0759012  45.4036570   1.2857772  76.9818221  44.9767447   2.2406176
  60.9531323  57.1613163  61.8596884  60.2697722  56.9050640  61.2403485
  61.7039029  57.3841280  61.3092991  49.4523954  54.2541218   8.9247847
  48.8655853  54.9036074   9.3121481  50.1360750  54.7721767   8.5000086
  17.7647877  26.0553956   8.1954581  17.5325179  25.3258276   8.7699270
  16.9260895  26.3737822   7.8616184   0.7237776  43.6126555  54.0148686
   0.3496917  43.0380763  53.3469270   0.5631288  44.4974650  53.6869381
  39.4624424  46.5501308   0.6480286  39.8280811  47.0101738  -0.1075521
  40.2271271  46.2300873   1.1266319  53.9045858  37.1008205   0.9929632
  53.5344410  37.3311305   0.1407996  53.3180857  37.5120592   1.6278908
  18.7739690  44.3444003  63.5252519  18.3310159  44.5863475  62.7119331
  18.0706295  44.2814006  64.1714515  58.8305264   7.4412288  59.5578961
  59.7416388   7.4862279  59.8478640  58.8457619   6.8408526  58.8125448
  19.3059381  14.5698680  53.7663589  18.7906059  15.3544749  53.5791228
  19.3765577  14.1227807  52.9229377   1.8467864  25.0837459  51.3347934
   1.9392451  25.8748998  51.8656026   0.9505590  25.1227273  51.0008918
  21.1856246  70.8347940  27.5916576  21.7178321  71.4588881  28.0851102
  21.1466742  70.0587177  28.1506014  33.3343841  52.1494834  60.8707891
  33.2737799  52.4487417  61.7779843  33.4805925  51.2059836  60.9390764
  63.8076102  24.3094148  12.7015351  64.1777550  24.5453299  11.8509100
  63.6590647  25.1477756  13.1389330  30.6705117  15.2469087  28.5191464
  30.5548525  16.0047722  29.0922928  30.7757640  15.6217670  27.6447129
  71.8889164   0.6085004  52.0312701  71.6898834  -0.2262317  52.4553452
  71.9436061   0.3966893  51.0994027  25.7189441  35.2129483  18.7333417
  26.0550308  34.9182224  17.8869295  24.8005962  34.9430037  18.7335503
   9.8074275  66.1898327   8.6071420  10.7051420  66.5144062   8.6777967
   9.5053858  66.1217165   9.5128810  68.1986856  24.7321166  52.1808742
  67.9299044  24.8071374  53.0964945  67.5833081  24.1048945  51.8012295
   0.7158573  72.0711708  20.1373839   0.5161910  72.0700455  21.0735273
   0.4522332  71.2020206  19.8352122  48.2220411  44.6373463   9.5507765
  47.7666140  44.5571280  10.3888595  49.0932465  44.9598169   9.7815156
  34.8439608  21.9317707   2.8007647  35.1494322  21.0359081   2.6581112
  35.1242737  22.4077400   2.0190319  65.9980861   5.2070221   3.6541820
  65.2914277   5.1134905   3.0153391  66.7422072   4.7553333   3.2560715
  57.8035212  64.9238110  37.0260596  57.9895258  65.8626413  37.0412350
  57.9025698  64.6748400  36.1071277   8.1725907  44.2652273  25.0853825
   8.2555115  43.3132601  25.1411414   8.9308065  44.5419645  24.5708346
  57.5622503  16.7155346  45.1857138  58.0715648  15.9073147  45.1256466
  57.8243939  17.2215447  44.4166470  13.1353581  66.5746593  34.8563623
  12.9254305  66.4983654  33.9255881  12.3532963  66.9644308  35.2471137
  25.2915763  15.7612313  54.8512386  26.0888004  15.9054460  54.3414668
  24.9143147  14.9614943  54.4847344  52.5051824  32.7989754   9.5023769
  53.1795923  32.1206554   9.4664174  52.9907528  33.6124977   9.6388704
  20.1629957  70.2792205  40.2941774  19.3976911  70.8525790  40.3365324
  20.4743703  70.2282180  41.1978791   9.5151013  36.6082191  18.4277356
   8.9874375  36.2272525  19.1296363   9.3531036  37.5495386  18.4902394
  61.3516855  65.9478702  37.8436111  61.4648926  65.6025828  38.7291597
  61.9338601  65.4146041  37.3023723  43.0701542  40.0151825  10.8171129
  43.0721951  39.2946887  11.4472842  42.6527500  40.7397032  11.2830234
  57.7692381   8.0502018   9.9729025  58.3024160   7.3077377  10.2569675
  58.3890621   8.6397633   9.5434058  47.5048181  42.9543866  59.5582030
  47.7719464  42.9759349  58.6392854  47.9525047  42.1895446  59.9199010
   6.8823322  62.8503932  43.1195210   7.6290234  63.3420600  43.4614990
   6.9750746  61.9776095  43.5014508  78.4908994  46.0726457  53.0779789
  78.5283454  46.8112777  53.6856411  77.5572141  45.9517221  52.9052196
  52.3862775  51.5410213  64.0290920  52.1290500  52.1637754  63.3492075
  52.7267940  52.0871048  64.7376624  53.8586362  53.7717836  33.7081931
  54.4055708  53.0544870  34.0284751  52.9782994  53.5582285  34.0174339
  37.6184066  63.0354195  61.6462637  36.7851885  62.5881009  61.7941995
  37.9078753  62.7250104  60.7883094  49.6899779  70.8559875  24.9758671
  48.9144094  70.3695803  25.2553867  50.0359304  71.2389712  25.7820128
  70.5102979   6.6874923  41.6102932  71.2117099   6.3689031  42.1784089
  70.9645998   7.0577802  40.8535050  65.5213176   7.7353991  33.8952254
  65.9387540   8.0801238  34.6846197  65.6577563   8.4155215  33.2356427
  32.6094389  60.4379559  13.5159647  33.1570721  60.8080339  14.2083311
  32.7708673  59.4955349  13.5608912  57.6505709  60.5838871  15.8931637
  57.2090530  60.9439039  15.1239550  58.0574417  59.7761822  15.5796373
  69.0234660  11.7637814  52.4016855  68.2905733  11.7227639  51.7873429
  68.7575650  12.4174203  53.0484377  68.2965977  64.6021371  51.0426734
  67.4916489  64.8838406  51.4773308  68.8819535  65.3564672  51.1103628
  22.3390722  15.6512368   0.9151742  22.9352832  15.0280154   0.5000127
  22.7865982  15.9107363   1.7205384  25.9099841  69.8278284   0.2543549
  26.6044927  70.4335833   0.5131070  26.0632229  69.0466356   0.7858458
  23.6618408  20.4022492  13.2387541  23.1328901  21.0437144  12.7644489
  24.1653713  20.9228267  13.8646076  31.6998672  65.5133152  12.2245288
  30.8378363  65.3099823  11.8614972  31.5477228  66.2663078  12.7955675
  71.8850183  25.8855809  37.5079797  71.8594980  24.9297847  37.5531505
  72.3850226  26.0745658  36.7139338  70.3388881  22.5584592  29.1369508
  69.9202167  21.9151677  29.7088955  69.6247577  23.1314887  28.8578652
  23.5019477  71.9117583  25.8130930  23.0437549  71.1035384  26.0434530
  22.8088983  72.5067557  25.5269192  76.8533086  17.7182330  55.9595959
  77.2563767  18.5292710  55.6497787  77.3530411  17.4862088  56.7423247
  41.9534620  15.9669770  53.8725637  42.5442203  16.5762700  53.4298442
  41.1928161  16.4986266  54.1070907   3.6465915   6.7367305  57.3240779
   4.5154913   7.0239676  57.6046870   3.7749561   5.8336104  57.0340340
  54.0643241  19.8074092  57.0806186  54.0984651  19.1352738  57.7612804
  53.3695009  19.5155705  56.4904646  31.6764259  51.1261988   0.0539969
  31.5415978  50.4583168   0.7262974  32.4155664  51.6430092   0.3746358
  37.3528989   1.1642875  55.1268552  36.7560943   0.4276146  55.2586286
  37.1272691   1.7826046  55.8218418  54.3833724  45.8329773  17.7785099
  54.7882572  44.9684811  17.8488100  54.0369073  45.8633900  16.8867314
   0.4591100  66.7306809  33.0252264  -0.3646977  66.4177947  33.3989571
   1.0624711  66.7616348  33.7676762  63.9143951  59.1283660  44.1213153
  63.5836919  59.1559462  45.0191508  63.3398564  59.7206120  43.6361526
  78.4605470  78.4605470  78.4605470 109.4712190 109.4712190 109.4712190
